INSANE! Membrane UpperLeaflet>loPI=1.0 LowerLeaflet>PSPI:POPI:POPS:YOPS:POPE:YOPE:POPC:YOPC:ERGO=6.0:14.0:21.0:9.0:9.0:21.0:12.0:48.0:60.0
49877
    1loPI    C1    1  13.339  13.393  11.080  0.1279  0.0396  0.1149
    1loPI    C2    2  12.975  13.508  11.200  0.0032 -0.1995 -0.0276
    1loPI    C3    3  13.284  13.760  11.230 -0.2384  0.1269 -0.2159
    1loPI   PO4    4  13.316  13.285  10.862 -0.2270  0.1644  0.1090
    1loPI   GL1    5  13.415  13.070  10.506  0.3690  0.1064 -0.1674
    1loPI   GL2    6  13.666  12.829  10.424 -0.1316  0.3819  0.0340
    1loPI   C1A    7  13.322  13.130  10.114 -0.1318 -0.2301 -0.1208
    1loPI   C2A    8  13.309  13.274   9.694 -0.1575  0.1379 -0.1229
    1loPI   C3A    9  13.456  13.346   9.307 -0.2951  0.1496  0.1254
    1loPI   C4A   10  13.397  13.397   8.845  0.0862  0.3172 -0.0547
    1loPI   C5A   11  13.519  13.127   8.555 -0.0003  0.2308 -0.2792
    1loPI   C6A   12  13.454  12.828   8.331  0.2628  0.2342 -0.1953
    1loPI   C1B   13  13.838  12.916  10.049 -0.1074  0.0603 -0.2269
    1loPI   C2B   14  13.821  12.977   9.732  0.3293  0.3386 -0.1587
    1loPI   C3B   15  13.846  13.057   9.365  0.2890 -0.3182  0.3117
    1loPI   C4B   16  13.880  13.029   8.976  0.1112  0.1307 -0.1846
    2loPI    C1   17  10.021   9.748  11.073  0.1307  0.1858  0.2208
    2loPI    C2   18   9.804   9.436  11.200 -0.1258  0.1080 -0.3728
    2loPI    C3   19   9.731   9.802  11.344  0.0368 -0.0646  0.1736
    2loPI   PO4   20   9.952   9.638  10.764 -0.2447 -0.1708  0.2670
    2loPI   GL1   21   9.870   9.609  10.308 -0.1738 -0.2066 -0.0338
    2loPI   GL2   22  10.033   9.327  10.228  0.0586  0.0337  0.1177
    2loPI   C1A   23   9.637   9.665   9.996 -0.2556 -0.0592 -0.0999
    2loPI   C2A   24   9.631   9.701   9.509 -0.2186 -0.0741  0.0061
    2loPI   C3A   25   9.663   9.798   9.048  0.0665 -0.2119  0.1685
    2loPI   C4A   26   9.652   9.794   8.592 -0.2075  0.1502 -0.2516
    2loPI   C5A   27   9.511   9.722   8.112  0.2935  0.2029  0.2061
    2loPI   C6A   28   9.499   9.894   7.703  0.0008  0.0595 -0.0177
    2loPI   C1B   29  10.024   9.405   9.761  0.0277 -0.2229 -0.1446
    2loPI   C2B   30  10.038   9.434   9.309 -0.2075  0.1319 -0.0513
    2loPI   C3B   31  10.146   9.549   8.902 -0.2525  0.0139 -0.1415
    2loPI   C4B   32  10.113   9.564   8.416  0.0482 -0.3009  0.1946
    3loPI    C1   33   5.270   9.141  11.032 -0.2366 -0.3108 -0.0085
    3loPI    C2   34   5.021   9.112  11.343 -0.0362 -0.0682  0.1801
    3loPI    C3   35   5.233   8.793  11.226 -0.1515 -0.1745  0.2572
    3loPI   PO4   36   5.229   9.365  10.930 -0.2631 -0.3776 -0.1112
    3loPI   GL1   37   5.093   9.490  10.609 -0.3118 -0.2173 -0.1607
    3loPI   GL2   38   5.096   9.774  10.442 -0.0684  0.0709  0.1939
    3loPI   C1A   39   5.065   9.444  10.096 -0.1254 -0.4048  0.0347
    3loPI   C2A   40   5.178   9.455   9.660  0.2646 -0.1975  0.0637
    3loPI   C3A   41   5.226   9.509   9.294  0.0833  0.1890 -0.0603
    3loPI   C4A   42   5.130   9.468   8.824  0.0336 -0.0181 -0.0117
    3loPI   C5A   43   5.094   9.577   8.415 -0.2499 -0.0397 -0.2919
    3loPI   C6A   44   5.361   9.530   8.079  0.0787  0.1181 -0.1581
    3loPI   C1B   45   5.129   9.940   9.978 -0.2626  0.1275 -0.0329
    3loPI   C2B   46   5.163   9.933   9.513 -0.2199  0.4933 -0.5196
    3loPI   C3B   47   5.158   9.949   8.975 -0.0092  0.2260 -0.0293
    3loPI   C4B   48   5.085  10.062   8.541  0.1564  0.2165 -0.1572
    4loPI    C1   49  15.578   9.831  10.621 -0.1241  0.2406  0.2797
    4loPI    C2   50  15.965   9.734  10.658 -0.1278  0.1668  0.1314
    4loPI    C3   51  15.685   9.512  10.837 -0.1249  0.0005 -0.0671
    4loPI   PO4   52  15.527   9.932  10.427  0.1021  0.0306  0.1017
    4loPI   GL1   53  15.416   9.849   9.989  0.2074 -0.0642  0.0416
    4loPI   GL2   54  15.184   9.740  10.095 -0.3024 -0.0652  0.0717
    4loPI   C1A   55  15.474   9.832   9.616 -0.2530  0.0434  0.1568
    4loPI   C2A   56  15.407   9.890   9.149 -0.2415  0.2165  0.2515
    4loPI   C3A   57  15.423   9.810   8.781 -0.0182  0.2071  0.2011
    4loPI   C4A   58  15.421   9.794   8.379 -0.0770  0.2127 -0.2419
    4loPI   C5A   59  15.025   9.687   8.079 -0.0619 -0.2167  0.0320
    4loPI   C6A   60  14.563   9.892   7.987 -0.0549 -0.0375 -0.0549
    4loPI   C1B   61  14.977   9.685   9.658  0.0925 -0.2543 -0.0736
    4loPI   C2B   62  15.045   9.600   9.312 -0.0559 -0.2168  0.2278
    4loPI   C3B   63  14.886   9.556   8.900  0.2616  0.2048  0.1893
    4loPI   C4B   64  15.012   9.470   8.534  0.1951 -0.0883 -0.2105
    5loPI    C1   65   2.097   8.439  10.602  0.0163  0.3362  0.0306
    5loPI    C2   66   1.713   8.404  10.708  0.1022 -0.0611  0.2311
    5loPI    C3   67   1.940   8.077  10.671  0.3012  0.1320 -0.3566
    5loPI   PO4   68   2.087   8.534  10.433  0.3102 -0.3265  0.1624
    5loPI   GL1   69   2.337   8.465  10.100 -0.0531 -0.1804 -0.1542
    5loPI   GL2   70   2.506   8.691  10.173 -0.4044  0.1354  0.1848
    5loPI   C1A   71   2.253   8.682   9.720  0.0249  0.2884  0.1375
    5loPI   C2A   72   2.344   8.723   9.325  0.0252 -0.1973 -0.1534
    5loPI   C3A   73   2.286   8.767   8.933 -0.0951  0.2809 -0.0587
    5loPI   C4A   74   2.213   8.850   8.514  0.1844  0.3348 -0.1140
    5loPI   C5A   75   2.312   8.799   8.103 -0.1033  0.1840 -0.0544
    5loPI   C6A   76   2.704   8.836   8.131  0.1472 -0.0740  0.1032
    5loPI   C1B   77   2.783   8.859   9.922  0.2009  0.0443  0.0142
    5loPI   C2B   78   2.822   8.877   9.503  0.2828 -0.3891  0.3483
    5loPI   C3B   79   2.826   8.845   9.068  0.1146 -0.1360  0.0533
    5loPI   C4B   80   2.737   8.999   8.614 -0.2521  0.2397  0.0764
    6loPI    C1   81   1.841   6.749  10.109 -0.2250 -0.0193  0.0189
    6loPI    C2   82   2.113   7.014  10.232 -0.2776  0.0170  0.0577
    6loPI    C3   83   2.082   6.660  10.415 -0.2153 -0.0115  0.0135
    6loPI   PO4   84   1.855   6.789   9.853 -0.0696  0.0885 -0.0069
    6loPI   GL1   85   1.690   6.923   9.479  0.2927  0.1243  0.2336
    6loPI   GL2   86   1.524   6.662   9.513 -0.0099  0.1179 -0.1886
    6loPI   C1A   87   1.633   7.054   9.045  0.2407 -0.2638 -0.1003
    6loPI   C2A   88   1.543   7.067   8.541  0.0174 -0.5081  0.0783
    6loPI   C3A   89   1.615   6.907   8.167 -0.1116 -0.0940  0.2273
    6loPI   C4A   90   1.835   6.910   7.794 -0.0891  0.1831 -0.0123
    6loPI   C5A   91   2.135   6.844   7.556  0.2834  0.0266  0.1252
    6loPI   C6A   92   2.308   6.723   7.069  0.1408  0.0848  0.0253
    6loPI   C1B   93   1.506   6.570   9.004  0.0096  0.3118 -0.1575
    6loPI   C2B   94   1.491   6.560   8.566  0.0315  0.2368  0.0663
    6loPI   C3B   95   1.682   6.343   8.275  0.2897 -0.2985  0.1083
    6loPI   C4B   96   1.815   6.438   7.881 -0.0600  0.1470 -0.3786
    7loPI    C1   97  18.395  13.916  11.124 -0.0600 -0.3534  0.0447
    7loPI    C2   98  18.303  14.102  11.466  0.1058  0.0804 -0.1388
    7loPI    C3   99  18.018  14.029  11.195  0.0098 -0.0884  0.0057
    7loPI   PO4  100  18.601  14.121  11.019 -0.4531  0.0735 -0.2206
    7loPI   GL1  101  18.600  14.395  10.604  0.0732 -0.2910 -0.2853
    7loPI   GL2  102  18.301  14.414  10.338 -0.0790  0.4219 -0.1750
    7loPI   C1A  103  18.674  14.230  10.121 -0.3182  0.1522 -0.2700
    7loPI   C2A  104  18.731  14.238   9.683 -0.1371  0.1753 -0.0631
    7loPI   C3A  105  18.770  14.182   9.228  0.0024  0.0552  0.1596
    7loPI   C4A  106  18.701  14.225   8.734  0.1218  0.3791  0.1103
    7loPI   C5A  107  19.032  14.233   8.312  0.1652  0.0917  0.1386
    7loPI   C6A  108  19.436  14.321   8.020  0.0146 -0.1409  0.2079
    7loPI   C1B  109  18.314  14.461   9.850 -0.0264  0.0658 -0.2939
    7loPI   C2B  110  18.348  14.450   9.413 -0.0567  0.2014 -0.0339
    7loPI   C3B  111  18.392  14.475   8.975 -0.2940 -0.1501  0.3008
    7loPI   C4B  112  18.281  14.423   8.533 -0.0358  0.0543  0.1629
    8loPI    C1  113   7.644   9.184  11.058  0.0765  0.1134 -0.1646
    8loPI    C2  114   7.264   9.062  11.065  0.0249  0.2809  0.1327
    8loPI    C3  115   7.544   8.856  11.262  0.0706  0.2195  0.0049
    8loPI   PO4  116   7.654   9.187  10.743 -0.1837  0.0485 -0.1856
    8loPI   GL1  117   7.624   9.500  10.341  0.0323  0.1602 -0.2395
    8loPI   GL2  118   7.920   9.307  10.076  0.0303  0.3109  0.1578
    8loPI   C1A  119   7.494   9.594   9.886  0.1660  0.0952  0.0057
    8loPI   C2A  120   7.383   9.649   9.427 -0.2094 -0.0304 -0.1349
    8loPI   C3A  121   7.340   9.564   9.032  0.0089  0.2991  0.1317
    8loPI   C4A  122   7.444   9.514   8.607 -0.0591 -0.0417  0.0233
    8loPI   C5A  123   7.629   9.641   8.202  0.0547 -0.2771  0.0979
    8loPI   C6A  124   7.591   9.213   7.812  0.1301  0.2158  0.0870
    8loPI   C1B  125   7.853   9.310   9.699  0.0994  0.0595  0.2084
    8loPI   C2B  126   7.738   9.310   9.320  0.0924  0.0649  0.1652
    8loPI   C3B  127   7.815   9.329   8.894  0.1230 -0.0884  0.0957
    8loPI   C4B  128   7.854   9.268   8.392  0.2082  0.2185 -0.1461
    9loPI    C1  129   4.157  11.130  10.944  0.2879  0.0325  0.1227
    9loPI    C2  130   4.376  11.428  11.096  0.3359 -0.0241  0.1648
    9loPI    C3  131   4.011  11.354  11.241  0.2160  0.1836 -0.0248
    9loPI   PO4  132   4.216  11.178  10.636 -0.1274 -0.1443 -0.0381
    9loPI   GL1  133   4.455  10.962  10.393  0.2158  0.1158  0.2876
    9loPI   GL2  134   4.185  10.957  10.186  0.0693 -0.1093  0.0462
    9loPI   C1A  135   4.682  10.783  10.033 -0.0903 -0.2847 -0.3763
    9loPI   C2A  136   4.811  10.784   9.515  0.2984 -0.0832  0.0976
    9loPI   C3A  137   4.692  10.764   9.143 -0.3548  0.0661 -0.2171
    9loPI   C4A  138   4.812  10.857   8.830  0.0506  0.2895  0.0476
    9loPI   C5A  139   5.021  10.886   8.343 -0.0627  0.3037 -0.0759
    9loPI   C6A  140   5.240  11.217   8.046  0.0128 -0.2608  0.0784
    9loPI   C1B  141   4.329  11.117   9.794 -0.1663  0.0449  0.0785
    9loPI   C2B  142   4.335  11.002   9.431 -0.0237 -0.2555  0.0027
    9loPI   C3B  143   4.301  11.099   9.084  0.1213  0.0075 -0.2125
    9loPI   C4B  144   4.406  11.177   8.686  0.0479 -0.2204 -0.0165
   10loPI    C1  145  10.833  13.255  10.816 -0.0214 -0.3734  0.0496
   10loPI    C2  146  10.942  12.960  11.062 -0.3030 -0.3167  0.2464
   10loPI    C3  147  10.900  13.332  11.203  0.0702 -0.1741 -0.0044
   10loPI   PO4  148  10.708  13.136  10.651  0.0094 -0.0859 -0.0522
   10loPI   GL1  149  10.584  12.821  10.430  0.0149 -0.1008  0.0134
   10loPI   GL2  150  10.636  12.473  10.365  0.3271 -0.2323  0.1968
   10loPI   C1A  151  10.612  12.915   9.984  0.1322 -0.2360  0.0728
   10loPI   C2A  152  10.747  12.976   9.637  0.1357 -0.0598  0.1122
   10loPI   C3A  153  10.766  12.914   9.297  0.3644  0.3553 -0.2921
   10loPI   C4A  154  10.663  12.949   8.931 -0.4316 -0.3130 -0.2570
   10loPI   C5A  155  10.755  13.179   8.575  0.1250  0.2145  0.0643
   10loPI   C6A  156  10.825  13.452   8.249  0.0420  0.0075  0.0249
   10loPI   C1B  157  10.612  12.427   9.992 -0.0190  0.1506 -0.1155
   10loPI   C2B  158  10.677  12.479   9.498  0.2681  0.0072  0.0217
   10loPI   C3B  159  10.671  12.387   9.057  0.6362 -0.0648  0.0331
   10loPI   C4B  160  10.775  12.434   8.610 -0.2115 -0.1010 -0.1363
   11loPI    C1  161  12.058  16.958  11.025  0.0071  0.1513 -0.0839
   11loPI    C2  162  11.703  16.777  11.062  0.0018  0.1598 -0.0934
   11loPI    C3  163  11.887  16.925  11.385  0.0563  0.0420 -0.0701
   11loPI   PO4  164  12.013  17.154  10.806 -0.0471 -0.0694  0.2099
   11loPI   GL1  165  11.991  17.244  10.307  0.0316 -0.1820  0.0823
   11loPI   GL2  166  11.826  16.959  10.043  0.1280 -0.0259 -0.1382
   11loPI   C1A  167  11.788  17.428   9.917  0.2264  0.0962 -0.0730
   11loPI   C2A  168  11.756  17.488   9.542  0.0391 -0.3012 -0.1813
   11loPI   C3A  169  11.828  17.558   9.207 -0.0293 -0.0412 -0.0472
   11loPI   C4A  170  11.870  17.613   8.779 -0.1345  0.1399 -0.1227
   11loPI   C5A  171  11.751  17.649   8.370 -0.1259 -0.0141 -0.1763
   11loPI   C6A  172  11.915  17.732   7.997  0.0448  0.1420 -0.1827
   11loPI   C1B  173  11.785  16.998   9.582  0.3276 -0.1525 -0.1551
   11loPI   C2B  174  11.802  17.085   9.131  0.0949 -0.1203 -0.0003
   11loPI   C3B  175  11.855  17.145   8.640  0.1056  0.2514 -0.1919
   11loPI   C4B  176  11.760  17.140   8.147  0.2434 -0.4579 -0.0722
   12loPI    C1  177  16.297   5.984  10.095 -0.0188 -0.0409  0.1794
   12loPI    C2  178  16.615   5.811  10.264  0.0436 -0.0954  0.0090
   12loPI    C3  179  16.662   6.043   9.942 -0.0924 -0.1245 -0.0322
   12loPI   PO4  180  16.111   5.717   9.952 -0.1870 -0.3038 -0.1637
   12loPI   GL1  181  16.156   5.692   9.471  0.1483  0.0555  0.0243
   12loPI   GL2  182  16.239   6.043   9.552 -0.2499  0.1299 -0.0293
   12loPI   C1A  183  16.599   5.787   9.205  0.1292 -0.1255  0.1110
   12loPI   C2A  184  16.682   5.803   8.790  0.0802 -0.0414 -0.0926
   12loPI   C3A  185  16.693   5.654   8.431  0.1893 -0.1311  0.0886
   12loPI   C4A  186  16.616   5.717   7.939 -0.1427 -0.0777 -0.1704
   12loPI   C5A  187  16.382   5.793   7.619 -0.1943 -0.1522 -0.1557
   12loPI   C6A  188  16.346   6.131   7.311 -0.1476  0.0067 -0.1489
   12loPI   C1B  189  16.266   6.099   9.019  0.0527 -0.0813  0.0249
   12loPI   C2B  190  16.279   6.121   8.546 -0.0851  0.2196 -0.0950
   12loPI   C3B  191  16.218   6.147   8.126  0.3555 -0.1158 -0.0910
   12loPI   C4B  192  16.116   6.238   7.724  0.1172  0.1013 -0.3638
   13loPI    C1  193   7.392  10.796  11.156  0.0486 -0.2799  0.0169
   13loPI    C2  194   7.438  11.093  11.420 -0.1062 -0.1381 -0.1131
   13loPI    C3  195   7.353  10.724  11.548  0.2022 -0.1541  0.0565
   13loPI   PO4  196   7.286  10.948  10.901  0.0367  0.2925  0.1130
   13loPI   GL1  197   7.394  10.961  10.495  0.0686  0.2176  0.1622
   13loPI   GL2  198   7.176  10.913  10.253 -0.1720 -0.2335  0.1268
   13loPI   C1A  199   7.557  10.674  10.074 -0.0566 -0.0506 -0.4662
   13loPI   C2A  200   7.459  10.807   9.645 -0.1161 -0.1183  0.0837
   13loPI   C3A  201   7.548  10.727   9.180  0.0302  0.0867 -0.1422
   13loPI   C4A  202   7.436  10.581   8.770  0.5147  0.1759 -0.0322
   13loPI   C5A  203   7.355  10.641   8.225  0.1296 -0.0342  0.0503
   13loPI   C6A  204   7.540  10.624   7.829 -0.1328  0.0719 -0.2659
   13loPI   C1B  205   7.022  10.973   9.754 -0.0465  0.0626 -0.0648
   13loPI   C2B  206   7.102  11.024   9.292  0.3669 -0.0462 -0.0973
   13loPI   C3B  207   7.074  10.876   8.932 -0.2609  0.2254 -0.1943
   13loPI   C4B  208   6.975  10.689   8.498  0.0080 -0.2605  0.2228
   14loPI    C1  209  10.293  10.039  10.791  0.2248 -0.0662 -0.0188
   14loPI    C2  210  10.467  10.376  10.916  0.1521 -0.0321 -0.0099
   14loPI    C3  211  10.090  10.295  11.021  0.2177 -0.1867  0.1109
   14loPI   PO4  212  10.314  10.001  10.540  0.3939 -0.1178  0.0343
   14loPI   GL1  213  10.288  10.177  10.156 -0.1803  0.2414  0.0329
   14loPI   GL2  214  10.558  10.115   9.991 -0.1565  0.1423  0.0906
   14loPI   C1A  215  10.082   9.991   9.834  0.1225  0.1529  0.4062
   14loPI   C2A  216  10.052   9.926   9.467 -0.2213 -0.0144  0.0392
   14loPI   C3A  217  10.114  10.005   9.039  0.2395  0.0872  0.0869
   14loPI   C4A  218  10.135   9.975   8.693 -0.4033 -0.0579  0.0152
   14loPI   C5A  219  10.076  10.061   8.272  0.3327 -0.2012 -0.4015
   14loPI   C6A  220   9.725  10.203   8.022 -0.0360  0.2883 -0.2866
   14loPI   C1B  221  10.479  10.211   9.606 -0.0798  0.2040  0.2328
   14loPI   C2B  222  10.505  10.272   9.199 -0.2288  0.2275 -0.3670
   14loPI   C3B  223  10.490  10.325   8.713  0.2151 -0.0004 -0.1487
   14loPI   C4B  224  10.565  10.341   8.239 -0.0716 -0.0344 -0.2189
   15loPI    C1  225   2.417  16.694  11.017 -0.0939  0.1780  0.0087
   15loPI    C2  226   2.327  16.308  11.067  0.0132  0.1558  0.0319
   15loPI    C3  227   2.287  16.564  11.372 -0.0133  0.1543  0.0297
   15loPI   PO4  228   2.646  16.594  10.846 -0.1411  0.1255  0.0945
   15loPI   GL1  229   2.827  16.548  10.385 -0.0652 -0.0966 -0.2978
   15loPI   GL2  230   2.904  16.803  10.398  0.0981  0.0813 -0.2675
   15loPI   C1A  231   2.735  16.549   9.894 -0.4484  0.2058  0.1808
   15loPI   C2A  232   2.764  16.521   9.445  0.2214  0.2559 -0.0518
   15loPI   C3A  233   2.866  16.407   8.970  0.1609  0.2467  0.1575
   15loPI   C4A  234   2.731  16.447   8.557 -0.3930  0.0132 -0.0281
   15loPI   C5A  235   2.326  16.438   8.291  0.1154 -0.1292  0.0948
   15loPI   C6A  236   2.119  16.553   7.897 -0.1871 -0.0570 -0.2086
   15loPI   C1B  237   3.108  16.783  10.065 -0.1484 -0.0550 -0.1770
   15loPI   C2B  238   3.136  16.732   9.663 -0.3275 -0.0146  0.1604
   15loPI   C3B  239   3.248  16.620   9.227 -0.0300 -0.1247  0.3267
   15loPI   C4B  240   3.308  16.614   8.885 -0.2356 -0.0491 -0.2268
   16loPI    C1  241   8.112  11.739  11.210  0.0280  0.2318  0.0120
   16loPI    C2  242   7.826  11.482  11.321  0.2372 -0.0805 -0.1553
   16loPI    C3  243   8.016  11.702  11.596 -0.0461  0.0070 -0.0264
   16loPI   PO4  244   8.029  11.712  10.928  0.0699  0.0053  0.1466
   16loPI   GL1  245   7.814  11.709  10.533  0.0950  0.2507 -0.2146
   16loPI   GL2  246   7.793  12.041  10.599  0.0878  0.1434  0.0537
   16loPI   C1A  247   7.971  11.550  10.159 -0.0580  0.0693  0.0248
   16loPI   C2A  248   7.978  11.433   9.666 -0.1980 -0.0535 -0.0561
   16loPI   C3A  249   7.991  11.470   9.204  0.1207 -0.4279 -0.1955
   16loPI   C4A  250   7.933  11.451   8.816  0.0601 -0.4697  0.0378
   16loPI   C5A  251   7.698  11.369   8.429 -0.3268  0.3371  0.0763
   16loPI   C6A  252   7.458  11.605   8.067  0.0411  0.1162 -0.1779
   16loPI   C1B  253   7.791  12.007  10.141 -0.1872 -0.0742  0.1573
   16loPI   C2B  254   8.032  11.961   9.776  0.0088  0.0855 -0.2613
   16loPI   C3B  255   8.028  12.030   9.355  0.0223 -0.2033 -0.0048
   16loPI   C4B  256   7.957  12.108   8.974 -0.1021  0.1509  0.0544
   17loPI    C1  257   5.444   7.720  10.693 -0.1033 -0.1659  0.0871
   17loPI    C2  258   5.129   7.856  10.898 -0.0254 -0.1268  0.1820
   17loPI    C3  259   5.478   7.797  11.084 -0.0149 -0.3063  0.1077
   17loPI   PO4  260   5.279   7.712  10.395  0.1735 -0.2102  0.2380
   17loPI   GL1  261   5.085   7.927   9.957  0.1136 -0.4006 -0.3169
   17loPI   GL2  262   5.070   8.112  10.165  0.1346  0.0667 -0.1250
   17loPI   C1A  263   4.987   7.824   9.636  0.0577  0.0410 -0.1707
   17loPI   C2A  264   5.045   7.962   9.239  0.0698 -0.0402 -0.0598
   17loPI   C3A  265   4.906   7.966   8.824  0.0560 -0.1601 -0.1269
   17loPI   C4A  266   4.951   7.851   8.275  0.1947 -0.0700 -0.1705
   17loPI   C5A  267   4.663   8.314   8.128 -0.0327  0.0066  0.0675
   17loPI   C6A  268   4.859   8.697   8.258 -0.4233  0.1259  0.0511
   17loPI   C1B  269   5.102   8.367   9.773  0.1766  0.0394 -0.1486
   17loPI   C2B  270   4.969   8.512   9.334  0.2481  0.0982  0.0292
   17loPI   C3B  271   5.051   8.491   8.952 -0.0509  0.1253 -0.1683
   17loPI   C4B  272   5.021   8.369   8.563  0.0635  0.2211  0.3198
   18loPI    C1  273  14.161   9.864  10.765 -0.0838  0.0988 -0.0458
   18loPI    C2  274  14.190   9.767  11.152  0.0073 -0.1972 -0.1241
   18loPI    C3  275  14.058  10.129  11.046  0.1938 -0.0342  0.1862
   18loPI   PO4  276  14.003   9.753  10.536 -0.2094  0.2063 -0.0452
   18loPI   GL1  277  14.128   9.801  10.121 -0.1849 -0.0208  0.2125
   18loPI   GL2  278  13.729   9.636  10.089 -0.0363  0.0107  0.0646
   18loPI   C1A  279  14.083   9.660   9.677  0.3219  0.1714  0.2462
   18loPI   C2A  280  14.089   9.492   9.145 -0.0056 -0.3667 -0.1867
   18loPI   C3A  281  14.056   9.522   8.802  0.1315 -0.0152  0.1019
   18loPI   C4A  282  14.087   9.679   8.372 -0.0332  0.2040  0.2139
   18loPI   C5A  283  14.047   9.954   8.002 -0.0559 -0.0578 -0.2361
   18loPI   C6A  284  14.330  10.213   7.682 -0.2686  0.2697 -0.0747
   18loPI   C1B  285  13.702  10.059   9.861 -0.1870  0.3439 -0.3377
   18loPI   C2B  286  13.674   9.883   9.410 -0.0809  0.1122 -0.0554
   18loPI   C3B  287  13.715   9.889   8.983  0.0279 -0.0059  0.0109
   18loPI   C4B  288  13.585   9.938   8.438  0.1096  0.1547  0.5937
   19loPI    C1  289   8.197  12.872  11.085 -0.1884  0.3699 -0.0669
   19loPI    C2  290   7.880  13.030  11.272 -0.3040  0.0758 -0.0087
   19loPI    C3  291   8.027  12.677  11.391 -0.0718  0.1198 -0.1591
   19loPI   PO4  292   8.125  12.828  10.868 -0.2401 -0.1593 -0.3783
   19loPI   GL1  293   7.981  13.046  10.430 -0.1908 -0.1072 -0.1805
   19loPI   GL2  294   8.339  13.105  10.514 -0.1906 -0.2432  0.2763
   19loPI   C1A  295   8.049  12.972   9.959 -0.0041 -0.0687 -0.0994
   19loPI   C2A  296   8.023  13.065   9.511  0.1183  0.2006  0.1572
   19loPI   C3A  297   7.959  13.028   9.058 -0.0757  0.0927 -0.0043
   19loPI   C4A  298   7.829  13.016   8.547  0.1930 -0.2023  0.0580
   19loPI   C5A  299   7.424  13.155   8.219 -0.0232  0.2528  0.1696
   19loPI   C6A  300   7.190  13.021   7.934 -0.1975  0.2078  0.0191
   19loPI   C1B  301   8.390  13.266  10.047 -0.0721 -0.1960  0.1586
   19loPI   C2B  302   8.461  13.312   9.697  0.0241 -0.0131  0.1261
   19loPI   C3B  303   8.468  13.319   9.230 -0.1209  0.0889 -0.0366
   19loPI   C4B  304   8.482  13.234   8.813  0.1592 -0.0163  0.2205
   20loPI    C1  305  10.311  15.337  11.008  0.2101  0.0597 -0.0229
   20loPI    C2  306  10.341  15.671  11.227  0.0708 -0.1144  0.2672
   20loPI    C3  307  10.189  15.338  11.389 -0.3529 -0.1568 -0.1930
   20loPI   PO4  308  10.291  15.355  10.767  0.1400 -0.1294  0.2928
   20loPI   GL1  309   9.955  15.523  10.515  0.3320 -0.1997 -0.0733
   20loPI   GL2  310  10.124  15.713  10.397  0.4103  0.2786 -0.1414
   20loPI   C1A  311   9.869  15.505   9.964  0.0756  0.2567 -0.2961
   20loPI   C2A  312   9.882  15.695   9.616 -0.1482  0.0581 -0.0520
   20loPI   C3A  313   9.919  15.624   9.263  0.0342 -0.0872  0.1732
   20loPI   C4A  314   9.937  15.620   8.840  0.2190  0.0774 -0.2841
   20loPI   C5A  315  10.192  15.610   8.444 -0.1056 -0.0019 -0.0759
   20loPI   C6A  316  10.157  15.395   8.038  0.1253  0.1239  0.2687
   20loPI   C1B  317  10.352  15.805  10.124 -0.2311  0.1163 -0.5091
   20loPI   C2B  318  10.446  15.847   9.725 -0.1308 -0.0092 -0.0565
   20loPI   C3B  319  10.353  15.856   9.318  0.0219  0.0261  0.0267
   20loPI   C4B  320  10.353  15.837   8.912  0.0319  0.2546  0.1009
   21loPI    C1  321  13.070   9.899  10.851 -0.0725  0.1143 -0.1576
   21loPI    C2  322  12.698   9.969  10.979 -0.0320 -0.1753  0.1307
   21loPI    C3  323  12.834   9.594  10.954  0.1839 -0.0827 -0.1417
   21loPI   PO4  324  13.051  10.074  10.567  0.0601 -0.3232 -0.1997
   21loPI   GL1  325  13.136  10.467  10.382  0.1648  0.1415 -0.0063
   21loPI   GL2  326  13.378  10.513  10.590  0.0690  0.0107 -0.0813
   21loPI   C1A  327  13.354  10.649  10.018  0.1205  0.0521  0.1919
   21loPI   C2A  328  13.375  10.668   9.496 -0.0100 -0.0942  0.1783
   21loPI   C3A  329  13.306  10.679   9.118  0.0558 -0.2626  0.1869
   21loPI   C4A  330  13.216  10.759   8.645 -0.0516  0.0223  0.1819
   21loPI   C5A  331  13.127  10.825   8.210 -0.0574  0.3010 -0.0560
   21loPI   C6A  332  13.490  10.691   8.001 -0.3100 -0.1596  0.0399
   21loPI   C1B  333  13.765  10.420  10.171 -0.0958  0.1428 -0.1559
   21loPI   C2B  334  13.830  10.479   9.643  0.2183 -0.2829  0.1890
   21loPI   C3B  335  13.739  10.395   9.184  0.2600  0.0814  0.3989
   21loPI   C4B  336  13.654  10.310   8.757 -0.0782 -0.0683 -0.0419
   22loPI    C1  337   1.866   6.246  10.084  0.0349  0.1098 -0.1323
   22loPI    C2  338   1.496   6.101  10.132  0.0240  0.1664 -0.0431
   22loPI    C3  339   1.803   5.936  10.328 -0.0032  0.3238  0.1346
   22loPI   PO4  340   1.866   6.275   9.896  0.0216  0.3077  0.3171
   22loPI   GL1  341   1.765   6.199   9.519 -0.0011  0.0304 -0.1706
   22loPI   GL2  342   1.926   6.084   9.386  0.1296  0.1787  0.1812
   22loPI   C1A  343   1.475   6.135   9.235  0.2132 -0.0807  0.0779
   22loPI   C2A  344   1.516   6.111   8.805 -0.0728  0.3160  0.0516
   22loPI   C3A  345   1.564   5.870   8.444  0.0591  0.0227  0.2123
   22loPI   C4A  346   1.555   5.902   8.020  0.1402 -0.1724 -0.0837
   22loPI   C5A  347   1.434   5.635   7.698  0.0274  0.1344 -0.0097
   22loPI   C6A  348   1.255   5.199   7.668  0.4304 -0.0039  0.1042
   22loPI   C1B  349   2.005   6.141   8.980 -0.0068 -0.2568 -0.0603
   22loPI   C2B  350   2.023   6.140   8.562  0.0032 -0.0999  0.0457
   22loPI   C3B  351   2.075   5.973   8.232  0.3107  0.0734  0.1439
   22loPI   C4B  352   2.136   6.075   7.879 -0.1102 -0.5646  0.2032
   23loPI    C1  353   4.348   6.873  10.197  0.0182  0.0932 -0.2897
   23loPI    C2  354   4.510   7.184  10.391  0.0160 -0.1157  0.0553
   23loPI    C3  355   4.739   6.874  10.283 -0.0080 -0.0585 -0.1642
   23loPI   PO4  356   4.225   7.022  10.008 -0.1366  0.3873  0.2037
   23loPI   GL1  357   4.191   7.098   9.715 -0.1394 -0.2181 -0.4388
   23loPI   GL2  358   3.952   6.915   9.553  0.2089  0.3393  0.1896
   23loPI   C1A  359   4.322   7.244   9.332 -0.0890  0.0461 -0.0823
   23loPI   C2A  360   4.322   7.230   8.890  0.0601  0.1692  0.1443
   23loPI   C3A  361   4.481   7.211   8.563  0.1048 -0.1047  0.0970
   23loPI   C4A  362   4.649   7.222   8.187  0.1308 -0.1993  0.0724
   23loPI   C5A  363   4.760   7.536   7.854  0.2189  0.0206 -0.5117
   23loPI   C6A  364   4.888   7.902   7.765 -0.0551  0.0999  0.0022
   23loPI   C1B  365   3.875   6.999   9.124 -0.2344  0.1350 -0.1513
   23loPI   C2B  366   3.844   6.904   8.723  0.2544 -0.4743 -0.1305
   23loPI   C3B  367   3.974   6.949   8.265 -0.0621  0.2036 -0.0688
   23loPI   C4B  368   4.189   6.713   7.864  0.1566  0.2604 -0.0345
   24loPI    C1  369  17.499  17.000  10.995 -0.3286 -0.1464  0.0807
   24loPI    C2  370  17.495  16.613  11.094 -0.0092 -0.1319  0.1626
   24loPI    C3  371  17.794  16.847  11.218 -0.2727  0.1745  0.2334
   24loPI   PO4  372  17.440  16.921  10.604  0.1078  0.2818  0.0965
   24loPI   GL1  373  17.770  16.825  10.265 -0.0305 -0.3255  0.1619
   24loPI   GL2  374  18.025  16.885  10.254  0.1171  0.2069 -0.0622
   24loPI   C1A  375  17.510  16.679   9.903 -0.2116  0.2223  0.1190
   24loPI   C2A  376  17.574  16.620   9.465 -0.0679 -0.2875  0.0110
   24loPI   C3A  377  17.564  16.495   9.082 -0.2818  0.1874  0.3892
   24loPI   C4A  378  17.593  16.468   8.662 -0.1459 -0.1022 -0.1363
   24loPI   C5A  379  17.568  16.521   8.215  0.3891 -0.0175 -0.1232
   24loPI   C6A  380  17.543  16.292   7.827  0.1464 -0.2128 -0.3935
   24loPI   C1B  381  18.021  16.919   9.841  0.2434 -0.1813  0.0945
   24loPI   C2B  382  17.999  16.902   9.427  0.3695  0.2385 -0.0296
   24loPI   C3B  383  18.021  16.798   8.974  0.0334 -0.0424 -0.1726
   24loPI   C4B  384  18.139  16.835   8.466 -0.0448  0.0102 -0.0751
   25loPI    C1  385   1.155  14.267  11.213 -0.0279 -0.0130 -0.1330
   25loPI    C2  386   1.212  14.540  11.499  0.0065 -0.3385  0.1777
   25loPI    C3  387   1.426  14.203  11.499 -0.2267 -0.4906 -0.0421
   25loPI   PO4  388   1.133  14.412  10.944  0.2420 -0.3898  0.0412
   25loPI   GL1  389   0.773  14.421  10.591  0.1502  0.1952 -0.0400
   25loPI   GL2  390   0.904  14.790  10.603  0.1226 -0.0287 -0.0137
   25loPI   C1A  391   0.858  14.513  10.166 -0.4343  0.0942 -0.0706
   25loPI   C2A  392   0.855  14.531   9.754  0.1680 -0.0426  0.1937
   25loPI   C3A  393   0.775  14.431   9.387 -0.2244 -0.2289  0.4901
   25loPI   C4A  394   0.744  14.412   8.894 -0.2452 -0.2634 -0.2264
   25loPI   C5A  395   0.432  14.735   8.560 -0.5023 -0.0781  0.4113
   25loPI   C6A  396   0.217  15.011   8.221 -0.0032 -0.0321  0.1847
   25loPI   C1B  397   0.483  14.750  10.420  0.0031 -0.0629 -0.1038
   25loPI   C2B  398   0.406  14.658   9.996  0.0931  0.0287  0.1245
   25loPI   C3B  399   0.336  14.716   9.448 -0.1747 -0.0084  0.0032
   25loPI   C4B  400   0.398  14.667   9.094 -0.2126  0.1026  0.1012
   26loPI    C1  401   7.823   1.587  10.996 -0.0364 -0.0484  0.1834
   26loPI    C2  402   7.866   1.985  10.983 -0.2167 -0.0341 -0.0263
   26loPI    C3  403   7.834   1.799  11.336  0.0702  0.1132  0.0807
   26loPI   PO4  404   7.611   1.577  10.741 -0.3656 -0.0170 -0.2074
   26loPI   GL1  405   7.786   1.534  10.338  0.1665 -0.1263 -0.1588
   26loPI   GL2  406   7.782   1.910  10.307  0.1026 -0.1630  0.0624
   26loPI   C1A  407   7.887   1.617   9.965 -0.2276  0.0064 -0.1774
   26loPI   C2A  408   7.831   1.866   9.565 -0.0071 -0.1862 -0.1845
   26loPI   C3A  409   7.852   1.776   9.146 -0.0036 -0.4935 -0.0126
   26loPI   C4A  410   7.872   1.671   8.648  0.0950 -0.1673 -0.1928
   26loPI   C5A  411   7.985   1.761   8.272 -0.0200 -0.2422  0.2335
   26loPI   C6A  412   7.730   2.031   7.999  0.2115  0.2492 -0.1026
   26loPI   C1B  413   7.890   2.303  10.001 -0.0898  0.0470 -0.0889
   26loPI   C2B  414   7.787   2.351   9.614  0.1628  0.1118  0.1459
   26loPI   C3B  415   7.835   2.296   9.150  0.1594 -0.0330  0.0989
   26loPI   C4B  416   7.949   2.233   8.753 -0.0663 -0.1630  0.1499
   27loPI    C1  417  15.341   5.452  10.445  0.2315  0.1819  0.1672
   27loPI    C2  418  15.121   5.641  10.722 -0.0454  0.0052  0.0720
   27loPI    C3  419  15.227   5.259  10.776  0.0396  0.0194  0.0091
   27loPI   PO4  420  15.277   5.566  10.263 -0.0652 -0.0116  0.0184
   27loPI   GL1  421  15.099   5.627   9.901  0.5307  0.0306 -0.0011
   27loPI   GL2  422  14.855   5.546   9.796  0.0896  0.1213  0.0537
   27loPI   C1A  423  15.352   5.647   9.530 -0.0647  0.1829  0.1143
   27loPI   C2A  424  15.212   5.624   9.155  0.0288  0.0457 -0.0330
   27loPI   C3A  425  15.203   5.625   8.715  0.0014  0.0154  0.0449
   27loPI   C4A  426  15.424   5.602   8.302 -0.1374  0.0276  0.1244
   27loPI   C5A  427  15.402   5.714   7.862  0.2303  0.0793 -0.1563
   27loPI   C6A  428  15.710   5.830   7.468 -0.2473  0.1148  0.3377
   27loPI   C1B  429  14.512   5.657   9.590  0.0757  0.0732 -0.0554
   27loPI   C2B  430  14.333   5.675   9.266  0.3137  0.3024  0.0874
   27loPI   C3B  431  14.328   5.631   8.898 -0.3630  0.1246  0.1611
   27loPI   C4B  432  14.391   5.569   8.430  0.0490 -0.0697  0.2189
   28loPI    C1  433  12.156  13.833  11.250 -0.1522 -0.0292  0.0521
   28loPI    C2  434  11.921  14.079  11.460 -0.0127  0.1740 -0.0272
   28loPI    C3  435  12.240  13.910  11.633 -0.1576 -0.0220  0.0518
   28loPI   PO4  436  12.320  13.978  11.015  0.0424 -0.2067 -0.1555
   28loPI   GL1  437  12.418  14.146  10.652 -0.2365 -0.0306  0.1398
   28loPI   GL2  438  12.511  14.301  10.470 -0.2375  0.0785 -0.5030
   28loPI   C1A  439  12.104  14.055  10.320 -0.1930  0.0698  0.1785
   28loPI   C2A  440  12.112  14.037   9.863 -0.2590 -0.1773  0.3877
   28loPI   C3A  441  12.107  14.155   9.403  0.4208  0.1818 -0.0908
   28loPI   C4A  442  12.080  14.138   8.970 -0.0518  0.1408 -0.0942
   28loPI   C5A  443  12.039  14.111   8.481 -0.0702  0.0426  0.4461
   28loPI   C6A  444  11.937  14.458   8.212  0.0518 -0.3079 -0.1888
   28loPI   C1B  445  12.495  14.274   9.989 -0.0415 -0.0754 -0.1029
   28loPI   C2B  446  12.499  14.419   9.635  0.4638  0.0114  0.0042
   28loPI   C3B  447  12.561  14.357   9.188  0.5017  0.5462 -0.0782
   28loPI   C4B  448  12.559  14.344   8.750  0.1004 -0.1115 -0.3224
   29loPI    C1  449   1.568   2.572  10.128 -0.2259 -0.0907 -0.0829
   29loPI    C2  450   1.680   2.886  10.350  0.0342 -0.0523 -0.2638
   29loPI    C3  451   1.380   2.651  10.473 -0.0208  0.1403 -0.0210
   29loPI   PO4  452   1.556   2.727   9.884 -0.0293 -0.3201  0.0050
   29loPI   GL1  453   1.541   2.658   9.499 -0.0024  0.0809 -0.2417
   29loPI   GL2  454   1.717   2.850   9.317  0.1329 -0.0070 -0.2904
   29loPI   C1A  455   1.374   2.588   9.115 -0.2131 -0.1916 -0.0581
   29loPI   C2A  456   1.444   2.561   8.671  0.0825 -0.3737 -0.1247
   29loPI   C3A  457   1.413   2.441   8.240  0.0039 -0.0993  0.0244
   29loPI   C4A  458   1.516   2.200   7.790 -0.1341 -0.2685 -0.0458
   29loPI   C5A  459   1.508   2.085   7.296  0.1334  0.0971  0.0455
   29loPI   C6A  460   1.469   2.067   6.973 -0.1369  0.0822  0.3767
   29loPI   C1B  461   1.896   2.934   8.890  0.0773  0.2824 -0.1226
   29loPI   C2B  462   1.968   2.881   8.377 -0.1228  0.0702 -0.2319
   29loPI   C3B  463   1.852   2.725   8.122  0.0638  0.0508  0.0304
   29loPI   C4B  464   1.868   2.562   7.789 -0.0728 -0.4187 -0.1624
   30loPI    C1  465   1.696  14.589  11.314  0.0259  0.2511 -0.0146
   30loPI    C2  466   2.021  14.429  11.483  0.0026  0.1293 -0.0839
   30loPI    C3  467   1.744  14.607  11.711  0.0761  0.1581 -0.0165
   30loPI   PO4  468   1.655  14.487  11.151 -0.1340 -0.3034 -0.1865
   30loPI   GL1  469   1.604  14.496  10.776 -0.0602 -0.0071  0.0083
   30loPI   GL2  470   1.777  14.616  10.642 -0.1235  0.0307 -0.1247
   30loPI   C1A  471   1.292  14.618  10.399 -0.0386 -0.0581  0.1503
   30loPI   C2A  472   1.266  14.753   9.989 -0.1055  0.1672  0.3151
   30loPI   C3A  473   1.326  14.756   9.533  0.0568 -0.2180  0.0833
   30loPI   C4A  474   1.287  14.660   9.090 -0.3075 -0.2368 -0.1810
   30loPI   C5A  475   1.467  14.631   8.583  0.0496 -0.1489  0.1358
   30loPI   C6A  476   1.357  14.669   8.167  0.5184 -0.2496  0.0746
   30loPI   C1B  477   1.748  14.458  10.197  0.1331  0.2661  0.1684
   30loPI   C2B  478   1.792  14.431   9.791 -0.0944  0.0955 -0.4867
   30loPI   C3B  479   1.701  14.387   9.456 -0.2847  0.0743  0.1201
   30loPI   C4B  480   1.659  14.386   8.970  0.1427  0.2111 -0.1888
   31loPI    C1  481   0.833   8.833  10.412  0.0593 -0.1040 -0.0447
   31loPI    C2  482   1.126   9.052  10.575 -0.0148  0.0339 -0.0950
   31loPI    C3  483   0.837   8.901  10.806 -0.1348  0.2523 -0.1001
   31loPI   PO4  484   0.750   8.921  10.218  0.3005 -0.0862  0.0586
   31loPI   GL1  485   0.726   9.000   9.872 -0.2663  0.0886  0.1912
   31loPI   GL2  486   0.774   9.384   9.983  0.2250  0.1642  0.0631
   31loPI   C1A  487   0.393   8.942   9.593  0.2085 -0.0825 -0.4211
   31loPI   C2A  488   0.300   8.892   9.158 -0.5310 -0.0254 -0.1483
   31loPI   C3A  489   0.287   8.919   8.761  0.0351 -0.0159 -0.6354
   31loPI   C4A  490   0.272   8.900   8.358 -0.0990 -0.1385 -0.2424
   31loPI   C5A  491   0.381   9.220   8.051 -0.0214  0.1880  0.3304
   31loPI   C6A  492   0.651   9.520   7.972  0.2406  0.1048  0.3166
   31loPI   C1B  493   0.706   9.368   9.503 -0.0141 -0.1467  0.0682
   31loPI   C2B  494   0.753   9.214   9.138 -0.1060  0.0132 -0.0762
   31loPI   C3B  495   0.683   9.217   8.753  0.1694 -0.0876 -0.2907
   31loPI   C4B  496   0.778   9.138   8.358  0.0318  0.1127 -0.2341
   32loPI    C1  497   1.446  16.130  11.073  0.0817 -0.0563 -0.0757
   32loPI    C2  498   1.803  16.247  11.209  0.0085  0.0598  0.0185
   32loPI    C3  499   1.469  16.376  11.387 -0.0789 -0.1188 -0.0140
   32loPI   PO4  500   1.458  16.121  10.790  0.1018  0.2930  0.2931
   32loPI   GL1  501   1.276  16.006  10.375  0.2595  0.1773 -0.2858
   32loPI   GL2  502   1.426  15.773  10.258  0.1765  0.0877 -0.0549
   32loPI   C1A  503   1.322  16.214  10.013  0.0586 -0.1545  0.0188
   32loPI   C2A  504   1.432  16.202   9.654  0.1850 -0.3167  0.3788
   32loPI   C3A  505   1.442  16.306   9.392  0.0994  0.0558  0.1990
   32loPI   C4A  506   1.498  16.308   8.976 -0.1617 -0.1986 -0.0617
   32loPI   C5A  507   1.508  16.180   8.503  0.2127  0.1525  0.3605
   32loPI   C6A  508   1.455  15.927   8.102 -0.2328  0.1781  0.4454
   32loPI   C1B  509   1.292  15.722   9.733 -0.1087  0.0536 -0.1026
   32loPI   C2B  510   1.445  15.774   9.286 -0.1579  0.0604  0.1171
   32loPI   C3B  511   1.402  15.741   8.852 -0.0665  0.0612  0.0906
   32loPI   C4B  512   1.344  15.607   8.445  0.0256  0.0637 -0.0546
   33loPI    C1  513  11.717   2.204  10.640 -0.1187 -0.3444  0.1055
   33loPI    C2  514  12.062   2.088  10.806  0.0346  0.0468  0.0709
   33loPI    C3  515  11.819   2.337  11.003 -0.2497 -0.2546  0.1102
   33loPI   PO4  516  11.767   2.282  10.417 -0.0794 -0.3533 -0.0095
   33loPI   GL1  517  11.956   2.207  10.007  0.3538  0.1623 -0.0242
   33loPI   GL2  518  11.963   1.889  10.267  0.1004  0.0851  0.3766
   33loPI   C1A  519  11.871   2.232   9.512 -0.1295  0.0822  0.2849
   33loPI   C2A  520  11.974   2.352   9.095  0.0330 -0.0338  0.0677
   33loPI   C3A  521  11.906   2.409   8.745 -0.1760  0.2082 -0.3719
   33loPI   C4A  522  12.037   2.383   8.343 -0.0741 -0.1546  0.3919
   33loPI   C5A  523  12.282   2.279   7.973 -0.1676 -0.1565  0.0942
   33loPI   C6A  524  12.500   2.097   7.613  0.0829 -0.1220 -0.0423
   33loPI   C1B  525  11.965   1.761   9.932 -0.1971 -0.0288 -0.2451
   33loPI   C2B  526  11.902   1.768   9.481  0.2079  0.0771 -0.1638
   33loPI   C3B  527  11.932   1.833   9.092  0.1068 -0.0025 -0.0937
   33loPI   C4B  528  11.946   1.938   8.587  0.0025  0.2381 -0.0240
   34loPI    C1  529  12.153  15.599  11.022 -0.4546  0.2362  0.1011
   34loPI    C2  530  12.333  15.945  11.107 -0.2927  0.1617  0.0641
   34loPI    C3  531  12.245  15.689  11.401  0.0501  0.0104  0.0403
   34loPI   PO4  532  12.307  15.578  10.764  0.0994 -0.2801  0.1618
   34loPI   GL1  533  12.173  15.456  10.342 -0.2495 -0.0439  0.2312
   34loPI   GL2  534  11.890  15.298  10.408 -0.1869  0.3240  0.2008
   34loPI   C1A  535  12.137  15.691   9.937  0.1750 -0.0464  0.0410
   34loPI   C2A  536  12.190  15.704   9.688  0.0128 -0.0410 -0.2140
   34loPI   C3A  537  12.112  15.723   9.246  0.0437  0.2466 -0.1020
   34loPI   C4A  538  12.193  15.788   8.747  0.0407  0.2114 -0.0414
   34loPI   C5A  539  12.299  15.925   8.363 -0.0213  0.1602 -0.1298
   34loPI   C6A  540  12.346  16.173   8.109  0.2881  0.2086  0.0254
   34loPI   C1B  541  11.746  15.392   9.952 -0.3075  0.0265 -0.0651
   34loPI   C2B  542  11.782  15.468   9.582  0.0194 -0.1281  0.2733
   34loPI   C3B  543  11.638  15.489   9.154 -0.0098  0.0546 -0.0950
   34loPI   C4B  544  11.768  15.502   8.659 -0.2830 -0.2320 -0.3321
   35loPI    C1  545   6.885   9.676  10.859 -0.1726 -0.1158 -0.3930
   35loPI    C2  546   6.549   9.564  11.045  0.0479  0.0223  0.1057
   35loPI    C3  547   6.897   9.389  11.138  0.1617  0.0826 -0.1961
   35loPI   PO4  548   6.763   9.675  10.586  0.1614  0.0184 -0.0609
   35loPI   GL1  549   6.825   9.452  10.259 -0.1486  0.0443  0.0764
   35loPI   GL2  550   6.827   9.179  10.143 -0.2289  0.0876  0.3117
   35loPI   C1A  551   7.033   9.542   9.841  0.1651 -0.1481  0.0081
   35loPI   C2A  552   6.858   9.457   9.423  0.2154 -0.3547 -0.2474
   35loPI   C3A  553   6.882   9.374   8.967  0.1144  0.2840 -0.2353
   35loPI   C4A  554   6.846   9.429   8.604  0.1544 -0.0364  0.0219
   35loPI   C5A  555   7.059   9.689   8.281 -0.2627 -0.0294 -0.5657
   35loPI   C6A  556   7.170  10.094   7.981 -0.1935 -0.1348 -0.1460
   35loPI   C1B  557   6.888   8.917   9.813  0.1075  0.2524  0.1982
   35loPI   C2B  558   6.759   8.844   9.408  0.0050  0.1289 -0.0719
   35loPI   C3B  559   6.901   8.861   8.970 -0.1921 -0.0115  0.0207
   35loPI   C4B  560   6.896   8.940   8.613  0.0927 -0.4091 -0.0640
   36loPI    C1  561  15.364   7.446  10.373 -0.1330  0.1907 -0.0675
   36loPI    C2  562  15.759   7.390  10.342 -0.1419  0.1597 -0.1273
   36loPI    C3  563  15.615   7.663  10.596 -0.0846  0.1291 -0.0614
   36loPI   PO4  564  15.264   7.476  10.104  0.1935 -0.1937  0.0983
   36loPI   GL1  565  15.073   7.607   9.804 -0.1855  0.1303 -0.1842
   36loPI   GL2  566  15.217   7.932   9.741 -0.1580 -0.1706 -0.1820
   36loPI   C1A  567  14.974   7.453   9.402 -0.5049  0.1956  0.1674
   36loPI   C2A  568  14.944   7.388   8.960  0.2512 -0.0778 -0.2413
   36loPI   C3A  569  14.962   7.392   8.491 -0.0014  0.1767 -0.5765
   36loPI   C4A  570  14.894   7.530   8.093  0.1773  0.0368  0.0043
   36loPI   C5A  571  14.666   7.467   7.741  0.0484 -0.1222 -0.1092
   36loPI   C6A  572  14.175   7.277   7.663  0.0231 -0.0577 -0.0883
   36loPI   C1B  573  15.026   8.006   9.296 -0.0395 -0.1356  0.2212
   36loPI   C2B  574  14.989   7.906   8.815  0.2147 -0.2377  0.0272
   36loPI   C3B  575  14.998   7.901   8.383  0.0564 -0.1100 -0.2841
   36loPI   C4B  576  14.913   8.024   7.963  0.1131 -0.0942  0.1990
   37loPI    C1  577   9.000   3.421  10.911  0.1266 -0.0631  0.0708
   37loPI    C2  578   8.761   3.131  11.047 -0.1505  0.1176 -0.0215
   37loPI    C3  579   8.802   3.470  11.256  0.4422 -0.1156  0.2632
   37loPI   PO4  580   9.041   3.283  10.683 -0.1879  0.1954 -0.0603
   37loPI   GL1  581   9.209   3.180  10.301 -0.2505 -0.0776  0.1714
   37loPI   GL2  582   9.267   3.405  10.196  0.0894  0.1763 -0.1167
   37loPI   C1A  583   9.150   3.053   9.874  0.2912 -0.0701 -0.1388
   37loPI   C2A  584   9.284   2.958   9.458 -0.0688  0.2173  0.1431
   37loPI   C3A  585   9.197   2.986   9.007 -0.0182 -0.0178  0.0553
   37loPI   C4A  586   9.335   3.016   8.545  0.0267  0.1749 -0.0326
   37loPI   C5A  587   9.205   3.195   8.046 -0.1770  0.0643 -0.1715
   37loPI   C6A  588   9.306   3.496   7.653  0.2753 -0.0024  0.2895
   37loPI   C1B  589   9.270   3.586   9.705 -0.0675 -0.0919 -0.0350
   37loPI   C2B  590   9.165   3.447   9.215 -0.0126 -0.0382  0.0151
   37loPI   C3B  591   9.323   3.452   8.760  0.0605  0.3029  0.1243
   37loPI   C4B  592   9.227   3.527   8.441 -0.1130 -0.1342 -0.1815
   38loPI    C1  593   0.219   5.612  10.059 -0.0759 -0.0113  0.1128
   38loPI    C2  594   0.135   5.234  10.156 -0.0598  0.0453  0.3524
   38loPI    C3  595   0.369   5.454  10.394  0.1534  0.1230  0.0756
   38loPI   PO4  596  -0.004   5.588   9.824  0.1790  0.0143  0.2686
   38loPI   GL1  597   0.096   5.485   9.402 -0.2459  0.4224  0.0198
   38loPI   GL2  598   0.117   5.730   9.342 -0.3377  0.2822 -0.1778
   38loPI   C1A  599   0.053   5.164   9.089 -0.1186 -0.0578  0.1904
   38loPI   C2A  600   0.072   5.226   8.639 -0.2918  0.3803  0.0506
   38loPI   C3A  601   0.046   5.120   8.116 -0.0386 -0.0528  0.2821
   38loPI   C4A  602   0.047   5.117   7.642  0.0430 -0.3391 -0.1179
   38loPI   C5A  603  -0.085   5.358   7.334  0.1039  0.3424 -0.1374
   38loPI   C6A  604   0.094   5.584   7.047  0.0078 -0.1015  0.0333
   38loPI   C1B  605   0.197   5.625   8.927 -0.2562 -0.3710  0.1588
   38loPI   C2B  606   0.045   5.736   8.632 -0.0895  0.0675  0.2305
   38loPI   C3B  607   0.144   5.590   8.265 -0.1945 -0.1371 -0.1595
   38loPI   C4B  608   0.057   5.796   7.901  0.2366  0.0710 -0.4407
   39loPI    C1  609   6.386  15.861  11.331 -0.3378  0.4557 -0.3302
   39loPI    C2  610   6.023  15.952  11.473 -0.1714  0.2114  0.2861
   39loPI    C3  611   6.345  16.151  11.603 -0.0499  0.2428 -0.0514
   39loPI   PO4  612   6.353  15.899  11.028  0.1243 -0.3321  0.3987
   39loPI   GL1  613   6.386  16.017  10.587 -0.3171  0.1315  0.2287
   39loPI   GL2  614   6.212  15.945  10.388 -0.1461  0.1550  0.1146
   39loPI   C1A  615   6.585  15.678  10.313  0.2592 -0.2991  0.0037
   39loPI   C2A  616   6.762  15.454   9.936 -0.0752  0.0438 -0.2536
   39loPI   C3A  617   6.785  15.423   9.474  0.0898  0.0023 -0.0247
   39loPI   C4A  618   6.796  15.466   9.026 -0.1716  0.0286  0.0319
   39loPI   C5A  619   6.715  15.486   8.628 -0.1281 -0.0269  0.0026
   39loPI   C6A  620   6.680  15.608   8.225 -0.3075  0.1081  0.0340
   39loPI   C1B  621   6.193  15.746   9.999 -0.0638  0.4398 -0.3354
   39loPI   C2B  622   6.323  15.712   9.671 -0.1362 -0.1585  0.2039
   39loPI   C3B  623   6.459  15.683   9.222 -0.0251 -0.0978  0.1586
   39loPI   C4B  624   6.298  15.817   8.785  0.1139  0.3364  0.3539
   40loPI    C1  625  10.776   9.966  10.773  0.1988 -0.3194  0.1085
   40loPI    C2  626  11.092  10.197  10.686  0.0602 -0.1107  0.1513
   40loPI    C3  627  10.948  10.186  11.059 -0.2364  0.1176  0.0481
   40loPI   PO4  628  10.792   9.864  10.419 -0.0241 -0.1522 -0.3052
   40loPI   GL1  629  11.055  10.044  10.096 -0.3138 -0.0193  0.0455
   40loPI   GL2  630  11.151  10.363  10.191  0.2776 -0.0317  0.1270
   40loPI   C1A  631  11.051   9.995   9.585  0.1182  0.0852 -0.3553
   40loPI   C2A  632  11.083   9.943   9.121 -0.0915  0.3225  0.4890
   40loPI   C3A  633  10.979  10.133   8.683 -0.1682  0.0385 -0.0436
   40loPI   C4A  634  11.021  10.076   8.221  0.3028  0.2617  0.1523
   40loPI   C5A  635  11.086  10.344   8.002  0.0222 -0.0203 -0.0203
   40loPI   C6A  636  11.118  10.531   7.563 -0.0047 -0.0471 -0.0830
   40loPI   C1B  637  10.900  10.431   9.842  0.0598 -0.1817  0.0330
   40loPI   C2B  638  10.896  10.505   9.404 -0.3666  0.0272  0.0455
   40loPI   C3B  639  11.021  10.485   9.005 -0.3516  0.2452  0.0992
   40loPI   C4B  640  10.963  10.594   8.507 -0.1360 -0.2783  0.2475
   41loPI    C1  641  17.452  17.604  11.181  0.0708 -0.0484  0.0656
   41loPI    C2  642  17.281  17.272  11.325  0.0785 -0.1281 -0.1055
   41loPI    C3  643  17.248  17.617  11.524 -0.0520 -0.2008  0.0000
   41loPI   PO4  644  17.512  17.511  10.957 -0.1124 -0.0332 -0.3303
   41loPI   GL1  645  17.427  17.373  10.460 -0.3509  0.0191 -0.0163
   41loPI   GL2  646  17.209  17.476  10.367 -0.1163  0.1329 -0.2657
   41loPI   C1A  647  17.540  17.225  10.030 -0.0728 -0.0910 -0.0452
   41loPI   C2A  648  17.489  17.079   9.579 -0.1225 -0.2813 -0.2035
   41loPI   C3A  649  17.614  17.115   9.203  0.0147 -0.3026 -0.4520
   41loPI   C4A  650  17.596  16.986   8.804  0.0254  0.0670  0.0549
   41loPI   C5A  651  17.637  17.014   8.443  0.2439 -0.1354  0.2997
   41loPI   C6A  652  17.870  17.197   8.222  0.1221  0.1227  0.0148
   41loPI   C1B  653  17.133  17.432   9.842 -0.1401 -0.1181 -0.0602
   41loPI   C2B  654  17.216  17.399   9.341  0.0203  0.2475 -0.0083
   41loPI   C3B  655  17.248  17.291   8.909 -0.0951 -0.1177 -0.2178
   41loPI   C4B  656  17.077  17.348   8.505  0.0674 -0.0508 -0.2221
   42loPI    C1  657   6.697   0.534  10.599 -0.1237 -0.1162 -0.1297
   42loPI    C2  658   6.322   0.597  10.725 -0.0587  0.0124  0.0025
   42loPI    C3  659   6.629   0.767  10.917  0.0577  0.0345 -0.1996
   42loPI   PO4  660   6.639   0.455  10.355 -0.0424 -0.2187 -0.0771
   42loPI   GL1  661   6.670   0.660  10.083 -0.1648  0.1214 -0.0453
   42loPI   GL2  662   6.521   0.958   9.972 -0.0775 -0.0029 -0.1711
   42loPI   C1A  663   6.456   0.512   9.730  0.2966 -0.2585 -0.0579
   42loPI   C2A  664   6.517   0.437   9.329 -0.0176 -0.0439  0.0744
   42loPI   C3A  665   6.544   0.395   8.944 -0.0725 -0.1310 -0.4056
   42loPI   C4A  666   6.431   0.385   8.549  0.0408 -0.2043 -0.3963
   42loPI   C5A  667   6.477   0.382   8.132 -0.0219 -0.0401  0.1299
   42loPI   C6A  668   6.257   0.222   7.826  0.4490 -0.0651 -0.1158
   42loPI   C1B  669   6.509   1.040   9.572  0.1141  0.0430 -0.1801
   42loPI   C2B  670   6.562   0.863   9.104 -0.0181 -0.0128  0.1167
   42loPI   C3B  671   6.594   0.896   8.598 -0.1043  0.2210 -0.3950
   42loPI   C4B  672   6.624   0.982   8.201  0.0441  0.1318 -0.3823
   43loPI    C1  673   8.407   1.776  10.865  0.2582 -0.3864 -0.0739
   43loPI    C2  674   8.299   1.463  11.090  0.0834 -0.1041  0.2435
   43loPI    C3  675   8.357   1.821  11.259 -0.2134  0.1543 -0.1833
   43loPI   PO4  676   8.158   1.796  10.645 -0.1572  0.2929 -0.2473
   43loPI   GL1  677   8.292   1.778  10.256 -0.3592  0.1000 -0.2233
   43loPI   GL2  678   8.655   1.739  10.268 -0.0377 -0.0330  0.3122
   43loPI   C1A  679   8.304   2.080  10.042 -0.0058 -0.1303 -0.2681
   43loPI   C2A  680   8.314   2.107   9.617 -0.3082 -0.2347 -0.1494
   43loPI   C3A  681   8.308   1.997   9.207  0.0878  0.1565 -0.1404
   43loPI   C4A  682   8.377   2.014   8.718  0.0656  0.0164  0.0388
   43loPI   C5A  683   8.441   1.862   8.313 -0.0489  0.0458  0.0374
   43loPI   C6A  684   8.289   2.065   7.891  0.0322  0.0950 -0.2162
   43loPI   C1B  685   8.693   1.737   9.805 -0.1666  0.0073  0.0555
   43loPI   C2B  686   8.765   1.769   9.340  0.1161  0.3574  0.1482
   43loPI   C3B  687   8.841   1.756   8.828  0.1314 -0.0429 -0.1575
   43loPI   C4B  688   8.832   1.515   8.435  0.0693  0.0522  0.2018
   44loPI    C1  689   1.245  17.611  11.011 -0.0999 -0.1563 -0.0080
   44loPI    C2  690   1.078  17.770  11.338 -0.0574  0.1129 -0.1146
   44loPI    C3  691   1.153  17.377  11.322 -0.3345  0.0492  0.0805
   44loPI   PO4  692   1.146  17.801  10.804  0.3041  0.0845  0.1207
   44loPI   GL1  693   0.870  17.832  10.514 -0.4722  0.2366  0.1862
   44loPI   GL2  694   1.033  17.587  10.392 -0.0155  0.1348  0.1672
   44loPI   C1A  695   0.682  17.850  10.149  0.0272 -0.3311 -0.0276
   44loPI   C2A  696   0.474  17.852   9.730  0.1295 -0.0044 -0.0306
   44loPI   C3A  697   0.457  17.834   9.273 -0.0091  0.0281  0.2474
   44loPI   C4A  698   0.558  17.847   8.896  0.0015 -0.0667  0.0020
   44loPI   C5A  699   0.514  17.759   8.501  0.2986 -0.0290  0.1272
   44loPI   C6A  700   0.428  17.334   8.258  0.2723 -0.1886 -0.0686
   44loPI   C1B  701   0.994  17.544   9.940 -0.4950  0.0044  0.2125
   44loPI   C2B  702   0.808  17.543   9.545 -0.0675 -0.0834  0.3600
   44loPI   C3B  703   1.041  17.526   9.079 -0.0005  0.2615  0.1969
   44loPI   C4B  704   0.980  17.593   8.657  0.0301 -0.1265  0.1482
   45loPI    C1  705  16.491  12.263  11.235  0.0526  0.0336  0.1117
   45loPI    C2  706  16.524  11.933  11.459 -0.0042 -0.0514 -0.0043
   45loPI    C3  707  16.265  12.221  11.562  0.2896  0.1141  0.2887
   45loPI   PO4  708  16.444  12.127  10.999 -0.0578 -0.0414 -0.0851
   45loPI   GL1  709  16.336  12.217  10.493  0.2231 -0.3082  0.0924
   45loPI   GL2  710  16.078  12.304  10.278 -0.1275 -0.1245 -0.2908
   45loPI   C1A  711  16.476  12.280  10.041 -0.1389 -0.2112  0.0667
   45loPI   C2A  712  16.479  12.466   9.623 -0.1233 -0.0188  0.3541
   45loPI   C3A  713  16.531  12.411   9.166  0.2816  0.1473  0.0877
   45loPI   C4A  714  16.571  12.373   8.771  0.1806  0.2170  0.0127
   45loPI   C5A  715  16.515  12.370   8.292 -0.1555 -0.0465 -0.2720
   45loPI   C6A  716  16.182  12.218   8.018  0.0857 -0.2011  0.2920
   45loPI   C1B  717  16.031  12.204   9.822  0.0125  0.1054  0.1117
   45loPI   C2B  718  16.071  12.199   9.370  0.0118  0.1711 -0.4552
   45loPI   C3B  719  16.135  12.168   8.986 -0.0943 -0.0251  0.1549
   45loPI   C4B  720  16.064  12.120   8.505  0.2501  0.0565 -0.2701
   46loPI    C1  721   5.302  13.076  11.134  0.3784  0.3070  0.1154
   46loPI    C2  722   5.148  13.249  11.461  0.0062  0.2707 -0.0359
   46loPI    C3  723   5.104  12.855  11.402 -0.0832  0.3065 -0.2150
   46loPI   PO4  724   5.202  13.197  10.865 -0.0485  0.2137  0.1962
   46loPI   GL1  725   4.949  13.412  10.548  0.1554 -0.0401 -0.1638
   46loPI   GL2  726   5.059  13.757  10.456  0.0396 -0.1610 -0.2581
   46loPI   C1A  727   4.850  13.424  10.201  0.2512 -0.0981  0.0588
   46loPI   C2A  728   4.847  13.373   9.831  0.0413  0.0085 -0.1884
   46loPI   C3A  729   4.907  13.463   9.428 -0.2567  0.2104  0.1764
   46loPI   C4A  730   4.826  13.496   9.084  0.1834  0.1538 -0.0240
   46loPI   C5A  731   4.806  13.440   8.633 -0.1038  0.1307 -0.0170
   46loPI   C6A  732   4.732  13.689   8.308 -0.0543  0.3046 -0.0291
   46loPI   C1B  733   4.878  14.012  10.196 -0.1773  0.4660 -0.2670
   46loPI   C2B  734   4.966  14.003   9.738  0.2272  0.1543  0.1423
   46loPI   C3B  735   4.828  14.002   9.294 -0.0263  0.3394  0.1049
   46loPI   C4B  736   4.818  14.071   8.847 -0.0139 -0.2858  0.1031
   47loPI    C1  737   7.163  10.069  11.074  0.0980  0.1387 -0.1301
   47loPI    C2  738   7.055  10.454  11.071 -0.1087  0.0823 -0.0837
   47loPI    C3  739   7.059  10.251  11.415 -0.1317  0.0067 -0.1278
   47loPI   PO4  740   7.338  10.053  10.861  0.0173  0.0781  0.0421
   47loPI   GL1  741   7.484  10.025  10.486  0.0483  0.1582  0.3703
   47loPI   GL2  742   7.173   9.895  10.429 -0.2486  0.0976 -0.1174
   47loPI   C1A  743   7.481  10.114  10.042  0.2565  0.2343  0.0804
   47loPI   C2A  744   7.425  10.065   9.635  0.2934 -0.2177  0.0057
   47loPI   C3A  745   7.461  10.200   9.203 -0.1723  0.1136 -0.0467
   47loPI   C4A  746   7.366  10.063   8.886 -0.1176 -0.4733 -0.1623
   47loPI   C5A  747   7.253  10.074   8.603  0.4428 -0.0771 -0.2365
   47loPI   C6A  748   6.907  10.151   8.404  0.0121  0.0018 -0.0769
   47loPI   C1B  749   7.011   9.999   9.978 -0.0405  0.1737  0.0664
   47loPI   C2B  750   6.918   9.968   9.521  0.3429  0.2974 -0.1574
   47loPI   C3B  751   6.987   9.894   9.187  0.0462 -0.0489  0.3529
   47loPI   C4B  752   6.779   9.939   8.812  0.0517  0.0339 -0.1961
   48loPI    C1  753  15.392   3.587  10.380 -0.0082 -0.0188  0.3098
   48loPI    C2  754  15.110   3.803  10.564  0.1927  0.2575  0.3000
   48loPI    C3  755  15.468   3.753  10.736  0.2532  0.1965  0.1577
   48loPI   PO4  756  15.375   3.647  10.101 -0.0487 -0.0348 -0.2812
   48loPI   GL1  757  15.201   3.924   9.664  0.1815  0.0195  0.1186
   48loPI   GL2  758  14.864   3.950   9.745 -0.3224 -0.0360  0.0751
   48loPI   C1A  759  15.163   3.990   9.222  0.0440 -0.2996 -0.2534
   48loPI   C2A  760  15.151   3.978   8.894  0.2462 -0.0234  0.2931
   48loPI   C3A  761  15.313   3.951   8.485  0.1691 -0.1203 -0.1166
   48loPI   C4A  762  15.219   3.907   8.123  0.0216  0.0354 -0.0851
   48loPI   C5A  763  15.217   3.795   7.627 -0.3573 -0.4119  0.0051
   48loPI   C6A  764  15.028   3.772   7.194  0.0336  0.1908  0.1722
   48loPI   C1B  765  14.759   3.755   9.351 -0.0135 -0.1789  0.0109
   48loPI   C2B  766  14.775   3.681   8.917  0.1980  0.1215 -0.0195
   48loPI   C3B  767  14.709   3.770   8.476 -0.1707 -0.0548  0.4847
   48loPI   C4B  768  14.824   3.604   8.085 -0.1754 -0.1902  0.4740
   49loPI    C1  769   9.350  10.257  10.738 -0.2951  0.2389  0.1626
   49loPI    C2  770   9.240  10.318  11.118 -0.0991 -0.2438  0.3047
   49loPI    C3  771   9.607  10.182  11.035  0.0244  0.2947 -0.0933
   49loPI   PO4  772   9.173  10.124  10.659  0.2274 -0.5758 -0.2258
   49loPI   GL1  773   9.087   9.962  10.276  0.2583  0.1602 -0.1996
   49loPI   GL2  774   9.466  10.132  10.191 -0.1119  0.0058  0.1348
   49loPI   C1A  775   9.147   9.960   9.806 -0.5220  0.1074  0.3219
   49loPI   C2A  776   9.184  10.025   9.320  0.0498  0.1811  0.0952
   49loPI   C3A  777   9.272  10.181   8.878 -0.1053 -0.3376  0.2051
   49loPI   C4A  778   9.260  10.127   8.452  0.2226 -0.0414 -0.3526
   49loPI   C5A  779   9.132  10.174   8.082  0.2966  0.3344 -0.1302
   49loPI   C6A  780   8.926  10.167   7.743 -0.1817 -0.2092 -0.3044
   49loPI   C1B  781   9.657  10.228   9.764  0.2982 -0.0556 -0.1276
   49loPI   C2B  782   9.667  10.219   9.369 -0.0969 -0.0541  0.1815
   49loPI   C3B  783   9.697  10.357   8.995 -0.0235 -0.2664 -0.2214
   49loPI   C4B  784   9.698  10.331   8.553 -0.2391  0.3933 -0.0679
   50loPI    C1  785  15.339  16.974  10.480  0.1219  0.0333 -0.1377
   50loPI    C2  786  15.382  16.668  10.735  0.1920  0.1240 -0.0396
   50loPI    C3  787  15.289  17.032  10.873  0.0087  0.1262 -0.1653
   50loPI   PO4  788  15.329  16.841  10.260  0.0833  0.0131  0.1474
   50loPI   GL1  789  15.386  16.838   9.800 -0.2688 -0.3469 -0.4297
   50loPI   GL2  790  15.659  16.608   9.899  0.0972 -0.0421 -0.1643
   50loPI   C1A  791  15.378  16.836   9.354  0.0293  0.2123 -0.0152
   50loPI   C2A  792  15.255  16.880   8.915 -0.2547  0.1552  0.2329
   50loPI   C3A  793  15.374  16.873   8.499  0.0212  0.0445 -0.1340
   50loPI   C4A  794  15.376  16.916   8.112  0.0744  0.2281 -0.0498
   50loPI   C5A  795  15.599  17.200   7.761  0.0750 -0.1636 -0.3707
   50loPI   C6A  796  15.603  17.524   7.376 -0.1866 -0.2612  0.2702
   50loPI   C1B  797  15.774  16.526   9.539  0.1067  0.1032  0.0888
   50loPI   C2B  798  15.779  16.583   9.071 -0.1700 -0.2819 -0.1605
   50loPI   C3B  799  15.763  16.574   8.595  0.0297  0.0495  0.1481
   50loPI   C4B  800  15.793  16.556   8.216 -0.0937 -0.0348 -0.2441
   51loPI    C1  801  16.994  14.729  10.819 -0.0273 -0.0037  0.2350
   51loPI    C2  802  16.721  14.842  10.549 -0.1441 -0.0882  0.3165
   51loPI    C3  803  16.703  14.982  10.923 -0.1215 -0.1550  0.3428
   51loPI   PO4  804  17.278  14.657  10.607 -0.2705 -0.1654 -0.1647
   51loPI   GL1  805  17.296  14.376  10.284  0.1283  0.0467  0.1460
   51loPI   GL2  806  17.158  14.672  10.154  0.3632  0.0602  0.0344
   51loPI   C1A  807  17.018  14.268   9.947 -0.1547  0.1635 -0.0578
   51loPI   C2A  808  17.055  14.192   9.514 -0.3773  0.1285  0.2556
   51loPI   C3A  809  17.014  14.098   9.077 -0.1479 -0.1614 -0.1700
   51loPI   C4A  810  17.027  14.138   8.590 -0.1428  0.1108 -0.1163
   51loPI   C5A  811  16.915  13.990   8.194 -0.2495 -0.0568 -0.3052
   51loPI   C6A  812  16.863  13.669   7.825  0.0381 -0.0440 -0.3114
   51loPI   C1B  813  17.073  14.710   9.710 -0.0832  0.0872  0.0323
   51loPI   C2B  814  17.085  14.605   9.144 -0.2253  0.2105  0.2149
   51loPI   C3B  815  17.031  14.688   8.642  0.2252 -0.1677  0.0650
   51loPI   C4B  816  17.101  14.545   8.198  0.1098  0.0349  0.0513
   52loPI    C1  817   7.461  15.618  10.793 -0.2021 -0.0485 -0.0286
   52loPI    C2  818   7.512  15.222  10.768 -0.1295 -0.0403 -0.0128
   52loPI    C3  819   7.612  15.416  11.104  0.1249  0.0347 -0.1295
   52loPI   PO4  820   7.521  15.712  10.550 -0.3416 -0.2508 -0.0768
   52loPI   GL1  821   7.854  15.903  10.206 -0.2452 -0.0312  0.1992
   52loPI   GL2  822   7.569  15.957  10.129 -0.0867 -0.2920 -0.0287
   52loPI   C1A  823   8.090  15.743   9.813 -0.1015 -0.3969  0.2284
   52loPI   C2A  824   8.159  15.714   9.338  0.3991 -0.1114 -0.0847
   52loPI   C3A  825   8.093  15.673   8.849 -0.1655 -0.1310  0.0067
   52loPI   C4A  826   8.060  15.713   8.339  0.0236  0.2382 -0.0617
   52loPI   C5A  827   8.385  15.579   8.093 -0.1491 -0.2209 -0.0645
   52loPI   C6A  828   8.716  15.801   7.901  0.0576  0.3800 -0.0817
   52loPI   C1B  829   7.658  15.985   9.698 -0.0823  0.2166 -0.3725
   52loPI   C2B  830   7.679  15.918   9.290 -0.4431 -0.1097  0.2233
   52loPI   C3B  831   7.688  16.048   8.819 -0.1564 -0.0398  0.0714
   52loPI   C4B  832   7.632  16.039   8.309 -0.0857  0.1912  0.0097
   53loPI    C1  833   7.150   4.936  10.844 -0.2942  0.2309 -0.0546
   53loPI    C2  834   7.343   5.278  10.766  0.1273  0.0571  0.1936
   53loPI    C3  835   7.102   5.252  11.084 -0.1351  0.2054  0.0113
   53loPI   PO4  836   7.346   4.761  10.631 -0.2562 -0.0875 -0.2075
   53loPI   GL1  837   7.544   4.842  10.308 -0.1144 -0.0829  0.0716
   53loPI   GL2  838   7.604   4.512  10.210  0.2616 -0.1060  0.0715
   53loPI   C1A  839   7.278   4.958   9.967 -0.2341 -0.0523 -0.0296
   53loPI   C2A  840   7.107   5.000   9.590 -0.1565  0.0856  0.0560
   53loPI   C3A  841   7.116   5.030   9.141  0.0895 -0.2235 -0.2249
   53loPI   C4A  842   7.115   4.906   8.818  0.1501  0.0504 -0.0765
   53loPI   C5A  843   7.015   4.793   8.387  0.0675 -0.4347 -0.0557
   53loPI   C6A  844   6.857   4.906   7.991 -0.0021 -0.3876  0.3695
   53loPI   C1B  845   7.649   4.718   9.844  0.0825  0.2047  0.2555
   53loPI   C2B  846   7.661   4.646   9.382  0.1212  0.0677  0.0849
   53loPI   C3B  847   7.558   4.641   8.970  0.0254 -0.1008 -0.0972
   53loPI   C4B  848   7.565   4.520   8.535 -0.2140 -0.0801 -0.1328
   54loPI    C1  849   5.702   2.183  10.663  0.0447  0.2639 -0.0677
   54loPI    C2  850   5.418   2.302  10.919 -0.0450 -0.0230 -0.0307
   54loPI    C3  851   5.610   1.956  10.979  0.0541 -0.0091 -0.2582
   54loPI   PO4  852   5.621   2.069  10.450 -0.3344  0.0118  0.1030
   54loPI   GL1  853   5.311   1.843  10.192 -0.0583  0.3211 -0.1550
   54loPI   GL2  854   5.179   1.592  10.289 -0.1246  0.0271 -0.0190
   54loPI   C1A  855   5.199   1.892   9.755  0.1180 -0.1649 -0.0803
   54loPI   C2A  856   5.179   1.881   9.311 -0.0760 -0.2408  0.0814
   54loPI   C3A  857   5.224   1.745   8.876 -0.1414 -0.0824  0.5328
   54loPI   C4A  858   5.289   1.780   8.398  0.1051 -0.3981 -0.0253
   54loPI   C5A  859   5.273   1.440   8.095  0.0128  0.2273 -0.1523
   54loPI   C6A  860   5.064   1.222   7.748  0.2811 -0.2129 -0.1204
   54loPI   C1B  861   5.214   1.398   9.977 -0.0200 -0.0069  0.0392
   54loPI   C2B  862   5.227   1.345   9.596  0.0039 -0.1399  0.1774
   54loPI   C3B  863   5.254   1.287   9.153  0.0536 -0.1119 -0.2171
   54loPI   C4B  864   5.232   1.318   8.681  0.0263  0.1726  0.2983
   55loPI    C1  865  12.852  13.954  11.049 -0.1307  0.0216 -0.1334
   55loPI    C2  866  12.661  13.846  11.383 -0.0646  0.0857 -0.0745
   55loPI    C3  867  12.958  14.114  11.400  0.0930 -0.0824 -0.1516
   55loPI   PO4  868  12.755  13.801  10.836  0.1603 -0.2431 -0.1587
   55loPI   GL1  869  12.724  13.639  10.430 -0.6659 -0.0631  0.1738
   55loPI   GL2  870  13.047  13.482  10.350 -0.0288 -0.1639 -0.2277
   55loPI   C1A  871  12.488  13.740  10.026 -0.3295 -0.2636 -0.1185
   55loPI   C2A  872  12.596  13.864   9.556  0.0557 -0.3149 -0.1176
   55loPI   C3A  873  12.568  13.857   9.161  0.1001  0.1573 -0.0185
   55loPI   C4A  874  12.578  13.820   8.749  0.1064 -0.3268 -0.0132
   55loPI   C5A  875  12.597  14.053   8.374  0.2912 -0.0382 -0.2960
   55loPI   C6A  876  12.355  14.282   8.167  0.2524  0.0412 -0.0006
   55loPI   C1B  877  12.917  13.523   9.908 -0.0259  0.1657 -0.0711
   55loPI   C2B  878  13.015  13.582   9.423 -0.0106  0.0049  0.1916
   55loPI   C3B  879  12.945  13.570   8.957  0.2076  0.2232 -0.0565
   55loPI   C4B  880  13.007  13.619   8.528 -0.4518  0.1417 -0.2517
   56loPI    C1  881  14.219   1.694  10.603 -0.1681 -0.2027  0.1768
   56loPI    C2  882  14.454   1.428  10.788 -0.0054 -0.1223  0.0876
   56loPI    C3  883  14.325   1.752  10.984 -0.0963 -0.1998  0.1565
   56loPI   PO4  884  14.141   1.603  10.423 -0.1882  0.0477 -0.1115
   56loPI   GL1  885  14.114   1.639  10.065  0.0100  0.1439 -0.1000
   56loPI   GL2  886  14.232   1.916   9.988 -0.1301  0.1277 -0.0828
   56loPI   C1A  887  14.090   1.526   9.572  0.3166 -0.3668  0.1590
   56loPI   C2A  888  14.127   1.356   9.234  0.0009  0.2075  0.0807
   56loPI   C3A  889  14.114   1.395   8.809  0.0984  0.0065 -0.0396
   56loPI   C4A  890  14.128   1.410   8.330  0.0006  0.0664  0.1964
   56loPI   C5A  891  14.244   1.193   7.910  0.0160 -0.2550  0.1694
   56loPI   C6A  892  14.489   0.804   7.865  0.2581  0.0437  0.0018
   56loPI   C1B  893  14.219   2.034   9.633 -0.0828 -0.3486 -0.0066
   56loPI   C2B  894  14.169   1.905   9.245  0.0597  0.1207  0.0924
   56loPI   C3B  895  14.192   1.936   8.800  0.0104  0.1761  0.1168
   56loPI   C4B  896  14.195   1.924   8.391 -0.1670 -0.2944 -0.0269
   57loPI    C1  897  14.955  11.125  10.981 -0.3033 -0.2979 -0.0167
   57loPI    C2  898  15.091  10.968  11.323  0.1377 -0.0869 -0.0875
   57loPI    C3  899  15.016  11.361  11.299 -0.1769 -0.1478 -0.1506
   57loPI   PO4  900  15.061  10.993  10.788 -0.3306 -0.1709  0.2187
   57loPI   GL1  901  14.952  10.911  10.370  0.0514 -0.0935 -0.0028
   57loPI   GL2  902  15.119  10.743  10.170 -0.0907  0.1598 -0.3788
   57loPI   C1A  903  14.681  11.027  10.050 -0.0011 -0.1055 -0.0144
   57loPI   C2A  904  14.646  10.945   9.588 -0.1176 -0.0351  0.3755
   57loPI   C3A  905  14.633  10.925   9.151 -0.1940 -0.1982 -0.2615
   57loPI   C4A  906  14.572  10.898   8.679 -0.0293 -0.1846 -0.1025
   57loPI   C5A  907  14.427  10.807   8.297 -0.2430 -0.0061 -0.3726
   57loPI   C6A  908  14.201  10.903   7.967  0.0715 -0.0994  0.1292
   57loPI   C1B  909  15.139  10.707   9.678 -0.1659  0.1711  0.1142
   57loPI   C2B  910  15.055  10.617   9.306  0.0699  0.1727 -0.0999
   57loPI   C3B  911  14.980  10.628   8.878  0.1430 -0.0116  0.0090
   57loPI   C4B  912  14.958  10.605   8.427  0.1240 -0.0201  0.1028
   58loPI    C1  913   5.671   9.462  11.171 -0.0437 -0.1575  0.1214
   58loPI    C2  914   5.662   9.814  11.360 -0.0801 -0.1702  0.1431
   58loPI    C3  915   5.377   9.542  11.430 -0.1752 -0.1187 -0.0381
   58loPI   PO4  916   5.744   9.487  10.945 -0.0636 -0.1341  0.1676
   58loPI   GL1  917   5.562   9.471  10.540  0.0134  0.0770  0.0081
   58loPI   GL2  918   5.410   9.102  10.401  0.1113  0.0681 -0.0818
   58loPI   C1A  919   5.541   9.637  10.216  0.1596 -0.0406  0.0875
   58loPI   C2A  920   5.617   9.706   9.757 -0.1707  0.0403  0.2344
   58loPI   C3A  921   5.620   9.784   9.285  0.1982 -0.1470  0.0976
   58loPI   C4A  922   5.586   9.742   8.892  0.0161 -0.1584 -0.1140
   58loPI   C5A  923   5.529   9.913   8.516 -0.1976 -0.1013 -0.3581
   58loPI   C6A  924   5.423  10.132   8.155 -0.2247  0.0778 -0.2184
   58loPI   C1B  925   5.519   9.195   9.945  0.1602 -0.0463 -0.0711
   58loPI   C2B  926   5.526   9.177   9.463 -0.0689  0.2794 -0.3755
   58loPI   C3B  927   5.481   9.197   8.982 -0.0166  0.0509 -0.2104
   58loPI   C4B  928   5.533   9.278   8.536 -0.1650 -0.3748  0.3266
   59loPI    C1  929   9.589  11.328  11.014  0.0456  0.1770  0.1203
   59loPI    C2  930   9.961  11.234  10.899 -0.0439  0.2830 -0.2731
   59loPI    C3  931   9.835  11.139  11.267  0.2866  0.0198 -0.2226
   59loPI   PO4  932   9.435  11.170  10.715 -0.2804 -0.1209 -0.1470
   59loPI   GL1  933   9.455  11.090  10.299  0.0886 -0.0100  0.1561
   59loPI   GL2  934   9.741  10.921  10.004  0.1120 -0.0426  0.0662
   59loPI   C1A  935   9.346  11.163   9.898  0.0421  0.0149  0.1198
   59loPI   C2A  936   9.212  11.166   9.449  0.1340  0.1393  0.1422
   59loPI   C3A  937   9.259  11.220   8.976  0.0381 -0.0617 -0.1302
   59loPI   C4A  938   9.360  11.158   8.608 -0.1079 -0.2194  0.1464
   59loPI   C5A  939   9.274  11.130   8.258  0.2380 -0.0757  0.6055
   59loPI   C6A  940   8.954  11.090   7.993 -0.1013  0.2507 -0.0573
   59loPI   C1B  941   9.725  10.919   9.572 -0.0089  0.0623  0.3565
   59loPI   C2B  942   9.653  10.938   9.153 -0.0676 -0.0678 -0.4067
   59loPI   C3B  943   9.727  10.820   8.810 -0.1783  0.0294  0.3358
   59loPI   C4B  944   9.747  10.950   8.354 -0.0764  0.0438  0.2867
   60loPI    C1  945  13.739  14.753  10.990  0.1662  0.0046  0.0963
   60loPI    C2  946  13.360  14.667  11.085  0.0282  0.1304 -0.3185
   60loPI    C3  947  13.593  14.860  11.347 -0.1686 -0.0150 -0.0311
   60loPI   PO4  948  13.654  14.891  10.748 -0.1848 -0.2065  0.0261
   60loPI   GL1  949  13.763  14.803  10.409  0.0926 -0.3361 -0.0997
   60loPI   GL2  950  13.525  14.830  10.227  0.0841  0.0349 -0.2017
   60loPI   C1A  951  13.911  14.535  10.077 -0.2892  0.0535  0.1374
   60loPI   C2A  952  13.898  14.493   9.607 -0.1554  0.3345 -0.2744
   60loPI   C3A  953  13.893  14.585   9.032 -0.2770 -0.0415 -0.0874
   60loPI   C4A  954  13.863  14.675   8.640 -0.0415 -0.0985  0.0690
   60loPI   C5A  955  13.963  15.087   8.384  0.1063 -0.2428  0.2459
   60loPI   C6A  956  13.907  15.159   7.917 -0.0551 -0.0906  0.3593
   60loPI   C1B  957  13.519  14.777   9.751  0.1651  0.1627  0.0633
   60loPI   C2B  958  13.419  14.890   9.301 -0.0805 -0.1523 -0.2462
   60loPI   C3B  959  13.439  14.885   8.906 -0.0289 -0.3753 -0.2424
   60loPI   C4B  960  13.364  14.944   8.496  0.1114  0.3196 -0.1448
   61loPI    C1  961  17.711   5.238  10.250 -0.1023 -0.0145  0.0824
   61loPI    C2  962  17.320   5.241  10.169 -0.0959 -0.1417  0.0453
   61loPI    C3  963  17.465   4.989  10.443 -0.0421 -0.0817  0.0725
   61loPI   PO4  964  17.834   5.262  10.027 -0.0453 -0.0151 -0.0570
   61loPI   GL1  965  17.785   5.086   9.607  0.1913 -0.1101 -0.4299
   61loPI   GL2  966  18.015   4.933   9.391 -0.1908  0.2212 -0.1922
   61loPI   C1A  967  17.704   5.311   9.253 -0.0862  0.1676  0.1397
   61loPI   C2A  968  17.568   5.271   8.885  0.1467 -0.0811 -0.0786
   61loPI   C3A  969  17.617   5.309   8.499  0.0590  0.1602 -0.0262
   61loPI   C4A  970  17.576   5.151   8.170 -0.1619 -0.2135 -0.1422
   61loPI   C5A  971  17.496   5.109   7.784 -0.0716  0.1389  0.2382
   61loPI   C6A  972  17.501   4.828   7.327 -0.0699 -0.1095 -0.0540
   61loPI   C1B  973  17.993   5.044   8.972  0.3159 -0.0669  0.0280
   61loPI   C2B  974  18.044   4.944   8.528 -0.1310 -0.2197  0.1043
   61loPI   C3B  975  17.979   4.888   8.131 -0.1774 -0.2123 -0.0011
   61loPI   C4B  976  17.872   4.775   7.649 -0.2568 -0.1898 -0.1983
   62loPI    C1  977   2.458  10.975  10.790  0.3791 -0.1149  0.0424
   62loPI    C2  978   2.633  11.149  11.104  0.0011  0.1767  0.0999
   62loPI    C3  979   2.305  10.927  11.156  0.1873 -0.1378 -0.0395
   62loPI   PO4  980   2.627  11.148  10.587 -0.6412  0.0156  0.0113
   62loPI   GL1  981   2.669  11.029  10.114  0.0718  0.1824 -0.0188
   62loPI   GL2  982   2.921  10.846  10.015 -0.0817 -0.1157 -0.0021
   62loPI   C1A  983   2.471  11.203   9.715  0.0898 -0.1950 -0.0695
   62loPI   C2A  984   2.520  11.257   9.322  0.0769  0.2227  0.0245
   62loPI   C3A  985   2.461  11.224   8.886 -0.2196  0.0705 -0.1581
   62loPI   C4A  986   2.558  11.240   8.523  0.1604  0.0700 -0.2977
   62loPI   C5A  987   2.642  11.280   8.149 -0.2634  0.1939  0.0161
   62loPI   C6A  988   2.802  11.037   7.771  0.0693  0.0357 -0.0573
   62loPI   C1B  989   2.921  10.953   9.589 -0.0443  0.1249 -0.0870
   62loPI   C2B  990   2.843  10.922   9.148  0.4260 -0.2244 -0.0405
   62loPI   C3B  991   2.922  10.900   8.666  0.3001 -0.0992  0.1381
   62loPI   C4B  992   2.981  10.942   8.328  0.3457 -0.3495  0.0057
   63loPI    C1  993   8.704   4.648  10.798  0.0128 -0.1499 -0.0439
   63loPI    C2  994   8.442   4.406  10.616 -0.1805 -0.0318  0.0745
   63loPI    C3  995   8.506   4.372  11.010 -0.3153  0.2009  0.1186
   63loPI   PO4  996   8.711   4.822  10.612  0.1125  0.2240 -0.1448
   63loPI   GL1  997   8.333   4.788  10.301  0.0318 -0.0415  0.3919
   63loPI   GL2  998   8.052   4.725  10.345 -0.0356 -0.0230 -0.2065
   63loPI   C1A  999   8.433   4.705   9.850  0.1912  0.0699  0.0415
   63loPI   C2A 1000   8.523   4.643   9.465 -0.2143 -0.1344  0.0580
   63loPI   C3A 1001   8.411   4.537   9.049  0.3942 -0.1236  0.0484
   63loPI   C4A 1002   8.572   4.641   8.650  0.0790 -0.2592 -0.1706
   63loPI   C5A 1003   8.501   4.560   8.233  0.1928 -0.2061  0.2913
   63loPI   C6A 1004   8.622   4.639   7.793  0.0786 -0.0617  0.1418
   63loPI   C1B 1005   7.967   4.953  10.051 -0.0225  0.3232 -0.0783
   63loPI   C2B 1006   8.027   5.043   9.655  0.1078  0.1937  0.2245
   63loPI   C3B 1007   8.049   4.929   9.204  0.1209  0.1022 -0.1922
   63loPI   C4B 1008   7.907   4.947   8.760  0.1459 -0.2034  0.2264
   64loPI    C1 1009  15.527  11.099  11.040 -0.1546 -0.0040 -0.0654
   64loPI    C2 1010  15.499  11.368  11.335 -0.1477 -0.1298  0.0508
   64loPI    C3 1011  15.613  10.993  11.416  0.2588 -0.0603 -0.1716
   64loPI   PO4 1012  15.475  11.237  10.767 -0.1652 -0.0056  0.0782
   64loPI   GL1 1013  15.446  11.115  10.431 -0.1816 -0.1683  0.1637
   64loPI   GL2 1014  15.761  11.274  10.307 -0.2426  0.0475 -0.0415
   64loPI   C1A 1015  15.130  11.253  10.107 -0.1133 -0.0815  0.0456
   64loPI   C2A 1016  15.052  11.196   9.666 -0.3387  0.0596 -0.2312
   64loPI   C3A 1017  15.132  11.135   9.276  0.2318 -0.1432 -0.0845
   64loPI   C4A 1018  15.002  11.143   8.909  0.3158  0.2868 -0.2110
   64loPI   C5A 1019  15.128  11.028   8.533  0.0643 -0.2370  0.0646
   64loPI   C6A 1020  15.426  10.745   8.279 -0.2855 -0.0294  0.1099
   64loPI   C1B 1021  15.653  11.412  10.045 -0.0161 -0.1644 -0.3249
   64loPI   C2B 1022  15.571  11.496   9.624  0.0239  0.0375 -0.0414
   64loPI   C3B 1023  15.536  11.401   9.116  0.0039 -0.3614 -0.2285
   64loPI   C4B 1024  15.549  11.326   8.660  0.0512 -0.0254  0.1469
   65loPI    C1 1025  14.598   6.243  10.522  0.0699 -0.0934 -0.0283
   65loPI    C2 1026  14.523   5.853  10.570 -0.1602 -0.0430  0.0392
   65loPI    C3 1027  14.800   6.032  10.796  0.0484 -0.1959 -0.0909
   65loPI   PO4 1028  14.491   6.252  10.266 -0.0503 -0.2383  0.1893
   65loPI   GL1 1029  14.485   6.174   9.863 -0.1567  0.0364  0.1753
   65loPI   GL2 1030  14.792   6.090   9.792 -0.2729  0.1389 -0.0775
   65loPI   C1A 1031  14.403   6.254   9.455 -0.0658 -0.5211  0.3578
   65loPI   C2A 1032  14.280   6.152   9.100 -0.3484 -0.0929  0.0751
   65loPI   C3A 1033  14.299   6.159   8.701  0.0356 -0.1277 -0.2625
   65loPI   C4A 1034  14.379   6.065   8.218 -0.0031  0.3960 -0.1705
   65loPI   C5A 1035  14.296   6.331   7.948  0.1642 -0.0249  0.2092
   65loPI   C6A 1036  14.052   6.232   7.619  0.1015 -0.1922  0.0984
   65loPI   C1B 1037  14.863   5.916   9.419  0.0388 -0.0001  0.0025
   65loPI   C2B 1038  14.743   5.954   9.054  0.0936 -0.0638 -0.0557
   65loPI   C3B 1039  14.744   5.854   8.605 -0.1144 -0.1331 -0.0847
   65loPI   C4B 1040  14.892   5.736   8.171 -0.0079  0.4370 -0.0745
   66loPI    C1 1041  10.988  12.349  10.764  0.0541 -0.0365  0.0093
   66loPI    C2 1042  10.946  12.415  11.156  0.1976  0.0724  0.0072
   66loPI    C3 1043  11.189  12.124  11.027 -0.0292 -0.1190  0.0032
   66loPI   PO4 1044  11.029  12.660  10.670 -0.1411  0.2427  0.1893
   66loPI   GL1 1045  11.041  12.754  10.298 -0.1604  0.2557  0.0831
   66loPI   GL2 1046  11.060  13.118  10.331 -0.0605 -0.2329  0.3575
   66loPI   C1A 1047  11.040  12.668   9.865 -0.1607 -0.0005 -0.0706
   66loPI   C2A 1048  11.167  12.629   9.485  0.0671 -0.0173  0.1113
   66loPI   C3A 1049  11.100  12.628   8.990  0.1830 -0.1804 -0.3111
   66loPI   C4A 1050  11.157  12.832   8.626  0.2421 -0.0558  0.2181
   66loPI   C5A 1051  10.998  12.813   8.279  0.0775  0.1766 -0.0980
   66loPI   C6A 1052  11.158  12.727   7.873  0.2323  0.0651 -0.1762
   66loPI   C1B 1053  11.095  13.175   9.929 -0.0520  0.1718 -0.2678
   66loPI   C2B 1054  11.174  13.145   9.507  0.0192 -0.0056  0.1529
   66loPI   C3B 1055  11.254  13.112   9.062  0.0164 -0.0828 -0.0901
   66loPI   C4B 1056  11.215  13.316   8.697  0.2570 -0.1907 -0.0177
   67loPI    C1 1057   2.983  12.341  11.207 -0.0973  0.0698  0.0061
   67loPI    C2 1058   3.113  11.965  11.247 -0.1311  0.0770  0.1881
   67loPI    C3 1059   3.352  12.271  11.343 -0.1802  0.0965  0.2490
   67loPI   PO4 1060   2.890  12.246  10.913  0.1198  0.1505  0.1581
   67loPI   GL1 1061   2.915  12.593  10.605  0.3674  0.2163  0.0036
   67loPI   GL2 1062   2.961  12.832  10.559 -0.5603  0.2159  0.1339
   67loPI   C1A 1063   3.064  12.342  10.241  0.2187 -0.0952 -0.2949
   67loPI   C2A 1064   3.107  12.517   9.789 -0.1037  0.1172 -0.1404
   67loPI   C3A 1065   3.014  12.453   9.343 -0.4756  0.0003 -0.0088
   67loPI   C4A 1066   3.026  12.497   8.969  0.1336  0.1504  0.0536
   67loPI   C5A 1067   3.064  12.484   8.504  0.2536 -0.0814 -0.0202
   67loPI   C6A 1068   3.110  12.141   8.160  0.0412  0.0890 -0.2334
   67loPI   C1B 1069   3.036  12.901  10.035 -0.0598  0.3272 -0.0611
   67loPI   C2B 1070   3.098  12.959   9.533 -0.2112 -0.1787  0.2199
   67loPI   C3B 1071   3.100  13.027   9.218 -0.1312 -0.0529 -0.0635
   67loPI   C4B 1072   3.041  13.130   8.828  0.3732 -0.1774  0.3156
   68loPI    C1 1073   0.837  10.879  10.693 -0.0625 -0.0583  0.2048
   68loPI    C2 1074   1.149  10.635  10.748  0.1168  0.1476  0.1124
   68loPI    C3 1075   0.892  10.701  11.047  0.0741 -0.1418  0.1423
   68loPI   PO4 1076   0.849  10.877  10.335 -0.0557  0.2028  0.0646
   68loPI   GL1 1077   0.725  10.865   9.990  0.2666  0.0747 -0.0596
   68loPI   GL2 1078   0.391  10.768  10.090  0.1640 -0.2776  0.0385
   68loPI   C1A 1079   0.670  10.844   9.482  0.0813  0.1617 -0.0973
   68loPI   C2A 1080   0.704  10.816   9.096  0.1035 -0.2569  0.3022
   68loPI   C3A 1081   0.657  10.853   8.585  0.0279  0.2729 -0.2372
   68loPI   C4A 1082   0.858  10.660   8.185  0.0038  0.1414  0.0169
   68loPI   C5A 1083   0.730  10.461   7.784 -0.5090 -0.0902  0.0257
   68loPI   C6A 1084   0.552  10.274   7.543 -0.0954 -0.1212 -0.2358
   68loPI   C1B 1085   0.219  11.029   9.726 -0.0184 -0.1252 -0.1601
   68loPI   C2B 1086   0.315  11.152   9.336  0.1706 -0.1749 -0.0421
   68loPI   C3B 1087   0.239  11.129   8.867  0.0477  0.2138 -0.3433
   68loPI   C4B 1088   0.230  11.214   8.376  0.3031  0.0418  0.0590
   69loPI    C1 1089   5.572  14.768  10.879 -0.0080  0.1774 -0.2269
   69loPI    C2 1090   5.279  14.602  10.663 -0.1420 -0.0513  0.1222
   69loPI    C3 1091   5.191  14.815  10.990  0.0816 -0.1654  0.2594
   69loPI   PO4 1092   5.769  14.691  10.820  0.1969 -0.0602 -0.0775
   69loPI   GL1 1093   5.892  14.518  10.472  0.2828 -0.1058 -0.0123
   69loPI   GL2 1094   6.162  14.656  10.339 -0.3184  0.0595 -0.0423
   69loPI   C1A 1095   5.744  14.497  10.110 -0.1680  0.2136  0.0634
   69loPI   C2A 1096   5.811  14.476   9.640  0.0384  0.2472  0.0015
   69loPI   C3A 1097   5.745  14.450   9.216  0.0626  0.0426 -0.0102
   69loPI   C4A 1098   5.809  14.530   8.815 -0.2228  0.0121 -0.4569
   69loPI   C5A 1099   5.751  14.488   8.377 -0.0320 -0.0471 -0.0594
   69loPI   C6A 1100   5.481  14.731   8.205  0.0656 -0.0027 -0.1650
   69loPI   C1B 1101   6.283  14.698   9.974  0.3081  0.3041 -0.0347
   69loPI   C2B 1102   6.237  14.620   9.543  0.1036 -0.4361 -0.1567
   69loPI   C3B 1103   6.324  14.683   9.114  0.1360 -0.0596 -0.2290
   69loPI   C4B 1104   6.285  14.796   8.753 -0.3311 -0.1807  0.0976
   70loPI    C1 1105  10.309  13.535  10.964 -0.1604 -0.1507  0.3045
   70loPI    C2 1106  10.384  13.802  11.252 -0.1518 -0.0626  0.2210
   70loPI    C3 1107  10.358  13.413  11.342  0.0931 -0.0623  0.3024
   70loPI   PO4 1108  10.341  13.457  10.746  0.2089 -0.1373  0.3838
   70loPI   GL1 1109  10.222  13.160  10.508 -0.0812 -0.2391  0.1882
   70loPI   GL2 1110   9.934  13.070  10.592  0.3873  0.0646 -0.1189
   70loPI   C1A 1111  10.201  13.330  10.055  0.3892 -0.1654  0.2224
   70loPI   C2A 1112  10.242  13.165   9.603 -0.0991  0.1143 -0.2278
   70loPI   C3A 1113  10.293  13.132   9.181  0.0392 -0.1124 -0.0121
   70loPI   C4A 1114  10.237  13.186   8.772 -0.1167 -0.1440  0.1462
   70loPI   C5A 1115  10.108  13.076   8.367 -0.2122  0.0897 -0.0523
   70loPI   C6A 1116  10.175  13.256   7.953 -0.1851 -0.0842 -0.1909
   70loPI   C1B 1117   9.709  13.069  10.222 -0.1526  0.1160  0.1097
   70loPI   C2B 1118   9.842  12.973   9.834 -0.1496 -0.2622  0.0963
   70loPI   C3B 1119   9.810  12.902   9.445 -0.0621  0.4756 -0.0578
   70loPI   C4B 1120   9.777  12.941   9.022 -0.3322 -0.0215 -0.1494
   71loPI    C1 1121  12.016   4.479  10.693  0.1218  0.1317  0.0827
   71loPI    C2 1122  12.144   4.721  10.984  0.1286 -0.0393  0.2237
   71loPI    C3 1123  11.838   4.472  11.052  0.1078 -0.0553  0.0733
   71loPI   PO4 1124  12.053   4.589  10.398  0.2355 -0.0208 -0.0457
   71loPI   GL1 1125  11.859   4.939  10.165  0.1933  0.0248 -0.1277
   71loPI   GL2 1126  11.492   4.812  10.205 -0.0669 -0.2292  0.1118
   71loPI   C1A 1127  12.046   4.985   9.802  0.2257 -0.1153 -0.0376
   71loPI   C2A 1128  12.081   4.916   9.374  0.6177 -0.0847  0.2976
   71loPI   C3A 1129  12.038   5.015   8.969  0.0258 -0.0371 -0.0322
   71loPI   C4A 1130  12.028   4.861   8.534  0.1282 -0.1569 -0.0032
   71loPI   C5A 1131  12.172   4.759   8.175  0.1107  0.2700 -0.1660
   71loPI   C6A 1132  12.120   4.659   7.797 -0.0523 -0.2069  0.0717
   71loPI   C1B 1133  11.575   4.700   9.707 -0.0019  0.0415 -0.1857
   71loPI   C2B 1134  11.578   4.806   9.271  0.0853 -0.0815  0.1645
   71loPI   C3B 1135  11.579   4.688   8.845 -0.1860 -0.3222  0.0781
   71loPI   C4B 1136  11.557   4.667   8.371  0.2496  0.1505  0.1522
   72loPI    C1 1137  16.420   9.595  10.465 -0.1035 -0.1568 -0.0617
   72loPI    C2 1138  16.350   9.342  10.767  0.5004 -0.1454  0.1009
   72loPI    C3 1139  16.464   9.718  10.843 -0.0834  0.0934 -0.1437
   72loPI   PO4 1140  16.256   9.596  10.261 -0.1714 -0.1598  0.1141
   72loPI   GL1 1141  16.172   9.597   9.898  0.0907  0.1203  0.1787
   72loPI   GL2 1142  15.917   9.466   9.693 -0.1890  0.1148 -0.2260
   72loPI   C1A 1143  16.403   9.639   9.555 -0.0606  0.1364  0.0208
   72loPI   C2A 1144  16.422   9.683   9.169 -0.1598 -0.2414  0.0876
   72loPI   C3A 1145  16.273   9.771   8.764  0.1265 -0.2143 -0.2863
   72loPI   C4A 1146  16.347   9.732   8.251  0.1152 -0.3040  0.0441
   72loPI   C5A 1147  16.349  10.117   7.986 -0.1836  0.2288  0.1153
   72loPI   C6A 1148  16.293  10.434   7.719  0.2397 -0.3902 -0.3029
   72loPI   C1B 1149  15.772   9.466   9.262 -0.1397  0.0274  0.1267
   72loPI   C2B 1150  15.884   9.473   8.898  0.2443 -0.0004  0.2518
   72loPI   C3B 1151  15.905   9.577   8.453  0.0555  0.2410 -0.2713
   72loPI   C4B 1152  15.927   9.597   8.104  0.1069  0.4936 -0.0978
   73loPI    C1 1153   3.659  12.677  11.257 -0.2504 -0.0523  0.1043
   73loPI    C2 1154   3.896  12.981  11.362  0.0116 -0.1941 -0.0650
   73loPI    C3 1155   3.526  13.053  11.229  0.0288  0.0420  0.0097
   73loPI   PO4 1156   3.797  12.569  10.959 -0.2110 -0.0159 -0.1826
   73loPI   GL1 1157   3.755  12.521  10.466 -0.1735 -0.0087  0.1326
   73loPI   GL2 1158   3.926  12.325  10.148  0.4881  0.1375 -0.2326
   73loPI   C1A 1159   3.915  12.916  10.139 -0.0986 -0.1958  0.1045
   73loPI   C2A 1160   3.954  13.010   9.679 -0.0861  0.0540 -0.0347
   73loPI   C3A 1161   3.959  12.957   9.253  0.0667 -0.3053  0.0708
   73loPI   C4A 1162   3.939  12.995   8.781  0.1204 -0.0925 -0.1504
   73loPI   C5A 1163   3.887  12.995   8.261  0.4952 -0.0165 -0.0527
   73loPI   C6A 1164   3.799  12.665   7.895 -0.1918 -0.0704  0.1100
   73loPI   C1B 1165   4.026  12.414   9.747 -0.0989 -0.2401  0.0357
   73loPI   C2B 1166   3.997  12.431   9.368 -0.0758  0.1546 -0.1140
   73loPI   C3B 1167   3.922  12.505   8.935  0.0869  0.0475  0.1781
   73loPI   C4B 1168   4.010  12.566   8.546  0.1667 -0.0780  0.1868
   74loPI    C1 1169   7.752   4.522  10.843  0.0831 -0.2484  0.0007
   74loPI    C2 1170   7.967   4.528  11.181 -0.1084 -0.2815  0.1244
   74loPI    C3 1171   7.574   4.600  11.193 -0.0780 -0.0621 -0.1212
   74loPI   PO4 1172   7.897   4.371  10.681  0.1277 -0.2782  0.1565
   74loPI   GL1 1173   8.070   4.234  10.231  0.0221  0.0462  0.0493
   74loPI   GL2 1174   8.056   4.394   9.960 -0.3449 -0.1068  0.2321
   74loPI   C1A 1175   8.012   3.977   9.756  0.1068 -0.1552 -0.0548
   74loPI   C2A 1176   7.935   3.859   9.336 -0.0113  0.2495  0.0639
   74loPI   C3A 1177   7.926   3.819   8.866  0.3087 -0.2083 -0.4290
   74loPI   C4A 1178   7.859   4.030   8.410  0.0421  0.0681 -0.1220
   74loPI   C5A 1179   7.664   4.145   7.996 -0.2306 -0.0621  0.1631
   74loPI   C6A 1180   7.739   4.594   7.851  0.1249  0.0160 -0.1119
   74loPI   C1B 1181   8.101   4.424   9.476 -0.1380  0.1350 -0.0286
   74loPI   C2B 1182   7.934   4.283   9.107  0.1024 -0.2584  0.2232
   74loPI   C3B 1183   8.012   4.413   8.691  0.2683  0.1391  0.2216
   74loPI   C4B 1184   8.004   4.681   8.327 -0.0566  0.0504 -0.0222
   75loPI    C1 1185   3.668  17.369  10.854  0.0219  0.0592  0.0923
   75loPI    C2 1186   3.985  17.611  10.885  0.0423  0.0441  0.0048
   75loPI    C3 1187   3.642  17.705  11.068  0.0272  0.1774 -0.0903
   75loPI   PO4 1188   3.639  17.320  10.646  0.1887 -0.4430 -0.0931
   75loPI   GL1 1189   4.029  17.433  10.395  0.1463  0.0339  0.0551
   75loPI   GL2 1190   4.150  17.788  10.149 -0.1803  0.0645  0.2004
   75loPI   C1A 1191   4.108  17.297   9.902 -0.0319  0.0327  0.2431
   75loPI   C2A 1192   4.061  17.248   9.484 -0.0452  0.1240 -0.0894
   75loPI   C3A 1193   4.145  17.165   8.994 -0.1589 -0.0214 -0.0448
   75loPI   C4A 1194   4.141  17.170   8.553 -0.0252  0.2107  0.3165
   75loPI   C5A 1195   3.912  17.111   8.209 -0.0915  0.1137  0.0587
   75loPI   C6A 1196   3.745  17.398   7.932  0.0298 -0.4068  0.0255
   75loPI   C1B 1197   4.189  17.741   9.644  0.1270 -0.2038  0.2954
   75loPI   C2B 1198   4.150  17.706   9.220  0.0438 -0.2931  0.0102
   75loPI   C3B 1199   4.150  17.686   8.689  0.1869  0.2226 -0.0339
   75loPI   C4B 1200   4.186  17.565   8.270  0.1725  0.1245  0.1210
   76loPI    C1 1201   8.550   3.167  10.629  0.2192  0.0654 -0.0707
   76loPI    C2 1202   8.258   3.427  10.542  0.2014  0.0833  0.0406
   76loPI    C3 1203   8.477   3.475  10.874  0.1226 -0.1083  0.1223
   76loPI   PO4 1204   8.629   3.120  10.355  0.2379 -0.1040  0.0810
   76loPI   GL1 1205   8.492   3.344  10.007 -0.3679  0.1086 -0.0103
   76loPI   GL2 1206   8.799   3.415   9.925  0.0908  0.1302 -0.1161
   76loPI   C1A 1207   8.352   2.991   9.714  0.1526 -0.1460  0.2209
   76loPI   C2A 1208   8.279   3.062   9.272 -0.1170 -0.2400  0.2263
   76loPI   C3A 1209   8.347   3.027   8.827 -0.0821  0.1722  0.2607
   76loPI   C4A 1210   8.204   3.050   8.387  0.2274  0.1775 -0.1396
   76loPI   C5A 1211   8.237   2.943   7.897  0.0443  0.2963 -0.2332
   76loPI   C6A 1212   8.497   2.995   7.572 -0.0314 -0.1756  0.0003
   76loPI   C1B 1213   8.775   3.267   9.460 -0.1684 -0.1789  0.4476
   76loPI   C2B 1214   8.755   3.318   9.012 -0.0073 -0.0022  0.0151
   76loPI   C3B 1215   8.772   3.249   8.562 -0.1587  0.2808 -0.1032
   76loPI   C4B 1216   8.682   3.041   8.173  0.0489  0.0100 -0.1040
   77loPI    C1 1217  14.711  11.585  10.984  0.1209 -0.1659  0.0636
   77loPI    C2 1218  14.542  11.480  11.331 -0.2865  0.1749 -0.0241
   77loPI    C3 1219  14.716  11.839  11.293  0.0295  0.0190 -0.0848
   77loPI   PO4 1220  14.504  11.439  10.809 -0.3478  0.2491 -0.0502
   77loPI   GL1 1221  14.362  11.661  10.491 -0.1924 -0.2038  0.0897
   77loPI   GL2 1222  14.113  11.816  10.452 -0.1231 -0.4211  0.0166
   77loPI   C1A 1223  14.716  11.479  10.155 -0.1299 -0.1063 -0.3020
   77loPI   C2A 1224  14.676  11.466   9.761 -0.1634  0.5088 -0.2098
   77loPI   C3A 1225  14.677  11.435   9.252 -0.2575  0.0021 -0.1333
   77loPI   C4A 1226  14.669  11.421   8.742 -0.1660  0.2625 -0.2775
   77loPI   C5A 1227  14.671  11.331   8.368  0.4252 -0.0079  0.1702
   77loPI   C6A 1228  14.836  11.516   8.059  0.0527  0.2034  0.1548
   77loPI   C1B 1229  14.248  11.745   9.945 -0.1160 -0.2052 -0.3473
   77loPI   C2B 1230  14.238  11.746   9.497  0.0658  0.3018 -0.4314
   77loPI   C3B 1231  14.159  11.668   9.171  0.0724  0.1058  0.0877
   77loPI   C4B 1232  14.165  11.680   8.731  0.0626 -0.0609 -0.2120
   78loPI    C1 1233  13.171   0.158  10.627  0.2868 -0.0906 -0.0531
   78loPI    C2 1234  13.420  -0.052  10.859  0.3394  0.2079  0.1660
   78loPI    C3 1235  13.198   0.241  11.017 -0.2681 -0.1484  0.0064
   78loPI   PO4 1236  13.111   0.016  10.467  0.3442  0.3591 -0.0438
   78loPI   GL1 1237  13.229  -0.085  10.125 -0.1079 -0.0041 -0.1042
   78loPI   GL2 1238  13.518   0.144   9.968 -0.1117 -0.1488 -0.0220
   78loPI   C1A 1239  13.080  -0.136   9.677 -0.1703 -0.2569 -0.0711
   78loPI   C2A 1240  13.136  -0.128   9.205  0.0772  0.1266 -0.0445
   78loPI   C3A 1241  13.173  -0.053   8.788  0.0383  0.1312 -0.0099
   78loPI   C4A 1242  13.201   0.034   8.331  0.0531 -0.1240  0.0775
   78loPI   C5A 1243  13.186   0.170   7.854  0.3648 -0.0701  0.1087
   78loPI   C6A 1244  12.847   0.105   7.573 -0.1677  0.0945 -0.0822
   78loPI   C1B 1245  13.531   0.145   9.531  0.0759 -0.0389 -0.1425
   78loPI   C2B 1246  13.605   0.077   9.034 -0.0105  0.0657 -0.3302
   78loPI   C3B 1247  13.694   0.174   8.578  0.3570  0.0877  0.2302
   78loPI   C4B 1248  13.655   0.163   8.143 -0.0429 -0.1695  0.1746
   79loPI    C1 1249  11.040   2.678  10.633  0.2604 -0.1923 -0.0200
   79loPI    C2 1250  11.400   2.602  10.789  0.2456 -0.0922  0.0635
   79loPI    C3 1251  11.151   2.854  10.975  0.1838 -0.0596 -0.0629
   79loPI   PO4 1252  10.986   2.702  10.379  0.1167 -0.0482  0.0962
   79loPI   GL1 1253  10.565   2.704  10.181 -0.1848  0.0074  0.1808
   79loPI   GL2 1254  10.537   3.026  10.165 -0.1528  0.0588 -0.1312
   79loPI   C1A 1255  10.732   2.604   9.723  0.0721 -0.1373  0.0932
   79loPI   C2A 1256  10.679   2.569   9.258  0.3155  0.1689 -0.0234
   79loPI   C3A 1257  10.647   2.645   8.910 -0.1128 -0.0326  0.0249
   79loPI   C4A 1258  10.678   2.692   8.456  0.1167 -0.3198 -0.2523
   79loPI   C5A 1259  10.664   2.774   8.057 -0.0601 -0.0403 -0.2710
   79loPI   C6A 1260  10.757   2.726   7.722  0.1022  0.2866 -0.1538
   79loPI   C1B 1261  10.535   3.067   9.791  0.3428 -0.1458  0.2307
   79loPI   C2B 1262  10.588   3.056   9.322 -0.0092 -0.0535 -0.0853
   79loPI   C3B 1263  10.616   3.124   8.912 -0.0645 -0.1221 -0.0927
   79loPI   C4B 1264  10.612   3.191   8.463 -0.1785 -0.2282  0.1289
   80loPI    C1 1265  14.608   3.962  10.420  0.1300 -0.1304 -0.0556
   80loPI    C2 1266  14.903   4.185  10.267 -0.1333  0.3032  0.0534
   80loPI    C3 1267  14.743   4.280  10.622  0.0679 -0.3435  0.3321
   80loPI   PO4 1268  14.421   3.927  10.122 -0.2128 -0.2730 -0.0459
   80loPI   GL1 1269  14.429   3.715   9.813 -0.0926 -0.1207 -0.0276
   80loPI   GL2 1270  14.407   3.957   9.568  0.0673 -0.2193 -0.0076
   80loPI   C1A 1271  14.346   3.499   9.523 -0.0740  0.0279  0.1189
   80loPI   C2A 1272  14.352   3.453   9.124 -0.2983  0.0058  0.1900
   80loPI   C3A 1273  14.305   3.563   8.680  0.3141 -0.0899  0.0193
   80loPI   C4A 1274  14.362   3.438   8.216 -0.1189  0.0237 -0.2735
   80loPI   C5A 1275  14.454   3.425   7.776  0.2241 -0.2096  0.1359
   80loPI   C6A 1276  14.843   3.501   7.597 -0.1188  0.0011 -0.2187
   80loPI   C1B 1277  14.308   3.942   9.213  0.0207 -0.1901 -0.0293
   80loPI   C2B 1278  14.386   4.062   8.833  0.3321  0.3446  0.0829
   80loPI   C3B 1279  14.318   4.049   8.430  0.0358 -0.1705  0.2810
   80loPI   C4B 1280  14.362   4.014   7.911  0.0501 -0.0650  0.0851
   81loPI    C1 1281  14.340  12.759  11.196  0.2694 -0.1878 -0.0982
   81loPI    C2 1282  14.275  13.141  11.295 -0.2779 -0.2499 -0.1847
   81loPI    C3 1283  14.300  12.862  11.581 -0.1506 -0.1906 -0.1369
   81loPI   PO4 1284  14.250  12.819  10.856  0.1293 -0.1128  0.0329
   81loPI   GL1 1285  14.517  12.892  10.547  0.0060  0.1087 -0.1712
   81loPI   GL2 1286  14.754  12.869  10.508 -0.1556 -0.0736 -0.3324
   81loPI   C1A 1287  14.309  12.718  10.208  0.3812  0.0894 -0.1266
   81loPI   C2A 1288  14.246  12.722   9.760  0.0468 -0.0878 -0.1171
   81loPI   C3A 1289  14.240  12.759   9.362  0.2230 -0.1012 -0.0516
   81loPI   C4A 1290  14.340  12.764   8.993 -0.1818 -0.1274 -0.2539
   81loPI   C5A 1291  14.257  12.740   8.552 -0.3441 -0.0749  0.1899
   81loPI   C6A 1292  13.993  13.080   8.335  0.2208 -0.0136 -0.0311
   81loPI   C1B 1293  14.732  12.979  10.088 -0.1904 -0.2298  0.2222
   81loPI   C2B 1294  14.692  12.938   9.696 -0.5111  0.1162 -0.0843
   81loPI   C3B 1295  14.767  12.998   9.263 -0.1936 -0.1421 -0.2692
   81loPI   C4B 1296  14.813  12.913   8.818  0.0864  0.0959  0.0305
   82loPI    C1 1297   4.459   3.010  10.522 -0.0902 -0.2473  0.1314
   82loPI    C2 1298   4.192   3.191  10.758  0.0273  0.0807  0.0179
   82loPI    C3 1299   4.514   3.015  10.918 -0.1076 -0.0641  0.1323
   82loPI   PO4 1300   4.545   3.186  10.418  0.1219  0.1406  0.3342
   82loPI   GL1 1301   4.613   3.261   9.945 -0.1447  0.0195 -0.2333
   82loPI   GL2 1302   4.919   3.416   9.837  0.1320 -0.0215 -0.2489
   82loPI   C1A 1303   4.672   3.198   9.475 -0.0908 -0.2393  0.3872
   82loPI   C2A 1304   4.813   3.130   8.941 -0.1094 -0.0806 -0.1530
   82loPI   C3A 1305   4.759   3.166   8.526 -0.0603  0.1555 -0.3012
   82loPI   C4A 1306   4.656   3.261   8.016  0.2803 -0.0820 -0.0981
   82loPI   C5A 1307   4.546   3.562   7.820 -0.1197  0.1953 -0.0736
   82loPI   C6A 1308   4.652   3.950   7.760 -0.3418 -0.0158  0.2285
   82loPI   C1B 1309   5.158   3.420   9.453  0.1077  0.0865  0.0719
   82loPI   C2B 1310   5.270   3.386   9.032 -0.0602  0.0880  0.0554
   82loPI   C3B 1311   5.179   3.423   8.588 -0.2436  0.1978  0.4783
   82loPI   C4B 1312   5.116   3.356   8.111 -0.0781 -0.1582 -0.1529
   83loPI    C1 1313   8.836  10.128  11.213  0.2073 -0.0218  0.0775
   83loPI    C2 1314   8.707  10.011  11.573  0.0143  0.1641  0.0709
   83loPI    C3 1315   9.099  10.054  11.505  0.0587  0.0083  0.2205
   83loPI   PO4 1316   8.852   9.941  10.990  0.0912  0.0056  0.0119
   83loPI   GL1 1317   8.643  10.068  10.698 -0.0915  0.0818  0.0978
   83loPI   GL2 1318   8.569   9.791  10.460 -0.1031  0.2057  0.1881
   83loPI   C1A 1319   8.452  10.280  10.333 -0.2508 -0.0091 -0.0741
   83loPI   C2A 1320   8.316  10.249  10.004 -0.2050  0.1486 -0.1783
   83loPI   C3A 1321   8.207  10.087   9.645  0.1047  0.4212 -0.0181
   83loPI   C4A 1322   8.313  10.066   9.197 -0.1287 -0.3002  0.0438
   83loPI   C5A 1323   8.256  10.063   8.739  0.0630  0.1224 -0.2282
   83loPI   C6A 1324   8.287  10.184   8.349  0.1650  0.0144  0.2493
   83loPI   C1B 1325   8.669   9.908   9.921  0.1482 -0.2917 -0.3207
   83loPI   C2B 1326   8.722   9.803   9.459 -0.1725  0.3129  0.1538
   83loPI   C3B 1327   8.732   9.879   8.980  0.3121 -0.0495 -0.1615
   83loPI   C4B 1328   8.685   9.910   8.504  0.0412  0.2639 -0.2180
   84loPI    C1 1329   1.324   8.573  10.332  0.3568  0.1284  0.0582
   84loPI    C2 1330   1.352   8.206  10.488  0.0932  0.0828  0.0028
   84loPI    C3 1331   1.135   8.486  10.673 -0.0498  0.0886 -0.1715
   84loPI   PO4 1332   1.572   8.641  10.241 -0.0110 -0.1286  0.0531
   84loPI   GL1 1333   1.806   8.567   9.903 -0.0908  0.1105  0.1840
   84loPI   GL2 1334   1.480   8.690   9.757 -0.0248  0.2264 -0.1691
   84loPI   C1A 1335   1.834   8.540   9.425 -0.1576  0.0855 -0.0563
   84loPI   C2A 1336   1.698   8.586   9.044  0.1247  0.1000  0.0727
   84loPI   C3A 1337   1.705   8.659   8.694  0.2798 -0.0136  0.2696
   84loPI   C4A 1338   1.873   8.483   8.229  0.4110 -0.0035  0.1861
   84loPI   C5A 1339   1.968   8.479   7.839  0.0321  0.1542  0.2123
   84loPI   C6A 1340   2.025   8.977   7.704  0.1837  0.3139  0.0819
   84loPI   C1B 1341   1.357   8.490   9.465 -0.0177  0.4391  0.2888
   84loPI   C2B 1342   1.224   8.402   8.995 -0.2096 -0.1534 -0.0827
   84loPI   C3B 1343   1.195   8.448   8.553 -0.1159 -0.0745  0.0401
   84loPI   C4B 1344   1.336   8.444   8.089  0.4454  0.0147  0.1041
   85loPI    C1 1345  15.903  13.018  10.947 -0.0359  0.0879 -0.0414
   85loPI    C2 1346  16.100  13.361  11.005  0.1127  0.0066 -0.0609
   85loPI    C3 1347  16.200  13.122  10.700 -0.0034 -0.0449 -0.0589
   85loPI   PO4 1348  15.714  13.072  10.791 -0.1356 -0.2086  0.1526
   85loPI   GL1 1349  15.775  13.317  10.568 -0.1882  0.1822 -0.2621
   85loPI   GL2 1350  15.834  13.563  10.618 -0.2673 -0.0871  0.0137
   85loPI   C1A 1351  15.678  13.431  10.193 -0.3268 -0.0519  0.0100
   85loPI   C2A 1352  15.675  13.511   9.820  0.1900  0.1792  0.1143
   85loPI   C3A 1353  15.624  13.439   9.364  0.0926  0.2054 -0.0901
   85loPI   C4A 1354  15.651  13.457   8.887  0.0155 -0.2972  0.3416
   85loPI   C5A 1355  15.713  13.391   8.513  0.2868 -0.1691 -0.0684
   85loPI   C6A 1356  15.518  13.418   8.076 -0.1862 -0.0784  0.1674
   85loPI   C1B 1357  15.942  13.815  10.162  0.2116  0.2627  0.0010
   85loPI   C2B 1358  16.138  13.710   9.765  0.3469  0.1834 -0.0567
   85loPI   C3B 1359  16.177  13.806   9.316  0.2470 -0.3246 -0.0082
   85loPI   C4B 1360  16.129  13.688   8.918  0.0705  0.1261  0.0194
   86loPI    C1 1361  13.473  14.176  10.946 -0.1352  0.0074 -0.1166
   86loPI    C2 1362  13.726  14.343  10.686  0.0923 -0.1550 -0.0042
   86loPI    C3 1363  13.688  13.945  10.700  0.2902 -0.1648  0.3954
   86loPI   PO4 1364  13.268  14.210  10.920 -0.4242  0.0932  0.1224
   86loPI   GL1 1365  12.988  14.205  10.557 -0.1900 -0.0566 -0.2388
   86loPI   GL2 1366  13.339  14.126  10.403 -0.0344  0.0091  0.0689
   86loPI   C1A 1367  12.876  14.042  10.235  0.3200 -0.1193 -0.2961
   86loPI   C2A 1368  12.978  13.991   9.848  0.0251  0.0408 -0.1064
   86loPI   C3A 1369  12.985  14.111   9.370  0.0467  0.3032  0.1764
   86loPI   C4A 1370  13.001  14.064   8.996  0.0160  0.2134 -0.2374
   86loPI   C5A 1371  13.019  14.224   8.617  0.2689  0.6750 -0.1436
   86loPI   C6A 1372  13.173  14.319   8.286  0.1115  0.1370  0.0547
   86loPI   C1B 1373  13.452  14.249   9.996 -0.2148 -0.1035 -0.0270
   86loPI   C2B 1374  13.440  14.261   9.595  0.2767 -0.0402 -0.0673
   86loPI   C3B 1375  13.407  14.354   9.159 -0.0514  0.0257 -0.0706
   86loPI   C4B 1376  13.473  14.404   8.794  0.0990 -0.1482  0.1464
   87loPI    C1 1377   4.967   0.382  10.758  0.0082  0.0559 -0.1473
   87loPI    C2 1378   5.079   0.005  10.829  0.1460  0.1327  0.0522
   87loPI    C3 1379   4.794   0.174  11.053  0.0012  0.1097 -0.1132
   87loPI   PO4 1380   4.947   0.346  10.469  0.0075  0.1576  0.0989
   87loPI   GL1 1381   5.235   0.400  10.155  0.0480 -0.3130 -0.0052
   87loPI   GL2 1382   5.396   0.107  10.374 -0.2088 -0.2744 -0.0775
   87loPI   C1A 1383   5.132   0.356   9.705  0.4245 -0.0384 -0.0785
   87loPI   C2A 1384   5.106   0.285   9.278  0.2136  0.0182  0.0083
   87loPI   C3A 1385   5.121   0.255   8.733  0.1434 -0.0174 -0.1499
   87loPI   C4A 1386   5.173   0.306   8.290 -0.1845  0.0700 -0.1220
   87loPI   C5A 1387   5.384   0.123   8.003 -0.1044  0.0194  0.1652
   87loPI   C6A 1388   5.784   0.056   7.961  0.2260 -0.0223 -0.0792
   87loPI   C1B 1389   5.520   0.123   9.911 -0.0260 -0.0298 -0.1944
   87loPI   C2B 1390   5.492   0.013   9.451 -0.0123  0.0411 -0.0137
   87loPI   C3B 1391   5.454   0.030   9.005  0.1385 -0.0279 -0.1060
   87loPI   C4B 1392   5.554  -0.002   8.490  0.0115  0.2728  0.0554
   88loPI    C1 1393   2.300   7.956  10.316  0.0795 -0.0317  0.0766
   88loPI    C2 1394   2.652   7.826  10.455  0.1779  0.1112 -0.0362
   88loPI    C3 1395   2.452   8.111  10.652  0.2553  0.2216 -0.1159
   88loPI   PO4 1396   2.379   7.966  10.047 -0.1591  0.2238  0.1060
   88loPI   GL1 1397   2.678   7.686   9.810 -0.0038  0.3699  0.1902
   88loPI   GL2 1398   2.939   7.499   9.777  0.3156 -0.0630  0.2277
   88loPI   C1A 1399   2.586   7.906   9.445  0.3608 -0.0505 -0.0467
   88loPI   C2A 1400   2.660   7.928   9.053 -0.0868 -0.0689  0.2267
   88loPI   C3A 1401   2.696   7.915   8.712 -0.0545 -0.1903  0.2783
   88loPI   C4A 1402   2.745   7.885   8.224 -0.0415  0.0926 -0.1619
   88loPI   C5A 1403   2.768   8.055   7.818 -0.3622  0.2146 -0.0482
   88loPI   C6A 1404   2.789   8.431   7.745  0.1825  0.2735 -0.1573
   88loPI   C1B 1405   3.006   7.583   9.337 -0.0294 -0.0412  0.2518
   88loPI   C2B 1406   3.015   7.545   8.846 -0.0418  0.1570 -0.0068
   88loPI   C3B 1407   3.060   7.581   8.396  0.2123  0.0353  0.2226
   88loPI   C4B 1408   3.148   7.586   8.051  0.0013 -0.1614  0.0071
   89loPI    C1 1409   2.899  13.992  11.137 -0.2480 -0.2200  0.0152
   89loPI    C2 1410   3.118  13.913  11.462 -0.2952 -0.1153  0.0726
   89loPI    C3 1411   2.927  14.263  11.429  0.0972  0.0730 -0.2805
   89loPI   PO4 1412   2.967  13.700  10.978 -0.1432 -0.0870 -0.0672
   89loPI   GL1 1413   2.701  13.535  10.612  0.0371 -0.1506 -0.0200
   89loPI   GL2 1414   2.774  13.873  10.563 -0.1838 -0.4583 -0.2098
   89loPI   C1A 1415   3.032  13.561  10.265 -0.1924  0.0950  0.3050
   89loPI   C2A 1416   3.103  13.493   9.833  0.1346 -0.2764  0.1443
   89loPI   C3A 1417   3.050  13.593   9.372 -0.4014 -0.0205  0.2848
   89loPI   C4A 1418   3.022  13.604   8.980 -0.3253  0.1096 -0.1938
   89loPI   C5A 1419   3.167  13.527   8.594  0.0108 -0.2850  0.0913
   89loPI   C6A 1420   3.437  13.151   8.580 -0.1280 -0.2106 -0.1036
   89loPI   C1B 1421   2.637  13.803  10.071  0.1560  0.3373  0.6382
   89loPI   C2B 1422   2.667  13.737   9.713 -0.2909 -0.2359 -0.0183
   89loPI   C3B 1423   2.563  13.849   9.374 -0.0557  0.0103 -0.0500
   89loPI   C4B 1424   2.509  13.864   8.906 -0.2513  0.2793  0.2526
   90loPI    C1 1425  14.990   0.145  10.959 -0.0260 -0.4194  0.2494
   90loPI    C2 1426  14.857   0.521  10.985 -0.1489 -0.4108 -0.3722
   90loPI    C3 1427  14.737   0.248  11.251  0.0298  0.0071  0.1531
   90loPI   PO4 1428  14.957   0.074  10.738  0.0252 -0.0981  0.0256
   90loPI   GL1 1429  15.095  -0.046  10.292 -0.0836  0.4005 -0.3163
   90loPI   GL2 1430  15.409  -0.120  10.145 -0.0057 -0.0207  0.0459
   90loPI   C1A 1431  15.013  -0.253   9.887  0.1836  0.1465  0.3751
   90loPI   C2A 1432  14.878  -0.218   9.550  0.0141 -0.0083 -0.0178
   90loPI   C3A 1433  14.978  -0.263   9.121  0.3091  0.0659 -0.0653
   90loPI   C4A 1434  15.014  -0.209   8.652  0.0991 -0.1230 -0.0042
   90loPI   C5A 1435  14.924  -0.134   8.222  0.1035 -0.2184 -0.0368
   90loPI   C6A 1436  14.502  -0.146   7.900  0.3072 -0.1627  0.0990
   90loPI   C1B 1437  15.421   0.008   9.698 -0.0473  0.1803  0.3501
   90loPI   C2B 1438  15.436  -0.009   9.280  0.0905  0.1503  0.0490
   90loPI   C3B 1439  15.411   0.059   8.842 -0.2273  0.2078 -0.1208
   90loPI   C4B 1440  15.438   0.087   8.408  0.3498 -0.0526  0.0464
   91loPI    C1 1441   7.558   6.306  10.884  0.2304  0.1354  0.1364
   91loPI    C2 1442   7.185   6.444  10.933  0.0854 -0.0920 -0.2721
   91loPI    C3 1443   7.311   6.128  11.143  0.1587  0.1760  0.0964
   91loPI   PO4 1444   7.635   6.372  10.618 -0.0706 -0.3428  0.0613
   91loPI   GL1 1445   7.636   6.444  10.205  0.1860  0.0033  0.2521
   91loPI   GL2 1446   7.925   6.280  10.114 -0.0286 -0.1474  0.4692
   91loPI   C1A 1447   7.637   6.661   9.821  0.0507 -0.0297 -0.1183
   91loPI   C2A 1448   7.692   6.854   9.454  0.1821  0.1589 -0.1406
   91loPI   C3A 1449   7.657   6.798   9.055 -0.1039 -0.2180 -0.0961
   91loPI   C4A 1450   7.661   6.783   8.544  0.0880 -0.0815  0.2128
   91loPI   C5A 1451   7.692   6.817   8.156  0.0930 -0.0594  0.1755
   91loPI   C6A 1452   7.983   6.681   7.837  0.2897  0.0656 -0.0493
   91loPI   C1B 1453   8.064   6.459   9.600  0.1169  0.0444  0.2853
   91loPI   C2B 1454   8.163   6.462   9.154 -0.1772 -0.3854 -0.5679
   91loPI   C3B 1455   8.190   6.428   8.696 -0.0077 -0.1389  0.0041
   91loPI   C4B 1456   8.172   6.502   8.324 -0.1464 -0.2597 -0.0661
   92loPI    C1 1457  13.983   0.100  10.836  0.0199 -0.1172 -0.1906
   92loPI    C2 1458  13.743   0.244  11.122  0.0076  0.0970 -0.3070
   92loPI    C3 1459  14.112   0.118  11.215 -0.0778 -0.0490 -0.1602
   92loPI   PO4 1460  14.096   0.276  10.582 -0.0666  0.0566 -0.1397
   92loPI   GL1 1461  14.045   0.213  10.067 -0.1094  0.2456 -0.2089
   92loPI   GL2 1462  14.040  -0.146  10.006 -0.2346  0.4926 -0.0117
   92loPI   C1A 1463  13.915   0.360   9.683 -0.0569  0.0377 -0.1470
   92loPI   C2A 1464  14.004   0.260   9.280  0.1328 -0.1383 -0.0862
   92loPI   C3A 1465  14.071   0.286   8.866  0.0510 -0.2782  0.0897
   92loPI   C4A 1466  14.153   0.363   8.510  0.2207  0.0537 -0.0549
   92loPI   C5A 1467  14.184   0.267   8.122  0.1994 -0.0463  0.5062
   92loPI   C6A 1468  14.342   0.374   7.762  0.5598  0.5151 -0.0420
   92loPI   C1B 1469  13.946  -0.109   9.578 -0.1543 -0.0166 -0.2001
   92loPI   C2B 1470  14.094  -0.192   9.061 -0.0059  0.0362  0.2534
   92loPI   C3B 1471  14.112  -0.107   8.628 -0.1537  0.2245  0.0886
   92loPI   C4B 1472  14.101  -0.257   8.177 -0.2188  0.2673  0.1816
   93loPI    C1 1473   5.156  12.388  11.300 -0.1695 -0.0719 -0.2378
   93loPI    C2 1474   5.339  12.434  11.653 -0.0520 -0.0663 -0.2992
   93loPI    C3 1475   4.940  12.459  11.630 -0.0606 -0.0742 -0.1656
   93loPI   PO4 1476   5.394  12.372  11.153  0.1129  0.3454 -0.2241
   93loPI   GL1 1477   5.518  12.316  10.819 -0.2820 -0.0506  0.1601
   93loPI   GL2 1478   5.208  12.257  10.611 -0.1971 -0.3507 -0.1823
   93loPI   C1A 1479   5.667  12.330  10.369  0.0152 -0.1769  0.0946
   93loPI   C2A 1480   5.750  12.329   9.928 -0.0036 -0.0956  0.0254
   93loPI   C3A 1481   5.731  12.320   9.573 -0.0995  0.0853 -0.1552
   93loPI   C4A 1482   5.755  12.312   9.296  0.0562 -0.1890 -0.1552
   93loPI   C5A 1483   5.681  12.379   8.921 -0.2193  0.1931  0.0135
   93loPI   C6A 1484   5.546  12.506   8.460 -0.1468 -0.0814  0.0402
   93loPI   C1B 1485   5.311  12.068  10.125  0.2453 -0.1621 -0.0887
   93loPI   C2B 1486   5.278  12.074   9.663 -0.1548  0.0864  0.2811
   93loPI   C3B 1487   5.272  12.049   9.214 -0.3602  0.1565 -0.0384
   93loPI   C4B 1488   5.255  12.160   8.873  0.2149 -0.1789  0.0429
   94loPI    C1 1489   6.083  16.835  10.897  0.0588 -0.0261  0.1301
   94loPI    C2 1490   5.974  16.997  11.246  0.0512  0.2019  0.0235
   94loPI    C3 1491   6.355  16.889  11.186 -0.0158 -0.1659  0.2277
   94loPI   PO4 1492   6.035  17.049  10.718  0.0071 -0.0607 -0.4659
   94loPI   GL1 1493   6.183  17.081  10.362  0.3374 -0.0813 -0.0934
   94loPI   GL2 1494   5.818  17.115  10.278 -0.0505 -0.1419 -0.2045
   94loPI   C1A 1495   6.283  16.861   9.984 -0.1357 -0.2839 -0.1289
   94loPI   C2A 1496   6.411  16.853   9.574  0.1694  0.0835  0.1241
   94loPI   C3A 1497   6.362  16.782   9.287 -0.0646 -0.2477 -0.1430
   94loPI   C4A 1498   6.368  16.809   8.996 -0.1683 -0.0304 -0.0675
   94loPI   C5A 1499   6.367  16.773   8.563  0.0914 -0.0436  0.1858
   94loPI   C6A 1500   6.470  16.745   8.171  0.0758  0.0267 -0.0557
   94loPI   C1B 1501   5.939  17.194   9.866  0.1824  0.0962  0.2478
   94loPI   C2B 1502   5.931  17.066   9.413  0.2899  0.1892 -0.1206
   94loPI   C3B 1503   5.904  17.110   9.052  0.3205  0.2099 -0.0169
   94loPI   C4B 1504   5.847  17.133   8.598 -0.2870 -0.1389  0.0216
   95loPI    C1 1505   2.577   1.299  10.886 -0.0786  0.1085  0.0975
   95loPI    C2 1506   2.861   1.263  11.166  0.1203 -0.0394 -0.1194
   95loPI    C3 1507   2.581   0.980  11.128  0.0297  0.0337 -0.0011
   95loPI   PO4 1508   2.731   1.317  10.656 -0.2410 -0.1844 -0.0963
   95loPI   GL1 1509   2.801   1.298  10.205  0.0224 -0.0254 -0.0158
   95loPI   GL2 1510   2.804   0.973  10.048 -0.0580  0.0032  0.1727
   95loPI   C1A 1511   2.767   1.327   9.710 -0.3205 -0.3361  0.1758
   95loPI   C2A 1512   2.875   1.203   9.247  0.0476  0.2199  0.3007
   95loPI   C3A 1513   2.848   1.167   8.884  0.0785  0.0115 -0.2669
   95loPI   C4A 1514   2.897   1.124   8.585  0.1188  0.0558 -0.1548
   95loPI   C5A 1515   2.986   1.127   8.208  0.1128 -0.0119  0.1652
   95loPI   C6A 1516   3.072   0.768   7.879  0.0156  0.2429  0.1926
   95loPI   C1B 1517   2.840   0.747   9.690  0.0508 -0.0964 -0.0604
   95loPI   C2B 1518   2.907   0.643   9.261 -0.0171 -0.0850  0.1005
   95loPI   C3B 1519   2.817   0.668   8.845  0.0276 -0.3354  0.0710
   95loPI   C4B 1520   2.945   0.668   8.343 -0.0702  0.2374 -0.0154
   96loPI    C1 1521   6.370  12.662  11.172  0.0389  0.0615 -0.0887
   96loPI    C2 1522   6.146  12.668  11.504  0.0367  0.0701 -0.0903
   96loPI    C3 1523   6.364  12.344  11.415 -0.1461 -0.0238 -0.2027
   96loPI   PO4 1524   6.290  12.735  11.040 -0.2182 -0.0742  0.0729
   96loPI   GL1 1525   5.967  12.591  10.656 -0.1221  0.0545  0.1038
   96loPI   GL2 1526   5.960  12.880  10.477 -0.4988  0.0712  0.1888
   96loPI   C1A 1527   6.174  12.356  10.439  0.3165  0.0256  0.0432
   96loPI   C2A 1528   6.207  12.490  10.024  0.0532  0.2622  0.3232
   96loPI   C3A 1529   6.200  12.564   9.596 -0.5055  0.3409 -0.2964
   96loPI   C4A 1530   6.176  12.562   9.151  0.0536 -0.0112  0.2487
   96loPI   C5A 1531   6.076  12.646   8.658 -0.2655 -0.2475 -0.0615
   96loPI   C6A 1532   5.945  12.866   8.302  0.0725  0.1329 -0.0336
   96loPI   C1B 1533   5.792  12.926   9.970 -0.2087 -0.1421 -0.1069
   96loPI   C2B 1534   5.761  12.841   9.525 -0.1394  0.0427 -0.3570
   96loPI   C3B 1535   5.678  12.887   9.037  0.1153 -0.1769  0.0499
   96loPI   C4B 1536   5.653  13.017   8.652 -0.2935  0.1487  0.1874
   97loPI    C1 1537   6.093   4.559  10.845 -0.2739  0.1134  0.0457
   97loPI    C2 1538   6.190   4.559  11.233 -0.2184 -0.1857  0.0341
   97loPI    C3 1539   5.826   4.679  11.117 -0.1919  0.0259  0.1659
   97loPI   PO4 1540   6.306   4.713  10.693  0.1120  0.0479  0.3773
   97loPI   GL1 1541   6.461   4.978  10.360 -0.1236  0.0942 -0.1593
   97loPI   GL2 1542   6.550   4.701  10.191 -0.0866  0.0518  0.2312
   97loPI   C1A 1543   6.186   5.123   9.955 -0.1123  0.0145 -0.1209
   97loPI   C2A 1544   6.052   4.945   9.636 -0.0286  0.0549  0.0409
   97loPI   C3A 1545   6.108   4.959   9.135  0.1016 -0.0975 -0.2020
   97loPI   C4A 1546   6.195   4.905   8.661 -0.0840 -0.2078 -0.2252
   97loPI   C5A 1547   6.183   5.015   8.304 -0.2900 -0.3204  0.0933
   97loPI   C6A 1548   6.352   4.833   7.956  0.0816  0.3241  0.0322
   97loPI   C1B 1549   6.750   4.936   9.977 -0.1690 -0.3337  0.0845
   97loPI   C2B 1550   6.610   5.173   9.579 -0.0314  0.1701 -0.0780
   97loPI   C3B 1551   6.661   5.233   9.119  0.2959  0.0758 -0.0306
   97loPI   C4B 1552   6.651   5.108   8.663  0.1470  0.2095  0.2891
   98loPI    C1 1553   8.638   6.642  10.941 -0.2417  0.1199 -0.1393
   98loPI    C2 1554   8.517   7.012  11.032 -0.0506  0.0929  0.2449
   98loPI    C3 1555   8.532   6.731  11.316 -0.1523 -0.2011 -0.0341
   98loPI   PO4 1556   8.468   6.643  10.686 -0.0415  0.2540 -0.1624
   98loPI   GL1 1557   8.520   6.775  10.197  0.0574 -0.0649  0.2057
   98loPI   GL2 1558   8.183   6.722  10.014 -0.2578  0.1108 -0.1894
   98loPI   C1A 1559   8.589   6.734   9.677 -0.0842 -0.1476  0.2543
   98loPI   C2A 1560   8.584   6.688   9.220 -0.3116  0.1648 -0.2996
   98loPI   C3A 1561   8.621   6.687   8.784 -0.1032 -0.0123  0.0085
   98loPI   C4A 1562   8.638   6.718   8.293  0.1356 -0.2744  0.2779
   98loPI   C5A 1563   8.792   6.845   7.955  0.0591  0.0266  0.2819
   98loPI   C6A 1564   9.230   6.906   7.882  0.2065 -0.2866 -0.1680
   98loPI   C1B 1565   8.078   6.979   9.725  0.0210  0.0810 -0.2518
   98loPI   C2B 1566   8.156   7.002   9.263  0.1970 -0.0482 -0.3772
   98loPI   C3B 1567   8.154   7.018   8.902  0.1773 -0.0980  0.1142
   98loPI   C4B 1568   8.103   7.021   8.357  0.1750  0.0676 -0.2361
   99loPI    C1 1569   6.486  14.892  11.183  0.0772  0.1533  0.0077
   99loPI    C2 1570   6.439  14.517  11.314  0.1167  0.1321 -0.0384
   99loPI    C3 1571   6.430  14.822  11.573 -0.1308  0.1175 -0.0271
   99loPI   PO4 1572   6.653  14.865  10.964  0.0724 -0.1543  0.1043
   99loPI   GL1 1573   6.683  14.701  10.606 -0.0047 -0.0531 -0.0717
   99loPI   GL2 1574   6.676  14.346  10.726 -0.1813 -0.1963  0.2524
   99loPI   C1A 1575   6.650  14.960  10.147  0.1404 -0.1518  0.1723
   99loPI   C2A 1576   6.716  14.948   9.716 -0.1786 -0.1768 -0.0296
   99loPI   C3A 1577   6.823  14.918   9.336 -0.1283  0.0003  0.5363
   99loPI   C4A 1578   6.718  14.975   8.918 -0.1780  0.2322 -0.1133
   99loPI   C5A 1579   6.741  14.914   8.450  0.1084 -0.1783 -0.3292
   99loPI   C6A 1580   6.699  15.108   7.989  0.2939 -0.2073  0.0728
   99loPI   C1B 1581   6.576  14.307  10.208 -0.3539  0.0137 -0.3433
   99loPI   C2B 1582   6.676  14.425   9.761  0.1269  0.0324 -0.0003
   99loPI   C3B 1583   6.688  14.393   9.361  0.1786 -0.1956  0.1520
   99loPI   C4B 1584   6.826  14.406   8.964 -0.0182  0.1643 -0.1259
  100loPI    C1 1585   0.851   8.186  10.238 -0.2095  0.0089  0.0364
  100loPI    C2 1586   0.928   7.912   9.957 -0.0234  0.1299 -0.0326
  100loPI    C3 1587   0.664   7.833  10.247 -0.0781 -0.0663 -0.1344
  100loPI   PO4 1588   0.875   8.403  10.142 -0.2062 -0.1995 -0.0385
  100loPI   GL1 1589   0.985   8.529   9.805  0.1662  0.0184  0.0183
  100loPI   GL2 1590   0.853   8.225   9.599  0.1918 -0.0709 -0.1463
  100loPI   C1A 1591   0.844   8.752   9.463  0.4672  0.1265 -0.5212
  100loPI   C2A 1592   0.780   8.720   9.021  0.3534 -0.2384  0.1379
  100loPI   C3A 1593   0.827   8.791   8.661 -0.6172  0.0934 -0.3127
  100loPI   C4A 1594   0.751   8.564   8.294  0.0194 -0.4110  0.3603
  100loPI   C5A 1595   0.950   8.392   7.869  0.0268  0.1690 -0.1322
  100loPI   C6A 1596   1.030   7.956   7.695 -0.2288  0.6307  0.1306
  100loPI   C1B 1597   0.841   8.179   9.193 -0.0840  0.0981 -0.3049
  100loPI   C2B 1598   0.818   8.154   8.749  0.1726  0.1462  0.0495
  100loPI   C3B 1599   0.669   8.062   8.331  0.2297 -0.0100  0.1080
  100loPI   C4B 1600   0.555   7.976   7.949 -0.1179  0.0260 -0.2006
  101loPI    C1 1601  15.877  10.369  10.755  0.3102 -0.0094  0.0232
  101loPI    C2 1602  15.795  10.044  10.972 -0.0804 -0.1312 -0.2933
  101loPI    C3 1603  16.171  10.178  10.947  0.0221 -0.3099  0.1753
  101loPI   PO4 1604  15.731  10.364  10.616 -0.1585 -0.2701 -0.1064
  101loPI   GL1 1605  15.842  10.465  10.243  0.1377  0.2573  0.1050
  101loPI   GL2 1606  15.672  10.698  10.258  0.1658 -0.0236  0.0236
  101loPI   C1A 1607  16.045  10.554   9.873 -0.0449 -0.1040  0.0706
  101loPI   C2A 1608  15.991  10.565   9.446  0.0963  0.1846 -0.0637
  101loPI   C3A 1609  15.868  10.604   9.031  0.0603  0.1132  0.4921
  101loPI   C4A 1610  15.942  10.635   8.573 -0.0252 -0.0114  0.0849
  101loPI   C5A 1611  15.991  10.497   8.118 -0.3946  0.0666  0.0373
  101loPI   C6A 1612  15.813  10.104   7.997 -0.2058  0.0687  0.0758
  101loPI   C1B 1613  15.609  10.818   9.929  0.1302  0.0382 -0.0212
  101loPI   C2B 1614  15.578  10.981   9.606  0.0883  0.1155  0.1742
  101loPI   C3B 1615  15.532  10.895   9.208  0.2101 -0.0595  0.1869
  101loPI   C4B 1616  15.459  10.824   8.764  0.0476 -0.2083  0.0729
  102loPI    C1 1617  16.908  15.850  11.103 -0.1043 -0.1088  0.0380
  102loPI    C2 1618  16.576  15.837  11.326 -0.0937 -0.0835  0.0553
  102loPI    C3 1619  16.931  15.904  11.499 -0.0795 -0.1102  0.0367
  102loPI   PO4 1620  16.919  15.657  10.838  0.0058  0.1436 -0.2979
  102loPI   GL1 1621  16.861  15.671  10.406  0.0480 -0.0231 -0.1476
  102loPI   GL2 1622  16.516  15.604  10.233  0.2395 -0.3969  0.4141
  102loPI   C1A 1623  16.949  15.791  10.019 -0.0216 -0.1343  0.1240
  102loPI   C2A 1624  16.974  15.682   9.587  0.0072 -0.3130 -0.0609
  102loPI   C3A 1625  17.057  15.708   9.175 -0.3277  0.2144 -0.2384
  102loPI   C4A 1626  16.994  15.740   8.845  0.1822 -0.3078 -0.2092
  102loPI   C5A 1627  17.171  15.773   8.473 -0.1079  0.1671 -0.0909
  102loPI   C6A 1628  17.424  15.919   8.134  0.2509 -0.3214 -0.0481
  102loPI   C1B 1629  16.533  15.493   9.757 -0.4472  0.1840 -0.3525
  102loPI   C2B 1630  16.569  15.471   9.406 -0.0170  0.0445 -0.0487
  102loPI   C3B 1631  16.570  15.507   8.999  0.4342 -0.0697  0.5410
  102loPI   C4B 1632  16.679  15.543   8.549  0.2430 -0.0979 -0.1090
  103loPI    C1 1633  16.559  14.508  11.047  0.1801  0.2529  0.1288
  103loPI    C2 1634  16.884  14.300  11.151  0.0148 -0.1445 -0.1228
  103loPI    C3 1635  16.626  14.423  11.432  0.2948  0.0327  0.0618
  103loPI   PO4 1636  16.505  14.393  10.868 -0.2690 -0.0912  0.3784
  103loPI   GL1 1637  16.395  14.428  10.435 -0.1413  0.0921 -0.0770
  103loPI   GL2 1638  16.564  14.416  10.179 -0.3071 -0.0643  0.1128
  103loPI   C1A 1639  16.100  14.669  10.093 -0.1146 -0.0616 -0.1367
  103loPI   C2A 1640  16.138  14.894   9.693 -0.0571 -0.1549  0.0851
  103loPI   C3A 1641  16.177  14.780   9.355 -0.0547  0.0057 -0.2233
  103loPI   C4A 1642  16.151  14.697   8.939 -0.1050 -0.0339  0.1161
  103loPI   C5A 1643  16.213  14.789   8.597  0.3074  0.0466  0.4814
  103loPI   C6A 1644  16.512  14.858   8.191 -0.0976 -0.0299  0.1051
  103loPI   C1B 1645  16.485  14.509   9.787  0.1345  0.0037 -0.1726
  103loPI   C2B 1646  16.526  14.402   9.287  0.4015 -0.2736 -0.4143
  103loPI   C3B 1647  16.567  14.557   8.906 -0.4123  0.0744  0.2493
  103loPI   C4B 1648  16.645  14.468   8.475  0.1328  0.0369 -0.1402
  104loPI    C1 1649   7.605  15.004  11.419 -0.0859  0.2830  0.2537
  104loPI    C2 1650   7.632  14.700  11.677  0.2730  0.1390  0.0526
  104loPI    C3 1651   7.315  14.943  11.689  0.1444 -0.0382  0.4356
  104loPI   PO4 1652   7.677  14.835  11.142 -0.0286  0.3498  0.1805
  104loPI   GL1 1653   7.728  14.769  10.707  0.2802 -0.3549 -0.2307
  104loPI   GL2 1654   7.974  14.526  10.504 -0.1264  0.3255 -0.3002
  104loPI   C1A 1655   7.547  15.041  10.337 -0.1530 -0.0055  0.3894
  104loPI   C2A 1656   7.591  14.961   9.801  0.0611  0.2701 -0.1902
  104loPI   C3A 1657   7.659  14.929   9.371 -0.1464  0.2025  0.1361
  104loPI   C4A 1658   7.673  14.882   8.942 -0.0985  0.2047  0.0286
  104loPI   C5A 1659   7.588  15.108   8.590 -0.1052  0.2103  0.0964
  104loPI   C6A 1660   7.608  15.118   8.171 -0.1883  0.3798 -0.3813
  104loPI   C1B 1661   7.964  14.670  10.089  0.4168  0.2273  0.2750
  104loPI   C2B 1662   8.063  14.690   9.646  0.4477  0.2029 -0.3889
  104loPI   C3B 1663   8.042  14.640   9.165  0.1009  0.0638  0.4113
  104loPI   C4B 1664   8.095  14.633   8.745 -0.0943  0.2400  0.1829
  105loPI    C1 1665  11.541  16.963  10.623  0.1407 -0.0613  0.1864
  105loPI    C2 1666  11.568  17.353  10.535  0.0099 -0.0864  0.0311
  105loPI    C3 1667  11.540  17.235  10.917  0.1770  0.0481  0.0860
  105loPI   PO4 1668  11.359  16.878  10.518 -0.4107 -0.0655 -0.1772
  105loPI   GL1 1669  11.301  16.944  10.151  0.1192 -0.1074  0.0686
  105loPI   GL2 1670  11.361  17.299  10.124  0.0160  0.2586 -0.1331
  105loPI   C1A 1671  11.375  16.728   9.791  0.1932 -0.1283  0.4093
  105loPI   C2A 1672  11.279  16.856   9.481  0.1121 -0.2337  0.1513
  105loPI   C3A 1673  11.394  16.916   8.961  0.0082 -0.1274 -0.2981
  105loPI   C4A 1674  11.429  16.888   8.593  0.0179 -0.2008  0.1264
  105loPI   C5A 1675  11.457  16.538   8.255 -0.0384 -0.0968  0.2943
  105loPI   C6A 1676  11.628  16.611   7.845  0.1079 -0.2098  0.4140
  105loPI   C1B 1677  11.326  17.299   9.688 -0.2445 -0.0519  0.1121
  105loPI   C2B 1678  11.320  17.330   9.289 -0.2487  0.0621 -0.1029
  105loPI   C3B 1679  11.420  17.440   8.866  0.2247 -0.0413  0.0822
  105loPI   C4B 1680  11.325  17.362   8.366 -0.0695 -0.0997 -0.0731
  106loPI    C1 1681  10.890   9.376  10.810 -0.2348 -0.0838 -0.1448
  106loPI    C2 1682  10.590   9.552  11.008 -0.0405  0.0117  0.0680
  106loPI    C3 1683  10.784   9.242  11.172 -0.0108 -0.0383 -0.0611
  106loPI   PO4 1684  10.864   9.399  10.613 -0.0838 -0.0934  0.0253
  106loPI   GL1 1685  10.661   9.431  10.175 -0.2324  0.1892  0.1727
  106loPI   GL2 1686  10.403   9.638  10.062  0.1129 -0.1297  0.2283
  106loPI   C1A 1687  10.921   9.422   9.852 -0.1791 -0.3157  0.1699
  106loPI   C2A 1688  10.981   9.436   9.383  0.1820  0.1429  0.1354
  106loPI   C3A 1689  10.994   9.511   8.892 -0.3169 -0.2503 -0.2248
  106loPI   C4A 1690  11.001   9.564   8.466 -0.1708  0.1326 -0.3337
  106loPI   C5A 1691  11.111   9.362   8.192  0.2995 -0.0906  0.1257
  106loPI   C6A 1692  11.330   9.419   7.827  0.0055  0.1777  0.2531
  106loPI   C1B 1693  10.530   9.693   9.613 -0.1387 -0.3074 -0.1465
  106loPI   C2B 1694  10.562   9.758   9.206 -0.0017 -0.2121 -0.0607
  106loPI   C3B 1695  10.545   9.732   8.741  0.0734 -0.0402  0.0978
  106loPI   C4B 1696  10.602   9.827   8.395 -0.3655  0.3744 -0.2510
  107loPI    C1 1697   9.493   8.716  10.776 -0.0747 -0.1324  0.0423
  107loPI    C2 1698   9.891   8.702  10.811 -0.0569  0.0824 -0.0596
  107loPI    C3 1699   9.670   8.868  11.101 -0.0786 -0.0947  0.0267
  107loPI   PO4 1700   9.440   8.787  10.562  0.1466 -0.0873  0.0923
  107loPI   GL1 1701   9.856   8.833  10.240 -0.3256 -0.0004  0.3105
  107loPI   GL2 1702   9.631   8.649  10.091  0.0190 -0.1848 -0.2232
  107loPI   C1A 1703  10.012   8.843   9.877 -0.0740 -0.2184 -0.0524
  107loPI   C2A 1704  10.035   8.959   9.455  0.0359  0.2180  0.0673
  107loPI   C3A 1705  10.002   8.973   9.057 -0.2309  0.0143  0.6001
  107loPI   C4A 1706  10.008   8.993   8.582  0.2368  0.1004 -0.1041
  107loPI   C5A 1707  10.143   9.128   8.185  0.1469  0.2856  0.0061
  107loPI   C6A 1708   9.886   8.863   7.926 -0.0172 -0.0000  0.2336
  107loPI   C1B 1709   9.529   8.697   9.590  0.1520 -0.2406  0.0006
  107loPI   C2B 1710   9.535   8.794   9.151  0.0155 -0.1073 -0.0875
  107loPI   C3B 1711   9.604   8.762   8.783  0.0467  0.0370  0.1389
  107loPI   C4B 1712   9.588   8.800   8.360 -0.0598 -0.3586 -0.0239
  108loPI    C1 1713   0.809  11.372  10.624 -0.0576  0.2805 -0.0635
  108loPI    C2 1714   0.679  11.638  10.892 -0.0510  0.1355  0.0854
  108loPI    C3 1715   0.574  11.254  10.925 -0.1103  0.1286 -0.1630
  108loPI   PO4 1716   0.721  11.475  10.334 -0.1937 -0.1283 -0.0450
  108loPI   GL1 1717   0.702  11.409   9.899 -0.0051 -0.3256  0.0055
  108loPI   GL2 1718   0.723  11.346   9.550  0.1407 -0.1817 -0.2477
  108loPI   C1A 1719   0.278  11.593   9.651  0.2233 -0.3617 -0.3778
  108loPI   C2A 1720   0.222  11.637   9.254  0.2760  0.1555 -0.1020
  108loPI   C3A 1721   0.217  11.713   8.911  0.1355 -0.0418 -0.2613
  108loPI   C4A 1722   0.194  11.694   8.439 -0.0742 -0.0099  0.2739
  108loPI   C5A 1723   0.153  11.976   8.080 -0.0360  0.0719  0.0643
  108loPI   C6A 1724   0.306  12.442   8.005 -0.0406  0.0492  0.0707
  108loPI   C1B 1725   0.641  11.406   9.114  0.3166 -0.0394 -0.2739
  108loPI   C2B 1726   0.632  11.415   8.620  0.1079 -0.1951  0.1401
  108loPI   C3B 1727   0.825  11.271   8.125 -0.0673 -0.1191 -0.2059
  108loPI   C4B 1728   0.823  10.979   7.681  0.0952  0.2511  0.0914
  109loPI    C1 1729   2.691   2.851  10.308 -0.1753 -0.1857  0.1348
  109loPI    C2 1730   2.405   3.045  10.510  0.0263  0.2983 -0.0296
  109loPI    C3 1731   2.773   3.014  10.664  0.0186  0.1192 -0.0451
  109loPI   PO4 1732   2.558   2.743  10.130  0.2694  0.0331 -0.0668
  109loPI   GL1 1733   2.579   2.639   9.757  0.2768  0.0450  0.2616
  109loPI   GL2 1734   2.477   2.303   9.897 -0.2563 -0.1116  0.1687
  109loPI   C1A 1735   2.921   2.775   9.523  0.0341  0.0315  0.1029
  109loPI   C2A 1736   2.880   2.806   9.159 -0.1076  0.0226 -0.0512
  109loPI   C3A 1737   2.892   2.768   8.653 -0.3588  0.2066  0.0625
  109loPI   C4A 1738   2.897   2.712   8.242  0.3915  0.0526  0.4090
  109loPI   C5A 1739   3.044   2.481   7.927 -0.2143  0.0572 -0.1301
  109loPI   C6A 1740   3.384   2.333   7.673  0.2152  0.2401 -0.0594
  109loPI   C1B 1741   2.371   2.148   9.419 -0.1067  0.0404  0.1698
  109loPI   C2B 1742   2.311   1.985   9.110  0.2071 -0.0363  0.0566
  109loPI   C3B 1743   2.446   1.990   8.745  0.3620  0.0800 -0.3890
  109loPI   C4B 1744   2.380   1.951   8.243  0.0535 -0.1769  0.3258
  110loPI    C1 1745   3.353  16.159  11.193 -0.1101  0.2361  0.2612
  110loPI    C2 1746   3.575  16.491  11.221  0.0146  0.1866 -0.0893
  110loPI    C3 1747   3.575  16.225  11.520  0.0406  0.4220  0.1238
  110loPI   PO4 1748   3.416  16.184  10.865  0.0140 -0.0259  0.2095
  110loPI   GL1 1749   3.374  15.964  10.517  0.0867 -0.1959  0.3482
  110loPI   GL2 1750   3.233  16.272  10.387 -0.1683  0.2748 -0.3272
  110loPI   C1A 1751   3.567  16.014  10.089  0.1606 -0.0289 -0.1718
  110loPI   C2A 1752   3.532  15.867   9.679 -0.2023 -0.0506  0.0200
  110loPI   C3A 1753   3.590  15.811   9.321 -0.0270  0.3950  0.4578
  110loPI   C4A 1754   3.644  15.919   8.876  0.1001  0.2319 -0.1611
  110loPI   C5A 1755   3.809  16.067   8.424 -0.1907  0.2517 -0.3013
  110loPI   C6A 1756   3.882  16.025   8.009  0.1512  0.2775  0.1630
  110loPI   C1B 1757   3.178  16.314   9.992  0.2550  0.3778 -0.1188
  110loPI   C2B 1758   3.154  16.215   9.537  0.0007 -0.1245 -0.1033
  110loPI   C3B 1759   3.275  16.137   9.161  0.0628  0.1484  0.1664
  110loPI   C4B 1760   3.242  16.093   8.706  0.1032 -0.0306 -0.2716
  111loPI    C1 1761   2.785  10.673  10.587  0.1053  0.0568  0.0480
  111loPI    C2 1762   2.863  10.335  10.786 -0.1928 -0.1231 -0.1327
  111loPI    C3 1763   2.749  10.663  10.985 -0.3650 -0.2650  0.0059
  111loPI   PO4 1764   2.682  10.582  10.391 -0.1918  0.1073  0.2810
  111loPI   GL1 1765   2.577  10.308  10.102  0.4303  0.0186  0.0653
  111loPI   GL2 1766   2.896  10.235  10.115 -0.3078  0.0451  0.2902
  111loPI   C1A 1767   2.464  10.167   9.662  0.2049 -0.3993  0.1263
  111loPI   C2A 1768   2.427  10.180   9.180  0.3367  0.1799  0.1364
  111loPI   C3A 1769   2.489  10.205   8.781  0.3407  0.2376  0.0621
  111loPI   C4A 1770   2.559  10.258   8.334 -0.0827  0.0602 -0.2025
  111loPI   C5A 1771   2.665  10.269   7.890 -0.1447  0.0260  0.0973
  111loPI   C6A 1772   2.947  10.133   7.559 -0.2029 -0.1647  0.0683
  111loPI   C1B 1773   3.018  10.357   9.671  0.1040  0.1530 -0.2830
  111loPI   C2B 1774   3.014  10.395   9.117 -0.3039  0.2333  0.4755
  111loPI   C3B 1775   2.926  10.413   8.723  0.0372 -0.3172 -0.0580
  111loPI   C4B 1776   3.013  10.463   8.237  0.0167 -0.0989 -0.2456
  112loPI    C1 1777  16.901  18.194  10.721  0.1206 -0.0235  0.1614
  112loPI    C2 1778  16.629  18.176  11.014  0.1089  0.1663  0.1637
  112loPI    C3 1779  16.792  18.528  10.914 -0.1578  0.1655 -0.3038
  112loPI   PO4 1780  16.861  18.132  10.559  0.2447 -0.2417 -0.0078
  112loPI   GL1 1781  17.130  17.956  10.230 -0.3108  0.0636 -0.1766
  112loPI   GL2 1782  16.838  18.212  10.030  0.2990 -0.1344 -0.0904
  112loPI   C1A 1783  17.297  17.929   9.889 -0.2979 -0.4332  0.0116
  112loPI   C2A 1784  17.185  17.857   9.528 -0.0570 -0.1758  0.0169
  112loPI   C3A 1785  17.251  17.809   9.029  0.2609 -0.0843  0.3451
  112loPI   C4A 1786  17.172  17.828   8.507 -0.1473 -0.2196  0.0093
  112loPI   C5A 1787  17.073  17.681   8.139  0.2263  0.2806 -0.1558
  112loPI   C6A 1788  17.007  17.324   7.801 -0.0876  0.0788  0.0486
  112loPI   C1B 1789  16.753  18.139   9.619  0.1633  0.0289  0.2375
  112loPI   C2B 1790  16.699  18.010   9.186  0.2182 -0.0182  0.0787
  112loPI   C3B 1791  16.643  18.134   8.799 -0.0465  0.0424  0.3457
  112loPI   C4B 1792  16.729  17.951   8.343  0.0128 -0.2915  0.0596
  113loPI    C1 1793  14.604  12.299  11.178 -0.0599  0.1111 -0.0217
  113loPI    C2 1794  14.841  12.534  11.399  0.0044 -0.1319  0.1725
  113loPI    C3 1795  14.511  12.374  11.560 -0.1665  0.0127 -0.0278
  113loPI   PO4 1796  14.601  12.440  10.891 -0.0745 -0.1526  0.1564
  113loPI   GL1 1797  14.321  12.354  10.573 -0.2393  0.2531 -0.0520
  113loPI   GL2 1798  14.007  12.433  10.571 -0.0248  0.0308  0.0421
  113loPI   C1A 1799  14.275  12.189  10.214 -0.1686  0.2096  0.0020
  113loPI   C2A 1800  14.206  12.253   9.789  0.0710 -0.0635  0.1611
  113loPI   C3A 1801  14.265  12.207   9.393  0.0377 -0.1012  0.1138
  113loPI   C4A 1802  14.240  12.251   8.984  0.1933 -0.0802 -0.2602
  113loPI   C5A 1803  14.178  12.201   8.551 -0.2209 -0.0630 -0.1394
  113loPI   C6A 1804  13.843  12.418   8.315  0.2712  0.0215  0.0140
  113loPI   C1B 1805  13.855  12.460  10.181  0.0166  0.2536  0.1391
  113loPI   C2B 1806  13.742  12.520   9.654  0.0166 -0.2651 -0.3088
  113loPI   C3B 1807  13.819  12.530   9.211  0.2847  0.0845  0.2004
  113loPI   C4B 1808  13.662  12.539   8.729  0.1319 -0.2074  0.2855
  114loPI    C1 1809  17.454   0.963  10.488  0.1623  0.1038  0.0005
  114loPI    C2 1810  17.546   1.045  10.868 -0.1235 -0.0044  0.0957
  114loPI    C3 1811  17.531   0.665  10.744  0.0259  0.0331 -0.0398
  114loPI   PO4 1812  17.283   1.035  10.408  0.0961  0.0869 -0.0502
  114loPI   GL1 1813  17.227   0.830  10.043  0.0982  0.1413  0.0072
  114loPI   GL2 1814  17.084   0.509   9.843  0.1252  0.0199  0.1258
  114loPI   C1A 1815  17.239   1.021   9.569  0.0526 -0.3472  0.3388
  114loPI   C2A 1816  17.369   0.976   9.090  0.2391  0.2301  0.2453
  114loPI   C3A 1817  17.221   0.999   8.612  0.1866  0.0793  0.2317
  114loPI   C4A 1818  17.258   0.997   8.192 -0.0879 -0.0370  0.0436
  114loPI   C5A 1819  17.596   1.124   7.810 -0.0611 -0.1108  0.1100
  114loPI   C6A 1820  17.469   1.434   7.505 -0.0602  0.1638  0.0245
  114loPI   C1B 1821  17.169   0.473   9.424  0.0621  0.0796  0.2276
  114loPI   C2B 1822  17.251   0.460   8.881 -0.2378 -0.2088  0.0580
  114loPI   C3B 1823  17.196   0.427   8.499  0.0399  0.0736  0.1607
  114loPI   C4B 1824  17.168   0.507   8.215 -0.2608 -0.3692 -0.1697
  115loPI    C1 1825   0.494  13.745  11.194  0.1318  0.1691 -0.2699
  115loPI    C2 1826   0.543  14.102  11.369 -0.3440  0.0819  0.0598
  115loPI    C3 1827   0.337  13.814  11.556 -0.2452 -0.2601 -0.3432
  115loPI   PO4 1828   0.444  13.702  10.921 -0.1056  0.2568  0.1597
  115loPI   GL1 1829   0.395  13.943  10.602 -0.1891 -0.1374  0.2206
  115loPI   GL2 1830   0.051  13.895  10.517  0.1551  0.0051  0.3957
  115loPI   C1A 1831   0.671  14.081  10.257 -0.1293 -0.1323  0.2618
  115loPI   C2A 1832   0.688  13.971   9.865  0.1592 -0.1414 -0.3481
  115loPI   C3A 1833   0.812  13.989   9.542 -0.1636 -0.2588 -0.0913
  115loPI   C4A 1834   0.726  13.850   9.096 -0.1187  0.3356  0.1015
  115loPI   C5A 1835   0.816  13.921   8.719  0.2695  0.5986 -0.0652
  115loPI   C6A 1836   1.089  14.140   8.550  0.2127  0.2943 -0.1149
  115loPI   C1B 1837  -0.110  13.936  10.117  0.5936  0.2930  0.0298
  115loPI   C2B 1838  -0.142  14.001   9.687  0.1298 -0.2502 -0.0675
  115loPI   C3B 1839  -0.054  13.919   9.311  0.1403 -0.0952 -0.2760
  115loPI   C4B 1840  -0.142  13.979   8.956  0.1250 -0.0431  0.1524
  116loPI    C1 1841  17.691  18.007  10.989 -0.0775  0.2084 -0.0070
  116loPI    C2 1842  17.901  18.216  11.259 -0.2558  0.4199 -0.0293
  116loPI    C3 1843  17.508  18.160  11.311 -0.2040  0.0557 -0.0053
  116loPI   PO4 1844  17.721  18.131  10.810  0.3293  0.2308  0.0555
  116loPI   GL1 1845  17.760  18.116  10.322  0.0255 -0.5358 -0.0111
  116loPI   GL2 1846  17.653  17.792  10.187  0.0555 -0.0331  0.2008
  116loPI   C1A 1847  17.775  18.221   9.898 -0.1998 -0.0659 -0.0929
  116loPI   C2A 1848  17.618  18.157   9.491 -0.1149 -0.0027 -0.1142
  116loPI   C3A 1849  17.675  18.100   9.214 -0.2252  0.2320  0.1252
  116loPI   C4A 1850  17.601  18.009   8.760 -0.0726 -0.2278  0.1251
  116loPI   C5A 1851  17.614  18.027   8.359 -0.0837 -0.2519  0.3398
  116loPI   C6A 1852  17.338  18.030   8.008  0.3373 -0.3361 -0.1759
  116loPI   C1B 1853  17.635  17.669   9.771  0.0390 -0.0834 -0.1575
  116loPI   C2B 1854  17.626  17.628   9.356  0.3083  0.0907 -0.0287
  116loPI   C3B 1855  17.672  17.512   8.933 -0.1430 -0.3026  0.1551
  116loPI   C4B 1856  17.604  17.497   8.550 -0.0353 -0.5235 -0.0711
  117loPI    C1 1857  16.232   7.252  10.018 -0.0246  0.0556 -0.0366
  117loPI    C2 1858  16.533   7.435   9.829  0.0751 -0.2247 -0.1535
  117loPI    C3 1859  16.574   7.326  10.211 -0.0607  0.1794 -0.0187
  117loPI   PO4 1860  15.979   7.416   9.885  0.0204 -0.1962 -0.0072
  117loPI   GL1 1861  15.703   7.433   9.690  0.1974  0.1116  0.0253
  117loPI   GL2 1862  15.447   7.619   9.426 -0.0140  0.0862 -0.2133
  117loPI   C1A 1863  15.810   7.332   9.253  0.0849  0.3569 -0.0623
  117loPI   C2A 1864  15.777   7.320   8.832  0.0949 -0.2009 -0.1210
  117loPI   C3A 1865  15.825   7.348   8.361 -0.1950 -0.0561  0.0702
  117loPI   C4A 1866  15.812   7.503   7.899  0.1068 -0.1745  0.1163
  117loPI   C5A 1867  15.853   7.551   7.526 -0.1996  0.1121 -0.0338
  117loPI   C6A 1868  15.929   7.610   7.145 -0.0070  0.2774 -0.1585
  117loPI   C1B 1869  15.433   7.591   9.043 -0.1223 -0.1661  0.0227
  117loPI   C2B 1870  15.482   7.658   8.583  0.1291 -0.0095 -0.1079
  117loPI   C3B 1871  15.356   7.725   8.174  0.0137  0.0251 -0.0150
  117loPI   C4B 1872  15.326   7.861   7.707 -0.2071  0.0961 -0.1852
  118loPI    C1 1873   4.555   3.923  10.694 -0.1082  0.0763 -0.0896
  118loPI    C2 1874   4.400   4.229  10.899  0.2067  0.2700 -0.1343
  118loPI    C3 1875   4.634   3.962  11.084 -0.0530  0.0625 -0.0992
  118loPI   PO4 1876   4.566   4.035  10.391 -0.0319 -0.0179  0.0694
  118loPI   GL1 1877   4.666   4.042  10.014 -0.2419 -0.1226  0.0583
  118loPI   GL2 1878   4.486   3.772   9.918  0.1082  0.1752  0.1847
  118loPI   C1A 1879   4.706   4.295   9.577  0.0643  0.0339 -0.0074
  118loPI   C2A 1880   4.833   4.176   9.077 -0.0693  0.1070  0.3611
  118loPI   C3A 1881   4.871   4.241   8.612 -0.0647 -0.2082 -0.4948
  118loPI   C4A 1882   4.851   4.234   8.214 -0.2099  0.0587 -0.2066
  118loPI   C5A 1883   4.774   4.433   7.896  0.1324 -0.1185 -0.2191
  118loPI   C6A 1884   4.563   4.833   7.760  0.1219 -0.0313  0.1946
  118loPI   C1B 1885   4.733   3.767   9.579  0.1088  0.1535 -0.0146
  118loPI   C2B 1886   4.793   3.642   9.090  0.1653 -0.1488 -0.2309
  118loPI   C3B 1887   4.789   3.715   8.666  0.2396  0.0095  0.0858
  118loPI   C4B 1888   4.765   3.686   8.274 -0.0778 -0.3638  0.0328
  119loPI    C1 1889  11.960   8.127  10.247  0.2348 -0.0481 -0.0888
  119loPI    C2 1890  12.258   7.976  10.466 -0.0721 -0.1973  0.2370
  119loPI    C3 1891  12.135   8.352  10.527  0.0610 -0.1275  0.0856
  119loPI   PO4 1892  11.728   7.878  10.333 -0.0844 -0.0196  0.0319
  119loPI   GL1 1893  11.529   7.850   9.984 -0.0867 -0.2207 -0.2340
  119loPI   GL2 1894  11.535   8.195   9.901 -0.1126 -0.1514  0.3061
  119loPI   C1A 1895  11.723   7.802   9.598 -0.0758 -0.0236 -0.0248
  119loPI   C2A 1896  11.848   7.783   9.184 -0.0220  0.0612 -0.1435
  119loPI   C3A 1897  11.804   7.798   8.745 -0.0271 -0.3800  0.3415
  119loPI   C4A 1898  11.711   7.844   8.266 -0.1306  0.0448 -0.3234
  119loPI   C5A 1899  11.888   7.899   7.833 -0.2656 -0.0168 -0.0167
  119loPI   C6A 1900  11.752   7.925   7.397  0.2105 -0.0728 -0.0276
  119loPI   C1B 1901  11.647   8.287   9.462  0.0982 -0.3700 -0.4500
  119loPI   C2B 1902  11.882   8.295   9.016  0.0469 -0.2593 -0.0605
  119loPI   C3B 1903  11.797   8.408   8.486 -0.0120  0.0689  0.1536
  119loPI   C4B 1904  11.773   8.360   8.041  0.0905 -0.1335  0.0946
  120loPI    C1 1905  12.566  13.266  11.277  0.2475  0.0182  0.1209
  120loPI    C2 1906  12.322  13.411  11.559  0.0894  0.0725 -0.0413
  120loPI    C3 1907  12.702  13.321  11.649  0.1048  0.3039  0.1331
  120loPI   PO4 1908  12.459  13.476  11.047 -0.0611 -0.0764  0.2120
  120loPI   GL1 1909  12.236  13.344  10.582 -0.1523 -0.1981 -0.3166
  120loPI   GL2 1910  12.263  13.655  10.540  0.1470  0.3026 -0.1089
  120loPI   C1A 1911  12.439  13.260  10.258 -0.2152  0.0535 -0.0900
  120loPI   C2A 1912  12.448  13.253   9.800 -0.2026  0.1050  0.3732
  120loPI   C3A 1913  12.465  13.335   9.337 -0.3408 -0.0547  0.3808
  120loPI   C4A 1914  12.482  13.223   8.959 -0.0634 -0.0390  0.0927
  120loPI   C5A 1915  12.544  13.328   8.566 -0.0906  0.1042  0.1186
  120loPI   C6A 1916  12.717  13.478   8.127 -0.1131  0.0784 -0.0382
  120loPI   C1B 1917  12.027  13.534  10.096 -0.2216  0.2759 -0.0525
  120loPI   C2B 1918  12.035  13.520   9.715  0.2158  0.2735  0.1046
  120loPI   C3B 1919  12.020  13.657   9.279 -0.2209 -0.3328  0.1923
  120loPI   C4B 1920  12.086  13.651   8.842  0.2976  0.0965  0.0484
  121loPI    C1 1921  11.392  12.583  11.245 -0.0439 -0.1169  0.0795
  121loPI    C2 1922  11.777  12.642  11.336 -0.0059 -0.1751 -0.0415
  121loPI    C3 1923  11.495  12.701  11.613  0.0910 -0.1469  0.0521
  121loPI   PO4 1924  11.426  12.707  10.974 -0.1799  0.2306 -0.0696
  121loPI   GL1 1925  11.513  12.687  10.511 -0.1962 -0.0948 -0.1205
  121loPI   GL2 1926  11.406  12.441  10.512 -0.0075  0.1554  0.0478
  121loPI   C1A 1927  11.468  12.925   9.997  0.3818  0.1250 -0.0643
  121loPI   C2A 1928  11.556  12.891   9.617  0.0483  0.0525  0.0840
  121loPI   C3A 1929  11.655  12.855   9.160 -0.0199  0.0305  0.0829
  121loPI   C4A 1930  11.597  13.007   8.725 -0.0242  0.2151 -0.2197
  121loPI   C5A 1931  11.796  12.851   8.407  0.0890  0.2058 -0.1728
  121loPI   C6A 1932  12.209  12.622   8.218 -0.0348 -0.0088  0.0828
  121loPI   C1B 1933  11.437  12.426  10.035  0.1686 -0.1900  0.0198
  121loPI   C2B 1934  11.565  12.311   9.631 -0.0776  0.1860  0.0134
  121loPI   C3B 1935  11.501  12.405   9.178  0.0283  0.0766 -0.0967
  121loPI   C4B 1936  11.433  12.413   8.747  0.2430 -0.4254  0.1878
  122loPI    C1 1937   8.147   7.221  10.693  0.0918  0.2024 -0.0063
  122loPI    C2 1938   7.994   6.906  10.886  0.2538  0.1432  0.0268
  122loPI    C3 1939   8.033   7.257  11.075 -0.2482  0.2820 -0.1113
  122loPI   PO4 1940   8.250   7.127  10.457 -0.1252 -0.4893  0.1696
  122loPI   GL1 1941   8.530   7.383  10.267  0.1412  0.2503 -0.0906
  122loPI   GL2 1942   8.602   7.585  10.285 -0.2959  0.0516  0.1801
  122loPI   C1A 1943   8.466   7.180   9.851 -0.0333 -0.3136  0.0693
  122loPI   C2A 1944   8.541   7.207   9.489 -0.0009 -0.2340 -0.2904
  122loPI   C3A 1945   8.614   7.265   9.013 -0.0100 -0.3992 -0.0527
  122loPI   C4A 1946   8.540   7.188   8.546  0.0349 -0.0266  0.1685
  122loPI   C5A 1947   8.750   7.262   8.200 -0.0389  0.2807 -0.0247
  122loPI   C6A 1948   8.683   7.357   7.762  0.1581 -0.0864  0.3126
  122loPI   C1B 1949   8.519   7.705   9.907 -0.0990  0.0199  0.0023
  122loPI   C2B 1950   8.562   7.775   9.442 -0.0279 -0.1264 -0.0016
  122loPI   C3B 1951   8.712   7.824   9.040  0.0282 -0.1921  0.1677
  122loPI   C4B 1952   8.685   7.673   8.674  0.0000 -0.0960 -0.4064
  123loPI    C1 1953  18.124  14.802  11.005 -0.1596 -0.2180 -0.0958
  123loPI    C2 1954  18.382  14.508  11.088 -0.0598 -0.0800  0.0894
  123loPI    C3 1955  18.457  14.881  11.211 -0.1188  0.0514 -0.2604
  123loPI   PO4 1956  18.106  14.678  10.725  0.1391  0.1138 -0.0968
  123loPI   GL1 1957  18.098  14.916  10.344 -0.0698 -0.0427  0.1090
  123loPI   GL2 1958  18.453  14.896  10.284  0.2570 -0.0194 -0.1337
  123loPI   C1A 1959  17.888  14.797   9.965  0.0036  0.0642 -0.1908
  123loPI   C2A 1960  17.938  14.694   9.588 -0.1551 -0.3270  0.0808
  123loPI   C3A 1961  17.904  14.708   9.170  0.1212  0.2347 -0.3474
  123loPI   C4A 1962  17.916  14.720   8.675 -0.1087 -0.1164  0.1086
  123loPI   C5A 1963  17.921  14.836   8.307 -0.4115 -0.4295 -0.0733
  123loPI   C6A 1964  18.231  14.949   7.957 -0.0880 -0.1207 -0.0050
  123loPI   C1B 1965  18.461  14.941   9.826 -0.1152 -0.2645  0.0512
  123loPI   C2B 1966  18.337  14.952   9.332 -0.1119 -0.0845 -0.1399
  123loPI   C3B 1967  18.407  14.996   8.929 -0.3030  0.1215  0.0271
  123loPI   C4B 1968  18.261  15.114   8.550 -0.0981  0.1407 -0.0847
  124loPI    C1 1969   1.587   9.336  10.474 -0.1754 -0.0992  0.3824
  124loPI    C2 1970   1.768   9.630  10.677  0.1062 -0.0817  0.1132
  124loPI    C3 1971   1.868   9.249  10.746  0.1684 -0.0785  0.0419
  124loPI   PO4 1972   1.652   9.303  10.222  0.0284  0.0272  0.1017
  124loPI   GL1 1973   1.893   9.224   9.888 -0.0409  0.0823 -0.1553
  124loPI   GL2 1974   1.610   9.162   9.753  0.3115  0.0795  0.1218
  124loPI   C1A 1975   2.018   9.403   9.407  0.0298  0.2608  0.0064
  124loPI   C2A 1976   2.028   9.564   9.015  0.1470 -0.3803 -0.2147
  124loPI   C3A 1977   2.058   9.622   8.555 -0.1759  0.0498  0.1077
  124loPI   C4A 1978   2.053   9.421   8.103  0.0293 -0.1340 -0.3020
  124loPI   C5A 1979   2.373   9.276   7.818  0.0706 -0.1471  0.1559
  124loPI   C6A 1980   2.714   9.277   7.545  0.5612 -0.0072 -0.1407
  124loPI   C1B 1981   1.781   8.998   9.403  0.1439  0.1211 -0.1023
  124loPI   C2B 1982   1.943   9.093   9.033 -0.0006 -0.0151  0.1083
  124loPI   C3B 1983   1.864   9.157   8.678  0.0086  0.4467 -0.1727
  124loPI   C4B 1984   1.757   9.002   8.280  0.1046  0.0292  0.1956
  125loPI    C1 1985  17.533   6.602  10.151 -0.1790  0.2786  0.0368
  125loPI    C2 1986  17.394   6.238  10.242  0.0397  0.1763 -0.0321
  125loPI    C3 1987  17.220   6.564  10.396 -0.2027  0.0463 -0.0276
  125loPI   PO4 1988  17.538   6.628   9.899 -0.1706  0.0962 -0.0044
  125loPI   GL1 1989  17.670   6.765   9.514 -0.2267 -0.0280 -0.0160
  125loPI   GL2 1990  17.436   7.083   9.647 -0.4199  0.4996 -0.3017
  125loPI   C1A 1991  17.650   6.833   9.129 -0.0138 -0.1086  0.2258
  125loPI   C2A 1992  17.641   6.917   8.771 -0.1329  0.0274 -0.1374
  125loPI   C3A 1993  17.649   6.870   8.337  0.1555 -0.0634  0.1413
  125loPI   C4A 1994  17.673   6.670   8.006  0.0771 -0.2800 -0.0059
  125loPI   C5A 1995  17.807   6.667   7.539  0.1662 -0.1136 -0.0957
  125loPI   C6A 1996  17.643   6.647   7.043 -0.0861  0.0051 -0.1025
  125loPI   C1B 1997  17.241   7.152   9.274  0.2131 -0.1105  0.3537
  125loPI   C2B 1998  17.156   7.131   8.915 -0.0299  0.1130  0.0185
  125loPI   C3B 1999  17.177   7.064   8.472  0.3224  0.0711  0.0134
  125loPI   C4B 2000  17.188   7.059   8.080  0.2039 -0.0264 -0.0119
  126loPI    C1 2001  16.762   8.203  10.279 -0.0916  0.2333  0.0776
  126loPI    C2 2002  16.464   8.149  10.541 -0.1727  0.0380 -0.0529
  126loPI    C3 2003  16.832   8.237  10.671 -0.2736  0.2229  0.1120
  126loPI   PO4 2004  16.630   8.278  10.049  0.0266 -0.0558  0.0728
  126loPI   GL1 2005  16.859   8.450   9.718  0.3557  0.3641 -0.4898
  126loPI   GL2 2006  17.099   8.608   9.607 -0.0706  0.0325 -0.1619
  126loPI   C1A 2007  16.919   8.439   9.199  0.2481  0.2427 -0.3532
  126loPI   C2A 2008  17.021   8.471   8.758  0.4163 -0.3226  0.1812
  126loPI   C3A 2009  16.884   8.365   8.343  0.3515 -0.1580  0.3762
  126loPI   C4A 2010  16.902   8.374   7.899 -0.1526  0.1228 -0.0200
  126loPI   C5A 2011  16.591   8.362   7.563  0.3771 -0.2003  0.1304
  126loPI   C6A 2012  16.101   8.438   7.600 -0.1484  0.2284  0.0865
  126loPI   C1B 2013  17.354   8.681   9.235  0.0789 -0.0829  0.0099
  126loPI   C2B 2014  17.417   8.826   8.878 -0.3068  0.3096  0.0519
  126loPI   C3B 2015  17.360   8.725   8.540  0.0510  0.0931 -0.1987
  126loPI   C4B 2016  17.311   8.624   8.093  0.0239 -0.0950  0.1884
  127loPI    C1 2017   1.376  12.965  10.958 -0.1271  0.1016 -0.0097
  127loPI    C2 2018   1.150  12.948  11.288 -0.0737 -0.0069  0.0217
  127loPI    C3 2019   1.323  13.293  11.182 -0.0612  0.0197  0.1275
  127loPI   PO4 2020   1.196  12.780  10.774 -0.0670 -0.0602  0.3130
  127loPI   GL1 2021   1.108  12.800  10.355  0.0456 -0.3467 -0.4057
  127loPI   GL2 2022   0.956  13.094  10.437  0.4230  0.0637  0.1138
  127loPI   C1A 2023   1.260  13.165  10.078 -0.0512 -0.0695  0.2141
  127loPI   C2A 2024   1.302  13.126   9.651  0.0632 -0.3972  0.1578
  127loPI   C3A 2025   1.243  13.195   9.247  0.1254  0.0012  0.1647
  127loPI   C4A 2026   1.254  13.054   8.846  0.0593  0.1142 -0.0080
  127loPI   C5A 2027   1.228  13.018   8.411 -0.0220 -0.1239 -0.2326
  127loPI   C6A 2028   1.277  13.226   8.006 -0.1963  0.1028  0.1446
  127loPI   C1B 2029   0.813  12.974   9.952 -0.0402  0.4293  0.0086
  127loPI   C2B 2030   0.767  12.879   9.523 -0.3040  0.0007  0.0866
  127loPI   C3B 2031   0.794  12.898   8.992  0.0208  0.0042 -0.1505
  127loPI   C4B 2032   0.747  12.910   8.590  0.2415  0.0136 -0.2380
  128loPI    C1 2033  11.860  10.140  10.946  0.0990  0.0262 -0.1411
  128loPI    C2 2034  11.878  10.220  11.337 -0.0894  0.0127 -0.1285
  128loPI    C3 2035  12.215  10.163  11.129  0.0096 -0.0353  0.0422
  128loPI   PO4 2036  11.611  10.238  10.805 -0.1668 -0.3882  0.3182
  128loPI   GL1 2037  11.617  10.174  10.322  0.0557 -0.3634 -0.2172
  128loPI   GL2 2038  11.810  10.458  10.328  0.2427  0.1921  0.3327
  128loPI   C1A 2039  11.493  10.135   9.919 -0.0141 -0.1895 -0.2628
  128loPI   C2A 2040  11.530  10.041   9.507 -0.0374 -0.2039 -0.0932
  128loPI   C3A 2041  11.481  10.185   9.047 -0.2293 -0.1162  0.0684
  128loPI   C4A 2042  11.387  10.282   8.547 -0.4545 -0.0765  0.2431
  128loPI   C5A 2043  11.595  10.305   8.180 -0.1046  0.1491  0.1078
  128loPI   C6A 2044  11.654  10.335   7.775  0.1556  0.1667  0.0047
  128loPI   C1B 2045  11.920  10.482   9.845 -0.2662  0.1747 -0.1589
  128loPI   C2B 2046  11.913  10.390   9.427  0.0147  0.2154 -0.0349
  128loPI   C3B 2047  11.945  10.498   9.065 -0.3995  0.2913 -0.3402
  128loPI   C4B 2048  11.865  10.411   8.659  0.0879 -0.2126  0.1011
  129loPI    C1 2049   6.433   0.029  10.559 -0.0147  0.2794 -0.1648
  129loPI    C2 2050   6.084   0.116  10.734 -0.2179  0.1026 -0.4715
  129loPI    C3 2051   6.312  -0.180  10.878 -0.2025  0.2043 -0.2836
  129loPI   PO4 2052   6.495  -0.016  10.325 -0.0002  0.3136 -0.2367
  129loPI   GL1 2053   6.618   0.125   9.983 -0.0317 -0.2279  0.3994
  129loPI   GL2 2054   6.877   0.227   9.984 -0.2816  0.3648  0.1478
  129loPI   C1A 2055   6.430  -0.002   9.626 -0.2651  0.1029 -0.2563
  129loPI   C2A 2056   6.475  -0.080   9.138  0.3005 -0.0493 -0.1225
  129loPI   C3A 2057   6.373  -0.084   8.719  0.2009 -0.3138 -0.0798
  129loPI   C4A 2058   6.452  -0.135   8.329  0.0157 -0.2811 -0.2397
  129loPI   C5A 2059   6.523  -0.329   7.974  0.1162  0.3986  0.2453
  129loPI   C6A 2060   6.824  -0.353   7.600  0.3645 -0.1546  0.1489
  129loPI   C1B 2061   6.957   0.210   9.575 -0.1590 -0.4911 -0.2047
  129loPI   C2B 2062   6.916   0.134   9.181 -0.1286 -0.1449  0.0852
  129loPI   C3B 2063   6.882   0.139   8.745  0.0853 -0.2236  0.0694
  129loPI   C4B 2064   6.892   0.131   8.321  0.0291 -0.0454  0.0935
  130loPI    C1 2065  17.044  13.700  10.969 -0.1845  0.0492  0.0880
  130loPI    C2 2066  16.809  13.579  11.270 -0.1501  0.0963  0.1340
  130loPI    C3 2067  17.101  13.844  11.338  0.1733 -0.2573  0.1586
  130loPI   PO4 2068  16.930  13.700  10.773  0.0815 -0.0167 -0.1632
  130loPI   GL1 2069  17.061  13.632  10.309  0.0857 -0.0326 -0.1574
  130loPI   GL2 2070  17.015  13.891  10.282  0.1052 -0.2437  0.1868
  130loPI   C1A 2071  17.034  13.643   9.856 -0.2360  0.4325  0.0299
  130loPI   C2A 2072  17.001  13.679   9.390 -0.2099 -0.2349  0.0493
  130loPI   C3A 2073  17.002  13.649   8.857  0.1408  0.1285 -0.0937
  130loPI   C4A 2074  17.051  13.645   8.493 -0.3126 -0.2752  0.2740
  130loPI   C5A 2075  17.272  13.622   8.024 -0.0631 -0.2111 -0.0323
  130loPI   C6A 2076  17.258  13.689   7.497  0.2736  0.2649 -0.2533
  130loPI   C1B 2077  17.391  13.900  10.052 -0.0515 -0.3420 -0.0262
  130loPI   C2B 2078  17.406  13.962   9.668  0.2321 -0.0405 -0.0943
  130loPI   C3B 2079  17.485  13.885   9.240  0.1879 -0.0143  0.4071
  130loPI   C4B 2080  17.450  13.856   8.731 -0.0368  0.1661  0.3731
  131loPI    C1 2081  10.541   7.710  10.382  0.2233  0.0948  0.2526
  131loPI    C2 2082  10.381   8.039  10.544  0.0627  0.0810  0.1250
  131loPI    C3 2083  10.428   7.709  10.766  0.0445  0.1294  0.2012
  131loPI   PO4 2084  10.670   7.834  10.242  0.0269 -0.0245  0.2798
  131loPI   GL1 2085  10.690   7.735   9.787 -0.0673  0.1975 -0.0229
  131loPI   GL2 2086  10.357   7.607   9.920 -0.1939  0.0313  0.2215
  131loPI   C1A 2087  10.824   7.820   9.341  0.4430  0.0247 -0.4153
  131loPI   C2A 2088  10.900   8.029   8.896 -0.1501 -0.0527  0.1049
  131loPI   C3A 2089  10.881   7.967   8.395  0.1802  0.0204  0.1797
  131loPI   C4A 2090  10.969   7.754   7.938  0.4455  0.2248  0.0627
  131loPI   C5A 2091  10.877   7.410   7.797  0.1588 -0.0359  0.4342
  131loPI   C6A 2092  10.640   7.078   7.530  0.0797 -0.4051 -0.0478
  131loPI   C1B 2093  10.327   7.647   9.470  0.2340 -0.2714 -0.1007
  131loPI   C2B 2094  10.475   7.699   9.013  0.0152 -0.3341  0.1037
  131loPI   C3B 2095  10.467   7.693   8.596 -0.2356 -0.1548  0.2103
  131loPI   C4B 2096  10.469   7.703   8.161  0.2406 -0.3409 -0.0702
  132loPI    C1 2097  18.300  16.449  10.982 -0.1364  0.0425  0.0313
  132loPI    C2 2098  18.355  16.126  11.211 -0.0152  0.1048  0.0908
  132loPI    C3 2099  18.152  16.440  11.354 -0.0840  0.0776  0.0532
  132loPI   PO4 2100  18.230  16.327  10.730  0.2310  0.1835  0.1000
  132loPI   GL1 2101  18.252  16.219  10.354  0.0714  0.1463  0.0215
  132loPI   GL2 2102  17.939  16.320  10.236  0.0065  0.3031 -0.0786
  132loPI   C1A 2103  18.401  16.093   9.858 -0.0449  0.0021 -0.0878
  132loPI   C2A 2104  18.452  16.151   9.417 -0.2768  0.1479 -0.1494
  132loPI   C3A 2105  18.506  16.033   9.038  0.1397 -0.1214  0.1337
  132loPI   C4A 2106  18.496  16.108   8.544  0.0622  0.2178 -0.0575
  132loPI   C5A 2107  18.370  15.971   8.199 -0.1486  0.1901  0.2119
  132loPI   C6A 2108  18.364  15.923   7.839 -0.2267  0.0509 -0.1477
  132loPI   C1B 2109  17.911  16.326   9.707  0.0545  0.1654 -0.1096
  132loPI   C2B 2110  18.014  16.351   9.286  0.1708 -0.2415  0.0991
  132loPI   C3B 2111  18.100  16.290   8.860  0.2273  0.1741 -0.2993
  132loPI   C4B 2112  18.000  16.310   8.425  0.1807  0.1574 -0.1616
  133loPI    C1 2113   6.785   6.441  10.660 -0.0168  0.1955 -0.1712
  133loPI    C2 2114   6.399   6.457  10.763  0.0846  0.1229  0.2423
  133loPI    C3 2115   6.674   6.635  10.992  0.3020  0.1496 -0.0334
  133loPI   PO4 2116   6.788   6.410  10.389  0.1374  0.0342  0.0683
  133loPI   GL1 2117   6.962   6.343   9.930  0.0174  0.1991 -0.0686
  133loPI   GL2 2118   7.193   6.445   9.936 -0.4077  0.2608 -0.1779
  133loPI   C1A 2119   6.761   6.267   9.527 -0.1389  0.0620  0.0113
  133loPI   C2A 2120   6.658   6.245   9.088  0.0823 -0.4959 -0.0113
  133loPI   C3A 2121   6.775   6.199   8.640  0.1682 -0.2235  0.4724
  133loPI   C4A 2122   6.801   6.267   8.169 -0.0630  0.0224 -0.0219
  133loPI   C5A 2123   6.419   6.318   7.944  0.0779 -0.2464 -0.1386
  133loPI   C6A 2124   6.461   6.248   7.439  0.2010 -0.1553 -0.0445
  133loPI   C1B 2125   7.231   6.524   9.520 -0.1754 -0.2958  0.4235
  133loPI   C2B 2126   7.255   6.545   8.979  0.0165  0.1386  0.0946
  133loPI   C3B 2127   7.204   6.536   8.562 -0.0310 -0.3526  0.0866
  133loPI   C4B 2128   7.191   6.544   8.088  0.3099 -0.0950  0.0693
  134loPI    C1 2129   8.794  11.181  11.039  0.0335 -0.0550  0.0810
  134loPI    C2 2130   9.161  11.078  11.161  0.0620 -0.0822 -0.0268
  134loPI    C3 2131   9.097  11.439  11.002  0.0210 -0.0401  0.0842
  134loPI   PO4 2132   8.727  11.043  10.844 -0.1838  0.2521 -0.1006
  134loPI   GL1 2133   8.999  11.166  10.536 -0.3962 -0.2184 -0.0644
  134loPI   GL2 2134   9.078  11.444  10.366  0.1986 -0.0305 -0.0872
  134loPI   C1A 2135   8.957  11.002  10.128 -0.3682 -0.1026  0.0914
  134loPI   C2A 2136   8.927  10.821   9.658 -0.1359 -0.3236  0.1110
  134loPI   C3A 2137   8.829  10.923   9.239 -0.1055 -0.0649 -0.0790
  134loPI   C4A 2138   8.787  10.915   8.775  0.1845  0.1272 -0.1079
  134loPI   C5A 2139   8.824  11.087   8.479 -0.1910 -0.2106 -0.4595
  134loPI   C6A 2140   9.071  11.572   8.347  0.3044 -0.0079  0.0844
  134loPI   C1B 2141   8.886  11.459  10.045 -0.0311  0.1060 -0.0161
  134loPI   C2B 2142   8.763  11.425   9.659 -0.0586 -0.3837 -0.1123
  134loPI   C3B 2143   8.806  11.416   9.277  0.0846  0.0718  0.2611
  134loPI   C4B 2144   8.828  11.488   8.900  0.0530 -0.0191 -0.1062
  135loPI    C1 2145  10.941  10.649  10.869 -0.0992 -0.0358 -0.1630
  135loPI    C2 2146  10.955  10.962  11.119 -0.2696  0.0504 -0.2593
  135loPI    C3 2147  10.805  10.613  11.243  0.0479 -0.0365 -0.1089
  135loPI   PO4 2148  10.921  10.717  10.674 -0.1347  0.0269 -0.0105
  135loPI   GL1 2149  10.902  10.820  10.321 -0.1240  0.3967 -0.1026
  135loPI   GL2 2150  10.703  11.128  10.178 -0.0012 -0.0672 -0.0661
  135loPI   C1A 2151  10.977  10.994   9.858 -0.0302 -0.1930 -0.0549
  135loPI   C2A 2152  10.989  11.043   9.396  0.3061 -0.1893  0.2866
  135loPI   C3A 2153  11.041  11.011   8.906 -0.1348 -0.1235 -0.1373
  135loPI   C4A 2154  11.154  11.133   8.461  0.1085 -0.0696  0.2730
  135loPI   C5A 2155  11.118  11.178   7.941  0.0323 -0.0892  0.1398
  135loPI   C6A 2156  11.098  11.411   7.545  0.0568  0.2570 -0.0634
  135loPI   C1B 2157  10.648  11.340   9.782 -0.1247  0.1488  0.0816
  135loPI   C2B 2158  10.567  11.374   9.421 -0.0806 -0.2834  0.0302
  135loPI   C3B 2159  10.544  11.315   8.936 -0.3385  0.0942 -0.1744
  135loPI   C4B 2160  10.685  11.326   8.549 -0.0554 -0.1023 -0.1572
  136loPI    C1 2161   9.856  16.086  10.702  0.1918 -0.1130 -0.1681
  136loPI    C2 2162   9.931  15.856  11.021 -0.2516 -0.1811 -0.1071
  136loPI    C3 2163   9.870  16.249  11.067 -0.0053 -0.1367 -0.1487
  136loPI   PO4 2164   9.684  15.931  10.595 -0.0369 -0.1408  0.2266
  136loPI   GL1 2165   9.521  15.747  10.296 -0.0129 -0.1614 -0.0026
  136loPI   GL2 2166   9.207  15.756  10.371 -0.0591 -0.1847 -0.2383
  136loPI   C1A 2167   9.463  15.837   9.833 -0.1531  0.2455 -0.2148
  136loPI   C2A 2168   9.410  15.894   9.443  0.0882 -0.3051  0.0798
  136loPI   C3A 2169   9.519  15.848   9.120  0.0370 -0.1282  0.3660
  136loPI   C4A 2170   9.547  15.867   8.632  0.2894  0.0350  0.0067
  136loPI   C5A 2171   9.534  15.777   8.185  0.3256 -0.1615 -0.0151
  136loPI   C6A 2172   9.706  15.452   7.898  0.2980  0.0414  0.0249
  136loPI   C1B 2173   9.010  15.703   9.951 -0.1339  0.3358 -0.1059
  136loPI   C2B 2174   9.011  15.642   9.571 -0.2236 -0.0252 -0.1450
  136loPI   C3B 2175   8.974  15.578   9.176 -0.2504 -0.3326 -0.0277
  136loPI   C4B 2176   8.946  15.568   8.758 -0.0528 -0.3468 -0.1741
  137loPI    C1 2177  15.174  16.155  10.746  0.1993 -0.0622  0.0615
  137loPI    C2 2178  14.995  16.413  10.993  0.0375 -0.1129 -0.0018
  137loPI    C3 2179  15.284  16.174  11.131 -0.0705 -0.1602  0.1460
  137loPI   PO4 2180  15.338  16.335  10.404  0.1074  0.0994 -0.1921
  137loPI   GL1 2181  15.188  16.421  10.003 -0.0786  0.1439  0.1114
  137loPI   GL2 2182  14.903  16.604  10.030  0.2973  0.0228 -0.1505
  137loPI   C1A 2183  15.298  16.366   9.530  0.1515  0.0046 -0.2902
  137loPI   C2A 2184  15.346  16.350   9.135  0.1562 -0.1740  0.1072
  137loPI   C3A 2185  15.330  16.387   8.690 -0.2202 -0.1104 -0.0071
  137loPI   C4A 2186  15.289  16.424   8.203  0.0393 -0.0173 -0.3064
  137loPI   C5A 2187  14.755  16.433   8.076  0.1754  0.1767 -0.0422
  137loPI   C6A 2188  14.361  16.243   7.875  0.1410 -0.0638  0.2395
  137loPI   C1B 2189  14.850  16.606   9.643 -0.0345 -0.0011 -0.0234
  137loPI   C2B 2190  14.860  16.612   9.141  0.0263 -0.0934  0.0291
  137loPI   C3B 2191  14.880  16.642   8.766 -0.0388  0.1729  0.2124
  137loPI   C4B 2192  14.917  16.754   8.405 -0.0637  0.0369  0.1159
  138loPI    C1 2193   8.919  15.404  10.776 -0.0382 -0.0732  0.2375
  138loPI    C2 2194   9.073  15.762  10.867 -0.0462 -0.0428  0.1326
  138loPI    C3 2195   9.112  15.457  11.122 -0.0661  0.0408  0.2362
  138loPI   PO4 2196   8.997  15.342  10.534 -0.1360  0.1343  0.0862
  138loPI   GL1 2197   9.394  15.311  10.223  0.2443 -0.0918 -0.0533
  138loPI   GL2 2198   9.377  15.115  10.357 -0.2515 -0.0705  0.2068
  138loPI   C1A 2199   9.426  15.360   9.777 -0.1476  0.0639 -0.0065
  138loPI   C2A 2200   9.470  15.380   9.314  0.1682 -0.4387 -0.2834
  138loPI   C3A 2201   9.419  15.337   8.861 -0.0637  0.1464  0.4226
  138loPI   C4A 2202   9.337  15.284   8.477  0.0778  0.2674 -0.1924
  138loPI   C5A 2203   9.179  15.071   8.168 -0.0190  0.0120 -0.3281
  138loPI   C6A 2204   8.915  14.844   8.182 -0.2508  0.1865  0.3782
  138loPI   C1B 2205   9.305  14.810   9.868 -0.1533 -0.0701 -0.1493
  138loPI   C2B 2206   9.308  14.781   9.424 -0.1085  0.0332  0.0702
  138loPI   C3B 2207   9.444  14.768   8.899  0.3268 -0.1114  0.0104
  138loPI   C4B 2208   9.305  14.719   8.491  0.3332  0.0979 -0.2116
  139loPI    C1 2209   0.237   7.619  10.209 -0.0650  0.1388 -0.1858
  139loPI    C2 2210  -0.123   7.462  10.132 -0.2012  0.3111  0.0807
  139loPI    C3 2211  -0.073   7.702  10.448  0.1936  0.1319  0.1607
  139loPI   PO4 2212   0.376   7.425  10.217 -0.0471  0.1411  0.1282
  139loPI   GL1 2213   0.491   7.189   9.831 -0.4914  0.0994  0.1466
  139loPI   GL2 2214   0.633   7.528   9.759 -0.1676  0.1426  0.0453
  139loPI   C1A 2215   0.624   7.001   9.504  0.1856 -0.1023 -0.2588
  139loPI   C2A 2216   0.800   7.136   9.066 -0.0778 -0.1617  0.0869
  139loPI   C3A 2217   0.743   7.086   8.573  0.1229 -0.0779  0.1400
  139loPI   C4A 2218   0.559   7.073   8.192 -0.3049  0.0720  0.1366
  139loPI   C5A 2219   0.489   6.908   7.829 -0.0514 -0.0148  0.0105
  139loPI   C6A 2220   0.286   6.726   7.583  0.0785  0.1218 -0.1178
  139loPI   C1B 2221   0.780   7.572   9.374  0.0073 -0.2392  0.1694
  139loPI   C2B 2222   0.759   7.651   8.964 -0.1064 -0.1854 -0.1858
  139loPI   C3B 2223   0.725   7.557   8.472  0.0566 -0.0235 -0.1950
  139loPI   C4B 2224   0.808   7.523   8.094  0.3154 -0.4893  0.4806
  140loPI    C1 2225  15.500   0.216  10.757 -0.1307  0.0718 -0.3379
  140loPI    C2 2226  15.407  -0.165  10.678  0.0227 -0.0624  0.1045
  140loPI    C3 2227  15.512  -0.057  11.049  0.0352  0.4021 -0.0287
  140loPI   PO4 2228  15.496   0.413  10.515 -0.1342  0.0817  0.2296
  140loPI   GL1 2229  15.587   0.384  10.102 -0.0795  0.1337 -0.0246
  140loPI   GL2 2230  15.850   0.329   9.955  0.1050 -0.4002  0.0926
  140loPI   C1A 2231  15.445   0.534   9.658 -0.0515 -0.2942 -0.0957
  140loPI   C2A 2232  15.426   0.516   9.136 -0.2598  0.2362 -0.0531
  140loPI   C3A 2233  15.368   0.621   8.704 -0.3433  0.1713 -0.2085
  140loPI   C4A 2234  15.388   0.597   8.210 -0.1216  0.0039  0.0823
  140loPI   C5A 2235  15.371   0.235   7.883  0.1885 -0.0765 -0.1017
  140loPI   C6A 2236  15.303  -0.005   7.469 -0.2492  0.3559  0.2011
  140loPI   C1B 2237  15.845   0.275   9.511  0.2777 -0.0118  0.0565
  140loPI   C2B 2238  15.881   0.177   9.103 -0.1419 -0.2829 -0.3187
  140loPI   C3B 2239  15.852   0.228   8.660  0.0777  0.0509 -0.0310
  140loPI   C4B 2240  15.852   0.343   8.145 -0.1631 -0.3757  0.2041
  141loPI    C1 2241   5.709  11.010  11.443  0.0541  0.1638  0.2691
  141loPI    C2 2242   5.789  10.620  11.403  0.0055  0.1683  0.1194
  141loPI    C3 2243   6.071  10.870  11.538  0.0464  0.0867  0.1859
  141loPI   PO4 2244   5.659  11.054  11.211 -0.0847  0.1306  0.2980
  141loPI   GL1 2245   5.679  11.139  10.683  0.0806 -0.1232  0.1048
  141loPI   GL2 2246   6.080  11.292  10.633  0.2518  0.0979 -0.1664
  141loPI   C1A 2247   5.670  11.404  10.352  0.0203  0.2261 -0.1345
  141loPI   C2A 2248   5.608  11.249   9.902  0.5355  0.1327  0.0298
  141loPI   C3A 2249   5.642  11.316   9.417 -0.1697  0.1650  0.3579
  141loPI   C4A 2250   5.633  11.380   8.982 -0.2418  0.2178  0.1874
  141loPI   C5A 2251   5.717  11.447   8.552  0.0803 -0.0147 -0.1877
  141loPI   C6A 2252   5.626  11.473   8.133 -0.1327  0.4971 -0.3021
  141loPI   C1B 2253   6.177  11.467  10.264  0.2444  0.1262  0.1456
  141loPI   C2B 2254   6.212  11.497   9.826 -0.0281 -0.0142 -0.3179
  141loPI   C3B 2255   6.174  11.561   9.446  0.0910  0.1643 -0.2114
  141loPI   C4B 2256   6.143  11.545   9.121 -0.2094  0.3340 -0.0402
  142loPI    C1 2257   5.136  14.207  11.057  0.0983 -0.0000 -0.1249
  142loPI    C2 2258   5.487  14.389  11.115  0.0265  0.0772  0.0771
  142loPI    C3 2259   5.188  14.444  11.375 -0.1192 -0.0287 -0.0660
  142loPI   PO4 2260   5.199  14.115  10.774  0.1314  0.0813 -0.3491
  142loPI   GL1 2261   5.370  14.104  10.389  0.0039  0.0089 -0.1477
  142loPI   GL2 2262   5.659  14.089  10.416 -0.2687  0.0854 -0.2528
  142loPI   C1A 2263   5.287  14.256  10.018  0.1043 -0.2596  0.1329
  142loPI   C2A 2264   5.346  14.160   9.537 -0.2174 -0.0012  0.0750
  142loPI   C3A 2265   5.276  14.186   9.116 -0.0906  0.3077 -0.0788
  142loPI   C4A 2266   5.298  14.321   8.625  0.0330 -0.1333  0.1849
  142loPI   C5A 2267   4.994  14.629   8.447  0.1434  0.1900  0.3582
  142loPI   C6A 2268   4.675  14.615   8.123  0.3379  0.0121 -0.0901
  142loPI   C1B 2269   5.714  13.984   9.965  0.1280  0.0588 -0.2956
  142loPI   C2B 2270   5.858  13.970   9.644 -0.1794  0.2152  0.2553
  142loPI   C3B 2271   5.714  13.905   9.223  0.0366  0.2934  0.1107
  142loPI   C4B 2272   5.668  14.032   8.788  0.1224  0.2937  0.0704
  143loPI    C1 2273  10.348   5.718  11.019 -0.0606 -0.1183 -0.3782
  143loPI    C2 2274  10.546   5.387  11.126  0.2315  0.1914  0.0810
  143loPI    C3 2275  10.285   5.555  11.379 -0.1325  0.1595 -0.2620
  143loPI   PO4 2276  10.290   5.634  10.775  0.2048 -0.0944 -0.2478
  143loPI   GL1 2277  10.314   5.597  10.399 -0.0634  0.2457  0.0788
  143loPI   GL2 2278  10.277   5.210  10.270  0.0868 -0.1066 -0.0270
  143loPI   C1A 2279  10.315   5.612   9.990  0.0549 -0.0904  0.4193
  143loPI   C2A 2280  10.286   5.592   9.488 -0.0512 -0.4936 -0.0895
  143loPI   C3A 2281  10.346   5.518   9.072  0.2802  0.0003  0.0277
  143loPI   C4A 2282  10.361   5.459   8.616  0.1721  0.0621  0.1415
  143loPI   C5A 2283  10.335   5.482   8.188  0.0741  0.0260 -0.1842
  143loPI   C6A 2284  10.705   5.452   7.856  0.1780  0.1092 -0.0425
  143loPI   C1B 2285  10.304   5.106   9.808  0.1405  0.1263  0.0686
  143loPI   C2B 2286  10.265   5.022   9.369 -0.3933  0.0398  0.0138
  143loPI   C3B 2287  10.240   5.012   8.889  0.0018  0.0978 -0.0803
  143loPI   C4B 2288  10.320   4.994   8.512  0.0606 -0.0484  0.0535
  144loPI    C1 2289   9.516  13.917  11.251 -0.1522 -0.0020 -0.0653
  144loPI    C2 2290   9.524  14.293  11.387 -0.1580  0.1062 -0.3567
  144loPI    C3 2291   9.806  14.033  11.500 -0.3704  0.0848  0.1530
  144loPI   PO4 2292   9.554  13.934  10.999  0.3268 -0.1227 -0.1977
  144loPI   GL1 2293   9.602  14.042  10.590  0.7316  0.2159  0.0129
  144loPI   GL2 2294   9.379  13.770  10.466 -0.2517 -0.0356 -0.0823
  144loPI   C1A 2295   9.747  14.029  10.181  0.2519 -0.1883  0.1652
  144loPI   C2A 2296   9.784  14.072   9.797  0.0383  0.0094  0.1653
  144loPI   C3A 2297   9.780  13.877   9.423  0.0684 -0.1829 -0.1723
  144loPI   C4A 2298   9.837  14.025   8.965 -0.1896  0.1584  0.2698
  144loPI   C5A 2299   9.765  13.927   8.530 -0.2190  0.1262 -0.1702
  144loPI   C6A 2300   9.904  13.779   8.136 -0.0106  0.0459  0.3185
  144loPI   C1B 2301   9.335  13.754  10.065 -0.0549  0.3078  0.0849
  144loPI   C2B 2302   9.292  13.811   9.717 -0.0586  0.0413  0.1521
  144loPI   C3B 2303   9.286  13.801   9.295 -0.0535 -0.2303  0.0777
  144loPI   C4B 2304   9.352  13.714   8.836 -0.3610 -0.0770 -0.0516
  145loPI    C1 2305   7.187   8.077  10.840 -0.1788 -0.1150  0.0301
  145loPI    C2 2306   7.446   7.870  11.064  0.0821  0.1605 -0.0111
  145loPI    C3 2307   7.150   8.076  11.238 -0.0000 -0.0053  0.0478
  145loPI   PO4 2308   7.306   8.232  10.740 -0.0712 -0.1292  0.1201
  145loPI   GL1 2309   7.220   8.462  10.342  0.1966  0.0001  0.1286
  145loPI   GL2 2310   7.152   8.145  10.107 -0.3673  0.0820 -0.1820
  145loPI   C1A 2311   7.361   8.603   9.923  0.3401 -0.3298  0.0852
  145loPI   C2A 2312   7.265   8.572   9.491  0.0140 -0.1309 -0.1193
  145loPI   C3A 2313   7.302   8.547   9.057  0.3179 -0.3091  0.0743
  145loPI   C4A 2314   7.293   8.540   8.610 -0.1675  0.0129 -0.0448
  145loPI   C5A 2315   7.487   8.590   8.263 -0.1053 -0.1273  0.1236
  145loPI   C6A 2316   7.717   8.347   7.967 -0.2773  0.1067  0.2083
  145loPI   C1B 2317   7.348   8.115   9.652  0.1850  0.1542 -0.0158
  145loPI   C2B 2318   7.229   8.000   9.272  0.1036 -0.1187 -0.1552
  145loPI   C3B 2319   7.306   8.022   8.751 -0.2773  0.0911 -0.0021
  145loPI   C4B 2320   7.330   8.095   8.309  0.0813  0.1962  0.1074
  146loPI    C1 2321  11.150   2.050  10.810 -0.2489 -0.4209  0.2306
  146loPI    C2 2322  10.960   2.310  11.047  0.0912 -0.1258  0.1887
  146loPI    C3 2323  11.289   2.124  11.177  0.2680  0.0216 -0.0403
  146loPI   PO4 2324  11.183   2.156  10.545  0.2163  0.0761  0.0682
  146loPI   GL1 2325  11.430   2.094  10.145  0.1452  0.1249  0.0452
  146loPI   GL2 2326  11.181   2.323  10.006 -0.0015  0.1078  0.0580
  146loPI   C1A 2327  11.518   1.972   9.766  0.2647  0.1805 -0.2233
  146loPI   C2A 2328  11.503   2.072   9.264 -0.3417 -0.2403  0.0056
  146loPI   C3A 2329  11.488   2.104   8.772  0.2589  0.2224  0.1639
  146loPI   C4A 2330  11.480   2.175   8.363  0.2216  0.0270  0.2049
  146loPI   C5A 2331  11.332   2.050   7.933 -0.0827 -0.0006 -0.1889
  146loPI   C6A 2332  11.294   2.144   7.531  0.2445  0.0169 -0.0307
  146loPI   C1B 2333  11.158   2.397   9.564 -0.1056 -0.0780 -0.2968
  146loPI   C2B 2334  11.110   2.337   9.083  0.3272 -0.0348  0.1434
  146loPI   C3B 2335  11.116   2.431   8.692  0.2117  0.1199 -0.0521
  146loPI   C4B 2336  10.998   2.319   8.223  0.1138 -0.1524 -0.1181
  147loPI    C1 2337   0.967   5.791   9.804  0.1954  0.0307 -0.0174
  147loPI    C2 2338   1.189   5.682  10.118  0.2175 -0.0766 -0.0698
  147loPI    C3 2339   0.791   5.691  10.148  0.2343  0.3484  0.0988
  147loPI   PO4 2340   1.028   5.607   9.611  0.1108 -0.1800 -0.0503
  147loPI   GL1 2341   1.147   5.734   9.182  0.0368  0.1972 -0.0522
  147loPI   GL2 2342   1.248   5.655   8.938  0.1647 -0.1039 -0.2876
  147loPI   C1A 2343   1.029   6.062   9.063 -0.1565 -0.1270  0.0744
  147loPI   C2A 2344   1.091   6.295   8.681  0.1030  0.3285 -0.0883
  147loPI   C3A 2345   1.130   6.166   8.250 -0.1018 -0.3032 -0.0931
  147loPI   C4A 2346   1.119   6.079   7.848 -0.3084 -0.1788  0.2269
  147loPI   C5A 2347   1.444   6.123   7.595  0.0294 -0.0899  0.0362
  147loPI   C6A 2348   1.824   5.896   7.544 -0.0262  0.0539 -0.2994
  147loPI   C1B 2349   0.998   5.668   8.627  0.4499  0.2233  0.0036
  147loPI   C2B 2350   1.106   5.651   8.302  0.0791  0.1117  0.1890
  147loPI   C3B 2351   0.925   5.604   7.871 -0.0716  0.1077 -0.2073
  147loPI   C4B 2352   0.984   5.559   7.444 -0.1725 -0.1385  0.0402
  148loPI    C1 2353   5.268   7.204  10.387 -0.1772  0.3786 -0.0110
  148loPI    C2 2354   4.941   7.178  10.615 -0.0420  0.0005  0.1485
  148loPI    C3 2355   5.286   7.303  10.775 -0.0253  0.0605  0.0662
  148loPI   PO4 2356   5.181   7.177  10.175 -0.0482 -0.1653 -0.1672
  148loPI   GL1 2357   5.166   6.972   9.739 -0.1491 -0.0295  0.1001
  148loPI   GL2 2358   5.456   6.750   9.708 -0.1185  0.2701 -0.0425
  148loPI   C1A 2359   5.375   7.149   9.459 -0.2047  0.1782  0.2088
  148loPI   C2A 2360   5.447   7.178   9.017 -0.0737 -0.0965 -0.1015
  148loPI   C3A 2361   5.449   7.230   8.600 -0.0350 -0.1647 -0.1511
  148loPI   C4A 2362   5.369   7.118   8.073 -0.2043  0.0332 -0.2283
  148loPI   C5A 2363   5.343   6.865   7.765 -0.1361 -0.1597  0.3494
  148loPI   C6A 2364   5.429   6.661   7.468  0.0750 -0.1383  0.2474
  148loPI   C1B 2365   5.393   6.675   9.234  0.0104  0.0460  0.1425
  148loPI   C2B 2366   5.326   6.708   8.742 -0.0507 -0.1704 -0.1802
  148loPI   C3B 2367   5.479   6.595   8.391  0.0600  0.2135 -0.2990
  148loPI   C4B 2368   5.433   6.382   7.927 -0.2875  0.3168  0.1118
  149loPI    C1 2369  11.392   5.176  10.666  0.0095  0.0346 -0.0206
  149loPI    C2 2370  11.586   4.862  10.822  0.2165  0.2401  0.1419
  149loPI    C3 2371  11.370   5.102  11.058  0.0148  0.1918  0.0096
  149loPI   PO4 2372  11.576   5.251  10.464  0.0207 -0.0154  0.0725
  149loPI   GL1 2373  11.775   5.426  10.028  0.1199  0.0513 -0.0087
  149loPI   GL2 2374  12.005   5.481  10.126 -0.0584 -0.3556  0.1147
  149loPI   C1A 2375  11.594   5.253   9.652  0.1125 -0.3073  0.2502
  149loPI   C2A 2376  11.535   5.300   9.212  0.3839 -0.0922 -0.0373
  149loPI   C3A 2377  11.583   5.172   8.814  0.0396 -0.0717 -0.2803
  149loPI   C4A 2378  11.560   5.189   8.402  0.1913 -0.1226  0.1879
  149loPI   C5A 2379  11.371   5.397   7.997 -0.2154 -0.0477 -0.0170
  149loPI   C6A 2380  11.797   5.588   7.690 -0.0158 -0.0075  0.0945
  149loPI   C1B 2381  12.080   5.470   9.649 -0.4494 -0.2360  0.2515
  149loPI   C2B 2382  12.059   5.510   9.164  0.1205  0.0316  0.0627
  149loPI   C3B 2383  12.043   5.439   8.683  0.0355  0.1042 -0.3541
  149loPI   C4B 2384  11.989   5.512   8.218 -0.2334 -0.0292  0.0216
  150loPI    C1 2385   5.826  18.208  10.959  0.1279 -0.0835  0.1731
  150loPI    C2 2386   5.593  18.501  10.817  0.1240 -0.0656  0.2164
  150loPI    C3 2387   5.492  18.310  11.154 -0.0675 -0.3667 -0.0072
  150loPI   PO4 2388   5.872  18.059  10.745 -0.1311  0.0047 -0.1503
  150loPI   GL1 2389   5.846  18.295  10.316 -0.2837  0.2840 -0.0986
  150loPI   GL2 2390   6.007  18.379  10.017  0.0578  0.0849 -0.3499
  150loPI   C1A 2391   5.623  18.060  10.054 -0.1629  0.4211  0.3130
  150loPI   C2A 2392   5.517  17.958   9.659 -0.0077  0.3046 -0.3345
  150loPI   C3A 2393   5.504  17.962   9.192  0.2025 -0.0685 -0.0495
  150loPI   C4A 2394   5.433  18.005   8.839 -0.0024 -0.2569  0.1787
  150loPI   C5A 2395   5.514  17.881   8.481 -0.0570 -0.0726  0.2558
  150loPI   C6A 2396   5.436  18.062   8.142 -0.2239 -0.2331 -0.3984
  150loPI   C1B 2397   5.938  18.285   9.661  0.0320  0.0279 -0.0261
  150loPI   C2B 2398   5.972  18.124   9.317 -0.1416 -0.1140  0.0453
  150loPI   C3B 2399   5.937  18.070   8.900 -0.0868  0.1437  0.0743
  150loPI   C4B 2400   5.965  18.165   8.485 -0.0026  0.0988 -0.3213
  151loPI    C1 2401   8.502  15.770  10.841  0.0435  0.0653  0.0449
  151loPI    C2 2402   8.478  15.410  11.014 -0.0633 -0.0102 -0.1246
  151loPI    C3 2403   8.663  15.710  11.203 -0.2784 -0.0586  0.1714
  151loPI   PO4 2404   8.560  15.681  10.603  0.1444  0.0017 -0.0385
  151loPI   GL1 2405   8.315  15.624  10.221  0.6701  0.2033 -0.1037
  151loPI   GL2 2406   8.475  15.351  10.164 -0.2978 -0.2343  0.1262
  151loPI   C1A 2407   8.528  15.867  10.014 -0.0801  0.0113 -0.2234
  151loPI   C2A 2408   8.587  15.877   9.529 -0.2534 -0.2357  0.0915
  151loPI   C3A 2409   8.564  15.888   9.082 -0.1679  0.3880 -0.1913
  151loPI   C4A 2410   8.649  15.951   8.763 -0.1138 -0.1676  0.2096
  151loPI   C5A 2411   8.555  16.010   8.354 -0.0315  0.0456 -0.1824
  151loPI   C6A 2412   8.202  16.177   8.057 -0.3829 -0.0113  0.1843
  151loPI   C1B 2413   8.533  15.400   9.793 -0.1283  0.0929  0.0064
  151loPI   C2B 2414   8.550  15.421   9.351  0.1630 -0.1279 -0.1339
  151loPI   C3B 2415   8.478  15.330   8.937  0.0707  0.0136  0.1641
  151loPI   C4B 2416   8.453  15.505   8.531 -0.1575 -0.1953 -0.1323
  152loPI    C1 2417  16.321   0.106  10.728 -0.0694 -0.2352  0.0378
  152loPI    C2 2418  16.239   0.495  10.686  0.1645 -0.1614  0.2412
  152loPI    C3 2419  15.980   0.256  10.875  0.0044 -0.1127  0.0860
  152loPI   PO4 2420  16.336   0.043  10.508  0.1359 -0.3966  0.0734
  152loPI   GL1 2421  16.332  -0.222  10.168 -0.0230  0.0396 -0.0435
  152loPI   GL2 2422  16.141  -0.046   9.929 -0.3766  0.0636  0.0361
  152loPI   C1A 2423  16.264  -0.459   9.773  0.1740 -0.2226 -0.0041
  152loPI   C2A 2424  16.235  -0.585   9.364 -0.0583  0.2761  0.0329
  152loPI   C3A 2425  16.290  -0.538   8.926  0.1114 -0.2474 -0.1325
  152loPI   C4A 2426  16.174  -0.581   8.506 -0.0574  0.2880  0.0654
  152loPI   C5A 2427  16.289  -0.560   8.017  0.2164 -0.3501  0.1283
  152loPI   C6A 2428  16.654  -0.659   7.737 -0.0543  0.2047 -0.0085
  152loPI   C1B 2429  16.246  -0.055   9.431 -0.0102  0.0808 -0.1904
  152loPI   C2B 2430  16.325   0.034   8.962 -0.0290 -0.0880  0.0609
  152loPI   C3B 2431  16.293   0.027   8.500 -0.0797 -0.3359 -0.1974
  152loPI   C4B 2432  16.324  -0.051   8.080 -0.0524  0.0133 -0.2137
  153loPI    C1 2433   8.308   5.155  10.726 -0.2861  0.1687 -0.0615
  153loPI    C2 2434   8.224   4.793  10.873  0.1101  0.1934  0.2408
  153loPI    C3 2435   8.116   5.121  11.075  0.1055  0.2384  0.1658
  153loPI   PO4 2436   8.257   5.175  10.563  0.0335 -0.1691 -0.1603
  153loPI   GL1 2437   8.457   5.302  10.177 -0.3125  0.1564  0.0608
  153loPI   GL2 2438   8.623   5.618  10.113  0.1785 -0.1937  0.0984
  153loPI   C1A 2439   8.490   5.184   9.747 -0.0544  0.2447 -0.1333
  153loPI   C2A 2440   8.468   5.147   9.334  0.0206 -0.0639 -0.0339
  153loPI   C3A 2441   8.519   5.041   8.905 -0.1819 -0.1872 -0.0158
  153loPI   C4A 2442   8.510   5.174   8.480  0.0751 -0.0374  0.1813
  153loPI   C5A 2443   8.514   5.085   8.119 -0.3115  0.0056 -0.3110
  153loPI   C6A 2444   8.839   5.067   7.710 -0.0766  0.3058 -0.1083
  153loPI   C1B 2445   8.565   5.718   9.639  0.0518  0.2998  0.0174
  153loPI   C2B 2446   8.516   5.631   9.203 -0.0040  0.1150 -0.2353
  153loPI   C3B 2447   8.538   5.607   8.752 -0.0718 -0.1323  0.0940
  153loPI   C4B 2448   8.582   5.662   8.365  0.2800  0.3679  0.2609
  154loPI    C1 2449  16.840  12.742  11.108  0.1915 -0.0337  0.1162
  154loPI    C2 2450  16.841  12.417  10.875  0.2422 -0.0225  0.1008
  154loPI    C3 2451  16.976  12.394  11.251  0.0329 -0.0727  0.1740
  154loPI   PO4 2452  16.612  12.861  10.894 -0.2917 -0.1311  0.1592
  154loPI   GL1 2453  16.590  12.601  10.490  0.1944 -0.2059  0.3319
  154loPI   GL2 2454  16.894  12.617  10.411  0.1756  0.6694  0.0376
  154loPI   C1A 2455  16.580  12.767  10.090  0.3857  0.0419  0.3046
  154loPI   C2A 2456  16.538  13.045   9.744 -0.2273  0.0110 -0.2595
  154loPI   C3A 2457  16.518  12.893   9.273 -0.3115 -0.1278  0.2818
  154loPI   C4A 2458  16.559  12.915   8.855  0.3178 -0.0676  0.2708
  154loPI   C5A 2459  16.372  12.879   8.511  0.1267  0.0767 -0.0520
  154loPI   C6A 2460  16.479  12.890   8.041  0.0079 -0.0463 -0.0218
  154loPI   C1B 2461  17.019  12.625  10.083  0.0555  0.1607 -0.1110
  154loPI   C2B 2462  16.955  12.695   9.726  0.2127  0.1663  0.0408
  154loPI   C3B 2463  16.954  12.685   9.346  0.0100 -0.0787  0.0930
  154loPI   C4B 2464  16.943  12.671   8.973 -0.1172 -0.1675 -0.1009
  155loPI    C1 2465   2.582  11.958  11.171  0.0436 -0.0589 -0.3471
  155loPI    C2 2466   2.297  11.712  11.307 -0.0554  0.2590  0.0435
  155loPI    C3 2467   2.679  11.592  11.300 -0.1200  0.0450  0.0904
  155loPI   PO4 2468   2.418  12.077  10.920 -0.1508  0.0606  0.0230
  155loPI   GL1 2469   2.448  12.495  10.533  0.2570 -0.1877 -0.0727
  155loPI   GL2 2470   2.604  12.095  10.479 -0.0108 -0.0542  0.0303
  155loPI   C1A 2471   2.551  12.711  10.148  0.0168  0.1395  0.2629
  155loPI   C2A 2472   2.573  12.718   9.673 -0.1043 -0.1392  0.0901
  155loPI   C3A 2473   2.607  12.746   9.250 -0.0391 -0.2555  0.1581
  155loPI   C4A 2474   2.614  12.852   8.812  0.0567  0.0865  0.1389
  155loPI   C5A 2475   2.823  12.882   8.401 -0.0176  0.1977 -0.1984
  155loPI   C6A 2476   2.923  13.213   8.201  0.2038 -0.1030 -0.2372
  155loPI   C1B 2477   2.532  12.190  10.004 -0.3452  0.1665  0.0425
  155loPI   C2B 2478   2.645  12.259   9.605 -0.1576 -0.1664  0.0681
  155loPI   C3B 2479   2.539  12.274   9.197  0.2187  0.0551  0.0124
  155loPI   C4B 2480   2.592  12.279   8.691  0.0052 -0.2097  0.0873
  156loPI    C1 2481  14.363  17.211  10.790 -0.1134  0.1599  0.1075
  156loPI    C2 2482  14.481  16.829  10.801  0.0840  0.2175  0.0239
  156loPI    C3 2483  14.279  16.984  11.109  0.0323  0.0555  0.0725
  156loPI   PO4 2484  14.223  17.255  10.519  0.0103 -0.2257  0.2443
  156loPI   GL1 2485  14.026  17.270  10.048  0.3078 -0.0734 -0.1951
  156loPI   GL2 2486  13.699  17.296   9.918 -0.2137 -0.2119  0.0782
  156loPI   C1A 2487  14.072  17.175   9.642 -0.1621 -0.0614 -0.2209
  156loPI   C2A 2488  14.022  17.171   9.205  0.0599 -0.0609 -0.1931
  156loPI   C3A 2489  14.082  17.277   8.739 -0.0934 -0.1633  0.0706
  156loPI   C4A 2490  13.884  17.205   8.301 -0.2108 -0.0604 -0.0573
  156loPI   C5A 2491  13.728  17.004   7.940  0.2420 -0.1867  0.0847
  156loPI   C6A 2492  13.519  16.870   7.636 -0.0449  0.0817  0.0013
  156loPI   C1B 2493  13.531  17.507   9.481 -0.0581  0.0258  0.0925
  156loPI   C2B 2494  13.609  17.498   9.065  0.2014  0.2494  0.1003
  156loPI   C3B 2495  13.566  17.616   8.602  0.1996  0.1530 -0.0363
  156loPI   C4B 2496  13.548  17.510   8.159  0.2920  0.0017  0.2106
  157loPI    C1 2497   4.901  11.422  10.968  0.1541 -0.0266  0.1795
  157loPI    C2 2498   5.292  11.481  11.027  0.1632  0.0793  0.0188
  157loPI    C3 2499   5.032  11.564  11.319  0.2477  0.1510  0.0745
  157loPI   PO4 2500   4.761  11.563  10.713 -0.3598 -0.0963 -0.0997
  157loPI   GL1 2501   4.742  11.395  10.433 -0.3192 -0.0873  0.3400
  157loPI   GL2 2502   4.506  11.451  10.216  0.1021 -0.0886 -0.0544
  157loPI   C1A 2503   4.842  11.312   9.914  0.0602 -0.2050 -0.0223
  157loPI   C2A 2504   4.778  11.261   9.459  0.0447 -0.1077 -0.1964
  157loPI   C3A 2505   4.787  11.321   9.048  0.0980 -0.1399  0.2114
  157loPI   C4A 2506   4.897  11.362   8.604 -0.2179 -0.1277 -0.2024
  157loPI   C5A 2507   4.791  11.376   8.104  0.1546  0.2557  0.1798
  157loPI   C6A 2508   4.916  11.685   7.751  0.1432  0.0487  0.2179
  157loPI   C1B 2509   4.345  11.693   9.845  0.0109  0.2624  0.0970
  157loPI   C2B 2510   4.285  11.513   9.434 -0.0686  0.0551  0.0815
  157loPI   C3B 2511   4.348  11.573   8.996  0.3056 -0.0019  0.0131
  157loPI   C4B 2512   4.471  11.622   8.560  0.0635 -0.1402  0.1778
  158loPI    C1 2513   7.344   0.565  10.671 -0.0474 -0.0508  0.0411
  158loPI    C2 2514   7.071   0.381  10.898 -0.1780 -0.0107 -0.0826
  158loPI    C3 2515   7.422   0.204  10.826 -0.1454 -0.0347  0.1289
  158loPI   PO4 2516   7.170   0.659  10.447 -0.0211 -0.2214 -0.1227
  158loPI   GL1 2517   7.149   0.590  10.004  0.0874 -0.0114  0.2813
  158loPI   GL2 2518   7.365   0.402   9.938  0.1840  0.3017 -0.0874
  158loPI   C1A 2519   6.976   0.785   9.691  0.1455  0.0497  0.0831
  158loPI   C2A 2520   6.913   0.683   9.364  0.1387  0.1080  0.2650
  158loPI   C3A 2521   6.999   0.630   8.924  0.3517 -0.0981 -0.3220
  158loPI   C4A 2522   6.970   0.624   8.477  0.4836 -0.2249 -0.0694
  158loPI   C5A 2523   7.004   0.594   8.020 -0.0282 -0.2405 -0.1998
  158loPI   C6A 2524   7.043   0.904   7.688 -0.1309 -0.1209  0.1715
  158loPI   C1B 2525   7.394   0.489   9.483  0.0668 -0.0287 -0.0294
  158loPI   C2B 2526   7.432   0.342   9.097 -0.1209 -0.3502 -0.1554
  158loPI   C3B 2527   7.366   0.405   8.684 -0.0913 -0.1808 -0.1412
  158loPI   C4B 2528   7.541   0.589   8.275  0.0169  0.0427 -0.3432
  159loPI    C1 2529   4.740  14.083  11.435 -0.1847 -0.0743 -0.0907
  159loPI    C2 2530   4.935  13.734  11.445  0.0712  0.0602 -0.2732
  159loPI    C3 2531   4.811  13.904  11.786 -0.0234 -0.1895 -0.1811
  159loPI   PO4 2532   4.668  14.025  11.134  0.0153 -0.1342 -0.1414
  159loPI   GL1 2533   4.654  14.072  10.668 -0.1629 -0.0652  0.0267
  159loPI   GL2 2534   4.813  14.369  10.572 -0.1091 -0.1876  0.1338
  159loPI   C1A 2535   4.445  13.805  10.431 -0.2029  0.0936 -0.1299
  159loPI   C2A 2536   4.451  13.726  10.014 -0.2165 -0.1270  0.0581
  159loPI   C3A 2537   4.484  13.740   9.522  0.1083  0.3414  0.0736
  159loPI   C4A 2538   4.428  13.756   9.068 -0.5010 -0.5390  0.2508
  159loPI   C5A 2539   4.296  13.739   8.665 -0.1953  0.0991 -0.2208
  159loPI   C6A 2540   4.364  13.393   8.392 -0.3151 -0.1135 -0.1653
  159loPI   C1B 2541   4.840  14.539  10.151  0.0308 -0.1666  0.0555
  159loPI   C2B 2542   4.897  14.510   9.766  0.0122  0.0964  0.0259
  159loPI   C3B 2543   4.907  14.464   9.356  0.0888 -0.2923 -0.0657
  159loPI   C4B 2544   4.828  14.557   8.882  0.2429 -0.3093 -0.3519
  160loPI    C1 2545   8.987   5.827  10.668 -0.0271  0.0056 -0.0208
  160loPI    C2 2546   8.602   5.845  10.561 -0.0655  0.0041  0.1148
  160loPI    C3 2547   8.701   5.735  10.932  0.0726 -0.1662  0.0288
  160loPI   PO4 2548   9.080   5.793  10.487  0.0529  0.0530 -0.2405
  160loPI   GL1 2549   9.015   5.997  10.186  0.0745  0.0537  0.1186
  160loPI   GL2 2550   9.297   6.195  10.149  0.0187  0.1139  0.0016
  160loPI   C1A 2551   8.975   5.928   9.725  0.0299  0.0102 -0.1104
  160loPI   C2A 2552   8.976   5.947   9.321  0.1913  0.0048  0.1200
  160loPI   C3A 2553   9.008   5.866   8.894  0.0834 -0.2861  0.0669
  160loPI   C4A 2554   9.038   5.857   8.456 -0.2256  0.1978  0.2196
  160loPI   C5A 2555   8.911   5.832   8.009 -0.0456 -0.3391  0.0433
  160loPI   C6A 2556   8.980   5.733   7.583 -0.1262  0.2594  0.1393
  160loPI   C1B 2557   9.407   6.183   9.642 -0.1424 -0.0431  0.0546
  160loPI   C2B 2558   9.386   6.198   9.228  0.0864  0.0572  0.0245
  160loPI   C3B 2559   9.443   6.166   8.887 -0.2482  0.0955 -0.0307
  160loPI   C4B 2560   9.484   6.087   8.440  0.1093 -0.1060  0.1111
  161loPI    C1 2561  12.315   1.205  10.809  0.2036 -0.1282  0.0462
  161loPI    C2 2562  12.668   1.359  10.917  0.1244 -0.1274  0.3105
  161loPI    C3 2563  12.390   1.281  11.194 -0.1249 -0.0269  0.0936
  161loPI   PO4 2564  12.374   1.231  10.529  0.0695  0.2708  0.1205
  161loPI   GL1 2565  12.251   1.398  10.136 -0.1427  0.0403  0.1967
  161loPI   GL2 2566  12.447   1.464   9.864 -0.3823 -0.2698  0.2899
  161loPI   C1A 2567  11.993   1.280   9.753  0.7071  0.2313 -0.0543
  161loPI   C2A 2568  11.923   1.279   9.256  0.1577  0.3458 -0.5514
  161loPI   C3A 2569  11.856   1.377   8.699 -0.2443 -0.0432 -0.2368
  161loPI   C4A 2570  11.855   1.538   8.269  0.2466  0.0675 -0.2359
  161loPI   C5A 2571  11.846   2.011   7.986  0.1867  0.0602 -0.0811
  161loPI   C6A 2572  11.740   2.339   7.683 -0.1542 -0.0333  0.0834
  161loPI   C1B 2573  12.357   1.485   9.433 -0.1924  0.1226 -0.0830
  161loPI   C2B 2574  12.304   1.562   8.957 -0.3335  0.2334  0.2080
  161loPI   C3B 2575  12.331   1.616   8.556  0.1432  0.0341  0.3745
  161loPI   C4B 2576  12.253   1.765   8.148  0.1325 -0.3084 -0.1316
  162loPI    C1 2577  14.651  16.139  10.802  0.0280 -0.0783  0.0406
  162loPI    C2 2578  14.352  16.029  11.043  0.1144  0.0598  0.2127
  162loPI    C3 2579  14.732  15.972  11.156  0.1550 -0.0699  0.0163
  162loPI   PO4 2580  14.573  16.274  10.687 -0.1198  0.2116  0.0200
  162loPI   GL1 2581  14.324  16.191  10.406  0.0154 -0.0736  0.0314
  162loPI   GL2 2582  14.006  16.036  10.458 -0.0390  0.1243  0.0196
  162loPI   C1A 2583  14.467  16.384  10.017  0.1622  0.1033 -0.0357
  162loPI   C2A 2584  14.378  16.332   9.469 -0.1097 -0.1421 -0.0433
  162loPI   C3A 2585  14.425  16.441   8.963  0.1420  0.1371 -0.2266
  162loPI   C4A 2586  14.299  16.388   8.482 -0.0643 -0.0813 -0.0771
  162loPI   C5A 2587  14.062  16.097   8.246 -0.1078  0.2234 -0.1209
  162loPI   C6A 2588  13.784  16.249   8.058 -0.0529  0.3998  0.1509
  162loPI   C1B 2589  14.019  16.044  10.088  0.0902 -0.2124  0.4130
  162loPI   C2B 2590  13.923  16.173   9.668  0.2715 -0.1087 -0.0101
  162loPI   C3B 2591  13.958  16.101   9.191  0.2380 -0.4151  0.1869
  162loPI   C4B 2592  13.922  16.130   8.721  0.0975  0.1768 -0.0137
  163loPI    C1 2593   4.362   7.668  10.501 -0.0110 -0.1438 -0.1884
  163loPI    C2 2594   4.256   7.550  10.868 -0.1476 -0.1855 -0.2404
  163loPI    C3 2595   4.642   7.554  10.763 -0.0897  0.0187 -0.0306
  163loPI   PO4 2596   4.073   7.893  10.435 -0.1248  0.2990 -0.0421
  163loPI   GL1 2597   3.914   7.854  10.023  0.0978  0.1774 -0.0886
  163loPI   GL2 2598   3.560   7.813  10.001  0.3119  0.1103  0.1593
  163loPI   C1A 2599   3.939   7.870   9.630  0.3628  0.1124  0.0098
  163loPI   C2A 2600   4.028   7.958   9.150 -0.2746 -0.2145 -0.1409
  163loPI   C3A 2601   4.031   7.968   8.714 -0.4443 -0.0238 -0.1382
  163loPI   C4A 2602   3.984   7.869   8.209 -0.2470  0.0567 -0.1721
  163loPI   C5A 2603   3.738   7.773   7.889 -0.0344  0.0893 -0.2012
  163loPI   C6A 2604   3.437   7.939   7.603  0.1844 -0.0065  0.0844
  163loPI   C1B 2605   3.395   7.745   9.617 -0.0489  0.2176 -0.0609
  163loPI   C2B 2606   3.524   7.733   9.231  0.1520  0.4472 -0.0401
  163loPI   C3B 2607   3.530   7.783   8.798 -0.2005  0.0200 -0.3482
  163loPI   C4B 2608   3.521   7.731   8.394 -0.0324  0.0170 -0.2354
  164loPI    C1 2609  16.926   7.692  10.124 -0.1385 -0.0268  0.1060
  164loPI    C2 2610  17.126   7.850  10.433  0.0257  0.0813 -0.0531
  164loPI    C3 2611  16.754   7.711  10.485  0.1070 -0.0391  0.2257
  164loPI   PO4 2612  16.957   7.819   9.931 -0.2372 -0.0444  0.2550
  164loPI   GL1 2613  16.739   7.890   9.605 -0.2025 -0.0855  0.0693
  164loPI   GL2 2614  16.585   8.083   9.577 -0.0608  0.1092  0.0771
  164loPI   C1A 2615  16.844   7.916   9.104 -0.1990  0.2114 -0.2085
  164loPI   C2A 2616  16.831   7.954   8.687 -0.1720  0.4155 -0.0248
  164loPI   C3A 2617  16.843   7.862   8.296 -0.2269 -0.0382  0.2016
  164loPI   C4A 2618  16.902   7.780   7.922  0.2336  0.1785  0.0536
  164loPI   C5A 2619  16.758   7.871   7.519  0.3036  0.0146  0.0594
  164loPI   C6A 2620  16.935   7.774   7.065 -0.1953 -0.3696  0.0098
  164loPI   C1B 2621  16.311   8.143   9.185 -0.0977  0.0456  0.1780
  164loPI   C2B 2622  16.317   8.213   8.739  0.0792 -0.0775 -0.1601
  164loPI   C3B 2623  16.341   8.159   8.290 -0.4053 -0.0124  0.4216
  164loPI   C4B 2624  16.506   8.055   7.970 -0.3672 -0.1119  0.0228
  165loPI    C1 2625   0.747  12.409  10.884  0.1458 -0.2794  0.2964
  165loPI    C2 2626   0.698  12.777  11.033 -0.2414 -0.1750 -0.0702
  165loPI    C3 2627   0.821  12.480  11.271  0.0412  0.1787  0.2380
  165loPI   PO4 2628   0.815  12.463  10.641  0.1170  0.0787  0.3847
  165loPI   GL1 2629   0.622  12.412  10.118 -0.2494  0.0666 -0.1401
  165loPI   GL2 2630   0.897  12.405  10.168 -0.0177 -0.1204  0.3103
  165loPI   C1A 2631   0.800  12.380   9.711  0.1512  0.1970 -0.0053
  165loPI   C2A 2632   0.784  12.418   9.249  0.2029 -0.0659 -0.0612
  165loPI   C3A 2633   0.692  12.401   8.770  0.0189  0.2222 -0.2470
  165loPI   C4A 2634   0.799  12.440   8.348 -0.0553 -0.1202  0.1015
  165loPI   C5A 2635   1.001  12.184   8.097  0.0435  0.1096  0.0801
  165loPI   C6A 2636   1.079  12.025   7.568  0.1546 -0.0211 -0.2886
  165loPI   C1B 2637   1.252  12.610   9.902 -0.2643 -0.1056  0.0496
  165loPI   C2B 2638   1.251  12.669   9.504 -0.1653 -0.0610 -0.6271
  165loPI   C3B 2639   1.224  12.612   9.083 -0.2629  0.1314 -0.1991
  165loPI   C4B 2640   1.160  12.582   8.641 -0.0668 -0.1520  0.0761
  166loPI    C1 2641  17.781  12.383  10.741 -0.2182 -0.0628 -0.1096
  166loPI    C2 2642  17.796  12.438  11.137 -0.1233 -0.2798 -0.0817
  166loPI    C3 2643  17.885  12.080  10.981  0.0095 -0.1482 -0.3125
  166loPI   PO4 2644  17.775  12.670  10.658 -0.0084 -0.0739  0.0943
  166loPI   GL1 2645  18.020  12.902  10.307 -0.2569 -0.2287  0.0054
  166loPI   GL2 2646  18.007  13.168  10.139 -0.0013  0.2506 -0.1555
  166loPI   C1A 2647  17.864  12.744   9.866 -0.2143 -0.0265 -0.0948
  166loPI   C2A 2648  17.830  12.610   9.373 -0.1484 -0.0285  0.0431
  166loPI   C3A 2649  17.772  12.645   8.881  0.0880  0.2527 -0.1629
  166loPI   C4A 2650  17.766  12.690   8.403  0.1572  0.1771 -0.1159
  166loPI   C5A 2651  17.970  12.828   8.108 -0.3579 -0.0337  0.1151
  166loPI   C6A 2652  18.116  13.156   7.857 -0.0508  0.0130 -0.4910
  166loPI   C1B 2653  17.862  13.226   9.699  0.4025  0.1066 -0.0652
  166loPI   C2B 2654  17.900  13.056   9.244  0.2043  0.0350  0.0768
  166loPI   C3B 2655  17.868  13.129   8.720 -0.0979 -0.1368 -0.1924
  166loPI   C4B 2656  17.888  13.282   8.299 -0.0455 -0.3257 -0.0036
  167loPI    C1 2657   4.479   2.557  10.793  0.0094  0.2538 -0.2176
  167loPI    C2 2658   4.393   2.218  10.987 -0.0442  0.2763 -0.2016
  167loPI    C3 2659   4.637   2.487  11.153 -0.1211  0.3132 -0.1480
  167loPI   PO4 2660   4.414   2.470  10.538  0.1271 -0.2001  0.0310
  167loPI   GL1 2661   4.734   2.565  10.196 -0.3744 -0.1378 -0.4540
  167loPI   GL2 2662   4.792   2.276   9.957  0.2732 -0.2262  0.1688
  167loPI   C1A 2663   4.820   2.752   9.716 -0.1508 -0.0067  0.2793
  167loPI   C2A 2664   4.842   2.577   9.290  0.0528 -0.2356 -0.0590
  167loPI   C3A 2665   4.726   2.660   8.859 -0.2758  0.0905  0.1813
  167loPI   C4A 2666   4.739   2.677   8.469 -0.2441  0.0818  0.3958
  167loPI   C5A 2667   4.795   2.757   7.956  0.0443  0.1432 -0.0019
  167loPI   C6A 2668   4.939   2.406   7.743  0.1477  0.2123  0.1229
  167loPI   C1B 2669   4.764   2.162   9.538 -0.0446  0.2385  0.1407
  167loPI   C2B 2670   4.739   2.156   9.041 -0.0392  0.1946 -0.0867
  167loPI   C3B 2671   4.682   2.201   8.619  0.1586 -0.1404 -0.2837
  167loPI   C4B 2672   4.674   2.229   8.190 -0.0106  0.1289 -0.1370
  168loPI    C1 2673   6.548  10.487  10.940  0.1320  0.0350  0.1645
  168loPI    C2 2674   6.171  10.473  11.073  0.0888 -0.0335  0.0364
  168loPI    C3 2675   6.457  10.638  11.299 -0.0530  0.1942  0.0529
  168loPI   PO4 2676   6.481  10.571  10.701 -0.0169 -0.1257  0.1493
  168loPI   GL1 2677   6.395  10.370  10.344 -0.1379  0.0227  0.1749
  168loPI   GL2 2678   6.544  10.245  10.293  0.1562 -0.0397 -0.2003
  168loPI   C1A 2679   6.057  10.465  10.005 -0.0067  0.0856  0.1091
  168loPI   C2A 2680   6.121  10.515   9.573 -0.0525  0.0305  0.1648
  168loPI   C3A 2681   6.029  10.449   9.185  0.1274  0.4702  0.1478
  168loPI   C4A 2682   6.123  10.571   8.808  0.2615 -0.4569 -0.1335
  168loPI   C5A 2683   6.071  10.544   8.371 -0.0226  0.0088 -0.0584
  168loPI   C6A 2684   5.783  10.507   8.013 -0.1665  0.0407  0.1150
  168loPI   C1B 2685   6.526  10.243   9.896  0.0319 -0.1535  0.3279
  168loPI   C2B 2686   6.469  10.203   9.454 -0.0759 -0.2196 -0.3270
  168loPI   C3B 2687   6.442  10.237   9.023 -0.1489 -0.1797 -0.2998
  168loPI   C4B 2688   6.431  10.255   8.583 -0.2628 -0.0562 -0.2810
  169loPI    C1 2689  11.181  11.463  11.069 -0.0093 -0.1816  0.0054
  169loPI    C2 2690  11.398  11.639  11.355  0.0695 -0.0812 -0.1151
  169loPI    C3 2691  11.182  11.314  11.440 -0.1814  0.1469  0.1422
  169loPI   PO4 2692  11.181  11.599  10.904 -0.3845  0.0106  0.0910
  169loPI   GL1 2693  11.120  11.632  10.510  0.2325  0.3990 -0.3475
  169loPI   GL2 2694  11.057  11.942  10.489  0.0914  0.2471  0.1064
  169loPI   C1A 2695  11.100  11.565  10.032  0.2637 -0.0895 -0.1920
  169loPI   C2A 2696  11.031  11.651   9.582 -0.4169  0.0155  0.2724
  169loPI   C3A 2697  11.035  11.491   9.126  0.1193  0.2344 -0.1160
  169loPI   C4A 2698  11.046  11.552   8.741  0.2560  0.0668 -0.0601
  169loPI   C5A 2699  11.019  11.662   8.284 -0.0243 -0.0407  0.0323
  169loPI   C6A 2700  11.035  11.856   7.903 -0.0359  0.2288 -0.0960
  169loPI   C1B 2701  11.033  12.166  10.150  0.3676 -0.1839 -0.0976
  169loPI   C2B 2702  11.045  12.185   9.726 -0.0490  0.0143  0.1819
  169loPI   C3B 2703  11.109  12.148   9.310  0.3212  0.1193 -0.1436
  169loPI   C4B 2704  11.028  12.137   8.939  0.0041  0.0820  0.0133
  170loPI    C1 2705   1.146  11.780  10.498 -0.3574 -0.1029  0.1516
  170loPI    C2 2706   1.060  11.957  10.846 -0.1764 -0.3301  0.3151
  170loPI    C3 2707   1.228  11.594  10.842  0.0382 -0.2320 -0.0069
  170loPI   PO4 2708   1.203  11.896  10.366  0.1517 -0.0324  0.4725
  170loPI   GL1 2709   0.865  11.902  10.024  0.1747  0.3460 -0.2435
  170loPI   GL2 2710   1.143  12.075   9.850  0.0583  0.1633 -0.1771
  170loPI   C1A 2711   0.743  11.826   9.613  0.3205 -0.0165  0.1924
  170loPI   C2A 2712   0.652  11.938   9.171  0.0644  0.1803 -0.0738
  170loPI   C3A 2713   0.719  11.897   8.754 -0.1335 -0.0972 -0.0816
  170loPI   C4A 2714   0.642  11.890   8.273  0.1563 -0.2793 -0.0723
  170loPI   C5A 2715   0.600  11.977   7.819  0.1403  0.0849  0.0297
  170loPI   C6A 2716   0.655  11.925   7.339  0.0862  0.0484  0.1170
  170loPI   C1B 2717   1.215  12.194   9.465  0.1168  0.1146  0.1985
  170loPI   C2B 2718   1.153  12.149   9.025  0.0641  0.1560 -0.4600
  170loPI   C3B 2719   1.196  12.101   8.610 -0.1362  0.0693  0.3303
  170loPI   C4B 2720   1.438  12.067   8.212  0.2931  0.0682 -0.1912
  171loPI    C1 2721   2.228  10.484  10.782  0.2006  0.1840  0.0611
  171loPI    C2 2722   2.053  10.161  10.941  0.2493  0.0165 -0.2174
  171loPI    C3 2723   1.986  10.523  11.097  0.0492 -0.1054 -0.0151
  171loPI   PO4 2724   2.177  10.534  10.535 -0.0698 -0.1432  0.0717
  171loPI   GL1 2725   2.070  10.600  10.050 -0.2605 -0.2690  0.0366
  171loPI   GL2 2726   2.169  10.905  10.080 -0.3066  0.2896 -0.0827
  171loPI   C1A 2727   2.538  10.706   9.769  0.0991 -0.0284  0.1008
  171loPI   C2A 2728   2.461  10.635   9.371 -0.1645  0.0770 -0.3539
  171loPI   C3A 2729   2.512  10.707   8.911 -0.1021 -0.2032  0.2604
  171loPI   C4A 2730   2.429  10.739   8.553 -0.3653 -0.3496 -0.0549
  171loPI   C5A 2731   2.398  10.716   8.115  0.0107  0.2179 -0.1469
  171loPI   C6A 2732   2.201  11.054   7.942 -0.3546 -0.0630  0.0472
  171loPI   C1B 2733   1.989  10.967   9.641 -0.3943 -0.0037  0.0191
  171loPI   C2B 2734   2.047  10.991   9.214 -0.1351  0.0756  0.3321
  171loPI   C3B 2735   2.032  11.041   8.761 -0.3994 -0.0085  0.0194
  171loPI   C4B 2736   2.008  11.082   8.377  0.0105  0.5357  0.2346
  172loPI    C1 2737  11.685   3.357  10.733 -0.1469  0.0638 -0.0893
  172loPI    C2 2738  11.610   3.052  10.981  0.1865 -0.0492 -0.1219
  172loPI    C3 2739  11.625   3.426  11.122  0.0790 -0.0804 -0.0265
  172loPI   PO4 2740  11.806   3.322  10.421 -0.1266 -0.3575 -0.1495
  172loPI   GL1 2741  11.670   3.469   9.916 -0.0443 -0.4322 -0.2348
  172loPI   GL2 2742  11.647   3.119   9.991  0.1000  0.2372 -0.0232
  172loPI   C1A 2743  11.556   3.555   9.475  0.1287 -0.3365  0.0630
  172loPI   C2A 2744  11.553   3.595   9.016  0.1210  0.1297 -0.3494
  172loPI   C3A 2745  11.442   3.658   8.614 -0.1758  0.4527  0.1684
  172loPI   C4A 2746  11.671   3.728   8.181 -0.0649 -0.0221  0.2965
  172loPI   C5A 2747  11.638   4.025   7.889 -0.0762 -0.1112  0.1439
  172loPI   C6A 2748  11.843   4.371   8.069  0.3346  0.0859 -0.1704
  172loPI   C1B 2749  11.588   3.047   9.549  0.3537 -0.1498  0.1505
  172loPI   C2B 2750  11.634   3.069   9.139 -0.3772 -0.1194  0.0852
  172loPI   C3B 2751  11.546   3.120   8.694 -0.5130  0.3031  0.2524
  172loPI   C4B 2752  11.580   3.234   8.244  0.3794 -0.0572 -0.2130
  173loPI    C1 2753   1.883  15.777  11.156 -0.1069  0.0291  0.0970
  173loPI    C2 2754   2.216  15.869  11.356  0.0728 -0.2457 -0.0696
  173loPI    C3 2755   1.862  15.880  11.541  0.1705  0.0618  0.1051
  173loPI   PO4 2756   1.943  15.853  10.922  0.1951 -0.1058 -0.0230
  173loPI   GL1 2757   1.837  15.924  10.481  0.1956 -0.0856  0.1054
  173loPI   GL2 2758   1.718  16.304  10.323  0.1167  0.0645 -0.1300
  173loPI   C1A 2759   1.858  15.933  10.028  0.1703 -0.0712  0.0204
  173loPI   C2A 2760   1.904  16.004   9.629  0.1103  0.1194  0.2721
  173loPI   C3A 2761   1.896  15.963   9.179  0.1488  0.3334 -0.1691
  173loPI   C4A 2762   1.852  15.884   8.765  0.0023  0.0825 -0.1027
  173loPI   C5A 2763   1.860  15.435   8.544 -0.1761 -0.0611  0.1828
  173loPI   C6A 2764   1.600  15.338   8.116 -0.0376  0.1573 -0.3296
  173loPI   C1B 2765   1.794  16.474   9.948  0.1711 -0.0813 -0.0475
  173loPI   C2B 2766   1.938  16.493   9.525  0.0425  0.0657  0.2589
  173loPI   C3B 2767   1.947  16.491   9.153 -0.0960 -0.0413  0.1491
  173loPI   C4B 2768   1.907  16.397   8.700  0.0730  0.0238  0.2029
  174loPI    C1 2769   4.831  17.440  11.060 -0.2005 -0.1495 -0.0835
  174loPI    C2 2770   4.467  17.602  11.100 -0.0625  0.1540 -0.0271
  174loPI    C3 2771   4.725  17.610  11.406  0.0603  0.1128 -0.1283
  174loPI   PO4 2772   4.797  17.357  10.717  0.0915  0.0488  0.1632
  174loPI   GL1 2773   4.916  17.587  10.376  0.1511  0.1882 -0.1684
  174loPI   GL2 2774   5.123  17.778  10.321  0.3418 -0.1217 -0.0597
  174loPI   C1A 2775   4.988  17.263   9.985 -0.2605  0.2290 -0.4787
  174loPI   C2A 2776   4.992  17.133   9.493  0.0967 -0.2205 -0.2005
  174loPI   C3A 2777   5.039  17.159   9.043 -0.0489 -0.1681 -0.2621
  174loPI   C4A 2778   4.978  17.075   8.605 -0.0302  0.0844  0.3505
  174loPI   C5A 2779   4.948  17.331   8.185  0.1791  0.3590  0.0320
  174loPI   C6A 2780   5.081  17.739   8.131 -0.0174  0.0566  0.1496
  174loPI   C1B 2781   5.022  17.788   9.896 -0.1143  0.0381 -0.0959
  174loPI   C2B 2782   5.077  17.684   9.437  0.0883 -0.3854 -0.1891
  174loPI   C3B 2783   5.044  17.674   9.023 -0.3368 -0.3000 -0.3365
  174loPI   C4B 2784   5.041  17.652   8.611  0.2453 -0.3024  0.0934
  175loPI    C1 2785   6.116   7.361  10.665  0.1206  0.0074 -0.1729
  175loPI    C2 2786   6.281   7.685  10.832 -0.2492  0.2190 -0.2080
  175loPI    C3 2787   5.906   7.582  10.923 -0.0441 -0.3678  0.0223
  175loPI   PO4 2788   6.358   7.339  10.478 -0.0274  0.0408 -0.1075
  175loPI   GL1 2789   6.433   7.511  10.034 -0.1035 -0.1363  0.1528
  175loPI   GL2 2790   6.396   7.178   9.926  0.0079 -0.1522  0.0392
  175loPI   C1A 2791   6.394   7.632   9.632  0.1250 -0.0953 -0.0221
  175loPI   C2A 2792   6.356   7.596   9.232 -0.1511  0.0652  0.1146
  175loPI   C3A 2793   6.385   7.577   8.816 -0.0562 -0.0181  0.0757
  175loPI   C4A 2794   6.476   7.535   8.486  0.1150  0.1548  0.2535
  175loPI   C5A 2795   6.487   7.683   8.108  0.0827  0.0410  0.1248
  175loPI   C6A 2796   6.600   8.042   7.858 -0.0465  0.1566 -0.0361
  175loPI   C1B 2797   6.352   7.126   9.463  0.0554 -0.1419 -0.2389
  175loPI   C2B 2798   6.331   7.048   9.106  0.1635 -0.1666 -0.2082
  175loPI   C3B 2799   6.327   7.056   8.632  0.3617 -0.0937  0.3334
  175loPI   C4B 2800   6.360   7.165   8.185  0.0725 -0.1312 -0.0280
  176loPI    C1 2801  11.145  18.389  11.107 -0.0600 -0.2489 -0.0880
  176loPI    C2 2802  11.475  18.168  11.156 -0.2092 -0.4652 -0.0421
  176loPI    C3 2803  11.247  18.260  11.471 -0.0420 -0.0720 -0.0296
  176loPI   PO4 2804  11.069  18.284  10.827 -0.1290 -0.1198  0.3794
  176loPI   GL1 2805  11.023  18.197  10.455 -0.0061 -0.1521  0.2266
  176loPI   GL2 2806  10.807  18.102  10.339 -0.0331 -0.2908  0.3371
  176loPI   C1A 2807  11.028  18.550  10.092 -0.0025 -0.0901  0.3535
  176loPI   C2A 2808  11.011  18.670   9.599  0.1614 -0.0346 -0.1094
  176loPI   C3A 2809  10.911  18.705   9.189  0.0162  0.0629  0.1915
  176loPI   C4A 2810  10.982  18.649   8.780 -0.1385  0.3730  0.2800
  176loPI   C5A 2811  10.954  18.677   8.322  0.2317 -0.0297 -0.5189
  176loPI   C6A 2812  11.292  18.761   8.149 -0.0894 -0.0395  0.1809
  176loPI   C1B 2813  10.983  18.071   9.859 -0.1478  0.3631  0.3881
  176loPI   C2B 2814  11.006  18.128   9.342  0.0719  0.1676 -0.0274
  176loPI   C3B 2815  10.979  18.225   9.005 -0.2581  0.0620  0.1363
  176loPI   C4B 2816  10.943  18.204   8.575 -0.0971 -0.0518  0.0064
  177loPI    C1 2817   6.443   4.164  10.535  0.0777  0.2303  0.0810
  177loPI    C2 2818   6.533   4.288  10.905 -0.0076 -0.0508  0.1985
  177loPI    C3 2819   6.518   3.897  10.823  0.1430  0.0102 -0.1373
  177loPI   PO4 2820   6.641   4.218  10.349  0.3124  0.1302  0.0768
  177loPI   GL1 2821   6.713   4.102   9.933 -0.1014 -0.1235 -0.0397
  177loPI   GL2 2822   6.637   3.751   9.846 -0.1074  0.2352 -0.1588
  177loPI   C1A 2823   6.444   4.138   9.558 -0.3445  0.1370  0.0056
  177loPI   C2A 2824   6.572   4.218   9.216  0.1957  0.0732  0.3200
  177loPI   C3A 2825   6.615   4.083   8.830  0.1518 -0.1664  0.0380
  177loPI   C4A 2826   6.668   4.069   8.316 -0.1636  0.0173 -0.0892
  177loPI   C5A 2827   6.743   4.402   8.046  0.2205  0.1578 -0.0008
  177loPI   C6A 2828   6.923   4.427   7.771  0.1737  0.0824  0.1318
  177loPI   C1B 2829   6.500   3.684   9.430 -0.2081  0.1620 -0.2464
  177loPI   C2B 2830   6.544   3.571   8.977  0.0033  0.2336  0.1068
  177loPI   C3B 2831   6.563   3.515   8.560  0.2559 -0.2343 -0.3147
  177loPI   C4B 2832   6.514   3.589   8.093 -0.1789  0.1704  0.2838
  178loPI    C1 2833   6.840  17.886  10.622 -0.3532  0.3056 -0.4647
  178loPI    C2 2834   6.793  18.097  10.959 -0.0502 -0.0031 -0.2228
  178loPI    C3 2835   6.546  17.793  10.877 -0.0895  0.0365 -0.2518
  178loPI   PO4 2836   6.825  18.025  10.362 -0.0272  0.2379  0.2911
  178loPI   GL1 2837   7.053  18.078  10.026 -0.4384  0.0872  0.2825
  178loPI   GL2 2838   7.005  17.986   9.683  0.0052  0.0977  0.0935
  178loPI   C1A 2839   7.320  18.349   9.719 -0.0676 -0.0426 -0.2212
  178loPI   C2A 2840   7.363  18.274   9.337 -0.2925 -0.0034 -0.1955
  178loPI   C3A 2841   7.261  18.258   8.919  0.0078  0.2311 -0.0725
  178loPI   C4A 2842   7.277  18.259   8.490  0.0294 -0.1581  0.0787
  178loPI   C5A 2843   7.416  18.490   8.249 -0.0880 -0.1944  0.0241
  178loPI   C6A 2844   7.504  18.695   7.783  0.0912  0.0859  0.0271
  178loPI   C1B 2845   6.857  18.055   9.264 -0.0270 -0.1692 -0.1757
  178loPI   C2B 2846   6.845  18.003   8.847 -0.0199  0.1240  0.0913
  178loPI   C3B 2847   6.848  17.986   8.396 -0.1858  0.3505  0.0611
  178loPI   C4B 2848   7.048  18.087   8.015  0.1174  0.6367 -0.0664
  179loPI    C1 2849   4.069  15.055  11.363  0.0851  0.2101 -0.1179
  179loPI    C2 2850   4.228  14.772  11.598 -0.0140  0.0842 -0.2012
  179loPI    C3 2851   4.413  15.124  11.555  0.0578  0.0698 -0.0167
  179loPI   PO4 2852   4.000  14.968  11.109  0.1598 -0.4475 -0.2430
  179loPI   GL1 2853   4.061  14.787  10.746  0.3131  0.1191 -0.1269
  179loPI   GL2 2854   3.913  14.655  10.538  0.0027 -0.0290 -0.2874
  179loPI   C1A 2855   4.351  14.710  10.338 -0.3366 -0.1474 -0.1744
  179loPI   C2A 2856   4.411  14.722   9.965 -0.0707 -0.0502  0.2246
  179loPI   C3A 2857   4.430  14.835   9.503  0.3512  0.0873 -0.1225
  179loPI   C4A 2858   4.439  14.852   9.063 -0.0393  0.2949  0.2023
  179loPI   C5A 2859   4.465  14.829   8.629  0.2790 -0.1275 -0.0329
  179loPI   C6A 2860   4.211  14.609   8.351 -0.1318 -0.1404  0.2275
  179loPI   C1B 2861   3.924  14.593  10.020  0.0514  0.0961 -0.1647
  179loPI   C2B 2862   4.021  14.536   9.612 -0.1765  0.0168  0.2282
  179loPI   C3B 2863   4.007  14.547   9.221  0.0063  0.1819  0.2071
  179loPI   C4B 2864   3.946  14.571   8.800  0.0602 -0.0015  0.2815
  180loPI    C1 2865   9.740  15.408  11.106  0.1647  0.2577  0.1859
  180loPI    C2 2866   9.660  15.235  11.458  0.2887 -0.0349  0.0740
  180loPI    C3 2867   9.785  15.615  11.445 -0.1018  0.1084  0.3158
  180loPI   PO4 2868   9.779  15.279  10.977 -0.2399 -0.0986  0.0071
  180loPI   GL1 2869   9.847  15.053  10.639 -0.1673  0.1515  0.3468
  180loPI   GL2 2870   9.715  14.848  10.746 -0.1987  0.1417 -0.1104
  180loPI   C1A 2871   9.882  15.108  10.223  0.0758  0.0296  0.0850
  180loPI   C2A 2872   9.805  15.002   9.811  0.7067 -0.0924 -0.1034
  180loPI   C3A 2873   9.851  15.033   9.331  0.2699 -0.0733  0.1284
  180loPI   C4A 2874   9.896  15.134   8.902 -0.3560 -0.1005 -0.0464
  180loPI   C5A 2875   9.760  14.965   8.541 -0.1119 -0.0737  0.0403
  180loPI   C6A 2876   9.715  14.957   8.136  0.1207  0.0564  0.0840
  180loPI   C1B 2877   9.690  14.680  10.355  0.0185  0.2399 -0.1045
  180loPI   C2B 2878   9.803  14.535  10.013  0.1949 -0.1080 -0.0856
  180loPI   C3B 2879   9.906  14.584   9.559  0.3535  0.1488  0.1307
  180loPI   C4B 2880   9.848  14.513   9.107 -0.1194  0.0242  0.1676
  181loPI    C1 2881   4.262   8.877  10.941 -0.1027  0.2370  0.0303
  181loPI    C2 2882   4.249   9.161  11.222 -0.2492  0.2407  0.0208
  181loPI    C3 2883   4.535   8.881  11.233 -0.2188  0.2759  0.1391
  181loPI   PO4 2884   4.209   8.836  10.639 -0.2571  0.0287 -0.0057
  181loPI   GL1 2885   4.089   8.933  10.228 -0.1523 -0.1916 -0.3162
  181loPI   GL2 2886   3.743   8.826  10.048  0.3966 -0.1225 -0.1445
  181loPI   C1A 2887   4.241   8.930   9.857 -0.0412 -0.1718  0.1406
  181loPI   C2A 2888   4.192   9.028   9.483 -0.1101 -0.0946 -0.1077
  181loPI   C3A 2889   4.049   8.939   9.171  0.0017  0.3100 -0.4783
  181loPI   C4A 2890   4.237   9.082   8.789 -0.3049 -0.1979  0.0121
  181loPI   C5A 2891   4.265   9.130   8.339 -0.0185  0.0395 -0.2216
  181loPI   C6A 2892   4.407   9.393   7.963  0.2738  0.1240  0.0174
  181loPI   C1B 2893   3.675   8.741   9.627  0.1710  0.1291 -0.1781
  181loPI   C2B 2894   3.661   8.678   9.230 -0.0550 -0.0746  0.1188
  181loPI   C3B 2895   3.672   8.819   8.844 -0.1101 -0.0134  0.2418
  181loPI   C4B 2896   3.857   8.704   8.478 -0.0314 -0.2176  0.1667
  182loPI    C1 2897  17.840   3.514  10.288 -0.0832 -0.1110  0.0354
  182loPI    C2 2898  17.723   3.139  10.362 -0.1745 -0.0492  0.2090
  182loPI    C3 2899  17.602   3.436  10.600 -0.2021  0.1082  0.0011
  182loPI   PO4 2900  17.989   3.507   9.989  0.1897 -0.0692  0.1373
  182loPI   GL1 2901  17.640   3.633   9.626 -0.0396 -0.0903 -0.1329
  182loPI   GL2 2902  17.394   3.469   9.583 -0.1622  0.0048  0.0414
  182loPI   C1A 2903  17.563   3.682   9.147 -0.0975  0.1096 -0.1230
  182loPI   C2A 2904  17.450   3.620   8.704 -0.3438  0.0605  0.0012
  182loPI   C3A 2905  17.490   3.533   8.275  0.1485 -0.2095  0.1677
  182loPI   C4A 2906  17.298   3.638   7.913  0.0750  0.0490  0.0374
  182loPI   C5A 2907  17.508   3.427   7.594 -0.3450 -0.2661  0.1325
  182loPI   C6A 2908  17.894   3.169   7.590  0.0579  0.0932 -0.1474
  182loPI   C1B 2909  17.423   3.071   9.253  0.0987  0.1486 -0.2043
  182loPI   C2B 2910  17.390   3.054   8.821  0.0685 -0.0758 -0.0678
  182loPI   C3B 2911  17.372   2.992   8.450  0.2814  0.0823  0.0090
  182loPI   C4B 2912  17.415   3.071   7.979  0.1366  0.3281  0.0019
  183loPI    C1 2913  12.811   2.185  10.750  0.1302  0.0101 -0.2866
  183loPI    C2 2914  13.071   2.473  10.848  0.1585 -0.1552  0.1469
  183loPI    C3 2915  12.746   2.411  11.073  0.0692 -0.3592 -0.0340
  183loPI   PO4 2916  12.683   2.140  10.529  0.1974  0.2102 -0.2616
  183loPI   GL1 2917  12.739   2.114  10.114  0.2427 -0.2465  0.0785
  183loPI   GL2 2918  12.428   2.006  10.140 -0.2946 -0.2560 -0.1270
  183loPI   C1A 2919  12.797   2.251   9.604  0.1243  0.0772  0.0852
  183loPI   C2A 2920  12.858   2.258   9.226 -0.2601  0.4694 -0.4477
  183loPI   C3A 2921  12.878   2.319   8.804  0.1212  0.0181 -0.1846
  183loPI   C4A 2922  12.897   2.415   8.400 -0.0098 -0.0547  0.3051
  183loPI   C5A 2923  12.876   2.390   7.947  0.1567  0.1310 -0.0846
  183loPI   C6A 2924  12.854   2.526   7.495  0.1722  0.0359 -0.0064
  183loPI   C1B 2925  12.380   1.980   9.700 -0.0648  0.3312 -0.5044
  183loPI   C2B 2926  12.336   2.045   9.301  0.0594  0.1154 -0.0704
  183loPI   C3B 2927  12.342   2.096   8.876 -0.0041 -0.2768  0.0373
  183loPI   C4B 2928  12.434   2.131   8.499 -0.0830  0.1921 -0.2121
  184loPI    C1 2929   7.451  12.608  11.228 -0.2634 -0.0934  0.1676
  184loPI    C2 2930   7.640  12.368  11.486 -0.0418 -0.1695 -0.0615
  184loPI    C3 2931   7.579  12.753  11.578  0.0626 -0.1881  0.0904
  184loPI   PO4 2932   7.649  12.592  11.045 -0.3030  0.0720  0.1949
  184loPI   GL1 2933   7.720  12.551  10.714 -0.1516 -0.1891  0.0604
  184loPI   GL2 2934   7.896  12.492  10.474 -0.2596 -0.1454 -0.2248
  184loPI   C1A 2935   7.442  12.310  10.316  0.0537 -0.1506  0.2590
  184loPI   C2A 2936   7.560  12.219   9.766 -0.1065 -0.1696 -0.0001
  184loPI   C3A 2937   7.499  12.305   9.306  0.3133 -0.0004 -0.3853
  184loPI   C4A 2938   7.514  12.298   8.889 -0.3309 -0.0925 -0.1323
  184loPI   C5A 2939   7.399  12.298   8.444 -0.3040 -0.1129  0.3119
  184loPI   C6A 2940   7.155  12.060   8.115  0.1127 -0.4603  0.0001
  184loPI   C1B 2941   8.004  12.480  10.011  0.0720  0.2063  0.0854
  184loPI   C2B 2942   8.059  12.528   9.635 -0.0023 -0.0386  0.1418
  184loPI   C3B 2943   7.950  12.568   9.230 -0.0646 -0.2298 -0.0618
  184loPI   C4B 2944   7.988  12.547   8.794  0.1244  0.0089 -0.0160
  185loPI    C1 2945  12.188   9.169  10.641 -0.0919  0.2469 -0.1373
  185loPI    C2 2946  12.531   9.234  10.835 -0.0449  0.2324 -0.2150
  185loPI    C3 2947  12.192   9.184  11.041  0.0563 -0.0963 -0.1221
  185loPI   PO4 2948  12.185   9.353  10.485 -0.0120  0.2906 -0.3902
  185loPI   GL1 2949  12.090   9.570  10.176 -0.0260 -0.0464 -0.0563
  185loPI   GL2 2950  11.918   9.884  10.045 -0.2477  0.1795  0.2073
  185loPI   C1A 2951  12.330   9.540   9.786 -0.0369  0.1900  0.0375
  185loPI   C2A 2952  12.397   9.707   9.344 -0.1417  0.0021 -0.0819
  185loPI   C3A 2953  12.361   9.640   8.874 -0.0095  0.0764  0.2016
  185loPI   C4A 2954  12.301   9.734   8.535 -0.1546 -0.0506  0.2938
  185loPI   C5A 2955  12.438   9.703   8.034  0.2010  0.0011  0.1910
  185loPI   C6A 2956  12.569  10.128   7.767  0.3924 -0.2670 -0.2103
  185loPI   C1B 2957  11.973   9.886   9.626  0.1081  0.0991  0.0522
  185loPI   C2B 2958  11.930   9.952   9.152  0.0747  0.0704  0.0112
  185loPI   C3B 2959  11.836   9.932   8.666  0.2052 -0.0432 -0.1165
  185loPI   C4B 2960  11.911   9.914   8.171  0.2667  0.0521 -0.1080
  186loPI    C1 2961  10.473   9.059  10.790 -0.1294 -0.1997 -0.1076
  186loPI    C2 2962  10.214   9.245  11.031 -0.0754  0.0660 -0.2516
  186loPI    C3 2963  10.336   8.874  11.117  0.1319  0.2451  0.2644
  186loPI   PO4 2964  10.331   9.085  10.525 -0.1825  0.1709  0.3077
  186loPI   GL1 2965  10.399   8.990  10.190 -0.2411  0.0516 -0.0010
  186loPI   GL2 2966  10.482   8.669  10.042 -0.0657 -0.2437  0.1051
  186loPI   C1A 2967  10.463   9.148   9.814 -0.1164  0.0844 -0.0572
  186loPI   C2A 2968  10.440   9.184   9.382 -0.0237 -0.0131  0.1525
  186loPI   C3A 2969  10.462   9.176   8.961 -0.3206  0.0040 -0.1438
  186loPI   C4A 2970  10.551   9.206   8.630 -0.2249  0.1314  0.1573
  186loPI   C5A 2971  10.608   9.254   8.231 -0.0356 -0.1174  0.0346
  186loPI   C6A 2972  10.456   9.448   7.875  0.0644 -0.0628 -0.1778
  186loPI   C1B 2973  10.476   8.697   9.637 -0.1023 -0.0557 -0.0816
  186loPI   C2B 2974  10.365   8.703   9.208 -0.1076  0.5301 -0.1112
  186loPI   C3B 2975  10.482   8.747   8.792  0.2428 -0.3603  0.2829
  186loPI   C4B 2976  10.405   8.764   8.389 -0.0410 -0.0001  0.2561
  187loPI    C1 2977   8.800   2.610  11.164 -0.1509 -0.0658 -0.0012
  187loPI    C2 2978   8.636   2.434  11.484  0.0876 -0.0976  0.1065
  187loPI    C3 2979   8.929   2.701  11.532  0.0192  0.0131 -0.0792
  187loPI   PO4 2980   8.594   2.605  10.971  0.3132  0.0927 -0.0313
  187loPI   GL1 2981   8.570   2.622  10.428 -0.0191  0.1083  0.1993
  187loPI   GL2 2982   8.801   2.669  10.266  0.1596  0.2730  0.0894
  187loPI   C1A 2983   8.280   2.579  10.025  0.1373  0.0345  0.1268
  187loPI   C2A 2984   8.292   2.579   9.423 -0.0942  0.2198 -0.0522
  187loPI   C3A 2985   8.331   2.479   8.968 -0.1223 -0.3655 -0.3775
  187loPI   C4A 2986   8.330   2.513   8.620  0.1177  0.1277  0.0369
  187loPI   C5A 2987   8.492   2.564   8.120 -0.1755  0.2371 -0.1190
  187loPI   C6A 2988   8.477   2.508   7.652  0.0412  0.0190 -0.0831
  187loPI   C1B 2989   8.735   2.709   9.881 -0.1069  0.3108  0.1147
  187loPI   C2B 2990   8.831   2.801   9.486  0.0678  0.3357 -0.1201
  187loPI   C3B 2991   8.781   2.819   9.072  0.0670  0.1536 -0.0215
  187loPI   C4B 2992   8.738   2.739   8.599 -0.0310 -0.0309 -0.0451
  188loPI    C1 2993   4.834   8.281  10.743  0.1518 -0.1577  0.1456
  188loPI    C2 2994   4.716   8.649  10.849  0.0215 -0.1963  0.1365
  188loPI    C3 2995   4.828   8.387  11.129  0.2115 -0.1176  0.1357
  188loPI   PO4 2996   4.741   8.010  10.605  0.1058 -0.2185  0.3023
  188loPI   GL1 2997   4.525   7.980  10.195 -0.1142 -0.0396 -0.3751
  188loPI   GL2 2998   4.621   8.265  10.111 -0.1077  0.1901  0.1809
  188loPI   C1A 2999   4.561   7.801   9.869 -0.4093 -0.0578 -0.0014
  188loPI   C2A 3000   4.387   7.763   9.486  0.1111 -0.1356 -0.0671
  188loPI   C3A 3001   4.431   7.727   8.996  0.0511  0.1693 -0.2201
  188loPI   C4A 3002   4.516   7.758   8.597 -0.2601 -0.0431  0.0141
  188loPI   C5A 3003   4.485   7.892   8.231 -0.1498  0.0162  0.0865
  188loPI   C6A 3004   4.336   7.775   7.790  0.1017  0.0389 -0.2111
  188loPI   C1B 3005   4.658   8.219   9.630  0.1651  0.1151  0.4360
  188loPI   C2B 3006   4.544   8.228   9.175 -0.1895  0.0836  0.0357
  188loPI   C3B 3007   4.538   8.277   8.741  0.0692  0.0141  0.1397
  188loPI   C4B 3008   4.229   8.334   8.397  0.3752  0.1065 -0.0006
  189loPI    C1 3009  17.809   6.393  10.480  0.4308  0.1509 -0.2345
  189loPI    C2 3010  18.138   6.517  10.671  0.1639  0.2972  0.1434
  189loPI    C3 3011  17.869   6.291  10.862  0.0598  0.1468 -0.1737
  189loPI   PO4 3012  17.929   6.259  10.194  0.1198 -0.0172  0.1294
  189loPI   GL1 3013  17.715   6.155   9.778 -0.0259 -0.0735 -0.1697
  189loPI   GL2 3014  17.552   5.971   9.665  0.1110  0.2600  0.0141
  189loPI   C1A 3015  17.675   6.287   9.325 -0.1896  0.2756  0.0358
  189loPI   C2A 3016  17.660   6.314   8.887  0.2138 -0.2993  0.3840
  189loPI   C3A 3017  17.686   6.256   8.537  0.0656 -0.4074 -0.2131
  189loPI   C4A 3018  17.554   6.217   8.080  0.0766  0.2641  0.3362
  189loPI   C5A 3019  17.525   6.124   7.620 -0.0390  0.1202  0.2338
  189loPI   C6A 3020  17.387   5.863   7.436  0.0256 -0.0434  0.0247
  189loPI   C1B 3021  17.633   5.808   9.174 -0.2814  0.1713  0.2054
  189loPI   C2B 3022  17.569   5.759   8.782  0.0345  0.1207 -0.0656
  189loPI   C3B 3023  17.605   5.790   8.353  0.1086 -0.2058  0.1520
  189loPI   C4B 3024  17.564   5.659   7.901 -0.0352  0.1630 -0.0214
  190loPI    C1 3025  11.838  17.640  10.825  0.0615  0.1620 -0.0553
  190loPI    C2 3026  12.026  17.482  11.141 -0.1595 -0.3827 -0.1852
  190loPI    C3 3027  11.693  17.698  11.193 -0.0467 -0.2442 -0.0290
  190loPI   PO4 3028  11.967  17.735  10.667  0.0648  0.0657  0.1904
  190loPI   GL1 3029  12.008  17.843  10.341 -0.2852  0.0348  0.1198
  190loPI   GL2 3030  12.275  17.599  10.128  0.3044 -0.2500 -0.0389
  190loPI   C1A 3031  11.969  18.009   9.930  0.1435 -0.1404  0.0304
  190loPI   C2A 3032  11.879  18.076   9.522  0.2539  0.1693  0.2863
  190loPI   C3A 3033  11.839  18.175   9.110  0.0103 -0.4710  0.0849
  190loPI   C4A 3034  11.826  18.213   8.678  0.1788 -0.0421 -0.0788
  190loPI   C5A 3035  11.791  18.179   8.205 -0.1252  0.1227 -0.0386
  190loPI   C6A 3036  11.799  18.379   7.813  0.0919  0.0947 -0.0885
  190loPI   C1B 3037  12.254  17.770   9.662 -0.1500  0.0113  0.0032
  190loPI   C2B 3038  12.251  17.792   9.229  0.2407  0.1539  0.1468
  190loPI   C3B 3039  12.297  17.848   8.858 -0.1016  0.1177  0.1804
  190loPI   C4B 3040  12.231  17.953   8.454  0.0907  0.0633 -0.0564
  191loPI    C1 3041   9.385   5.461  10.788 -0.0894 -0.0120  0.2230
  191loPI    C2 3042   9.488   5.288  11.134  0.1098 -0.0484  0.1472
  191loPI    C3 3043   9.103   5.362  11.053  0.0235 -0.4278  0.1943
  191loPI   PO4 3044   9.441   5.282  10.645  0.1570 -0.1808  0.0941
  191loPI   GL1 3045   9.573   5.150  10.244  0.0555  0.0163  0.0000
  191loPI   GL2 3046   9.774   5.419  10.046  0.0503  0.2343  0.3309
  191loPI   C1A 3047   9.407   5.080   9.884  0.4316  0.2660 -0.2073
  191loPI   C2A 3048   9.464   5.145   9.467 -0.2992 -0.0036  0.0768
  191loPI   C3A 3049   9.456   5.041   9.037  0.1684  0.1442  0.0261
  191loPI   C4A 3050   9.411   5.063   8.536  0.0602 -0.0234 -0.0368
  191loPI   C5A 3051   9.412   5.200   8.172  0.0925 -0.4698  0.2255
  191loPI   C6A 3052   9.135   5.376   7.912  0.0818  0.1173  0.2276
  191loPI   C1B 3053   9.901   5.396   9.636  0.1065  0.0077  0.2217
  191loPI   C2B 3054   9.857   5.293   9.217  0.2435  0.0188 -0.1132
  191loPI   C3B 3055   9.854   5.435   8.853  0.0393  0.0267  0.0357
  191loPI   C4B 3056   9.873   5.336   8.460 -0.1101  0.4655  0.2494
  192loPI    C1 3057  12.734   7.399  10.672 -0.0156  0.1026  0.2567
  192loPI    C2 3058  12.415   7.176  10.763 -0.0907  0.1554  0.1252
  192loPI    C3 3059  12.755   7.130  10.968 -0.0563 -0.1915 -0.0025
  192loPI   PO4 3060  12.648   7.415  10.378 -0.0301  0.0376  0.0712
  192loPI   GL1 3061  12.428   7.468   9.896 -0.0387  0.3414  0.0657
  192loPI   GL2 3062  12.651   7.767   9.888 -0.0085 -0.1503 -0.0265
  192loPI   C1A 3063  12.608   7.257   9.471  0.2510 -0.0106 -0.1376
  192loPI   C2A 3064  12.659   7.237   8.995 -0.0164  0.1583  0.1793
  192loPI   C3A 3065  12.635   7.210   8.679  0.2255 -0.3947  0.0279
  192loPI   C4A 3066  12.535   7.268   8.318  0.1153  0.1280 -0.1307
  192loPI   C5A 3067  12.686   7.282   7.958 -0.1419 -0.3079  0.0658
  192loPI   C6A 3068  12.403   7.594   7.699  0.0433 -0.1880 -0.2033
  192loPI   C1B 3069  12.640   7.767   9.410  0.0291 -0.0685  0.0951
  192loPI   C2B 3070  12.724   7.749   9.018  0.0589  0.0737 -0.0759
  192loPI   C3B 3071  12.640   7.761   8.546  0.0934 -0.0999 -0.2700
  192loPI   C4B 3072  12.609   7.749   8.104 -0.2641  0.0476 -0.2455
  193loPI    C1 3073  10.652  15.186  11.284  0.1719  0.0067 -0.2864
  193loPI    C2 3074  10.905  15.495  11.307  0.1214  0.0448 -0.2420
  193loPI    C3 3075  10.921  15.203  11.580 -0.0452  0.1708 -0.0950
  193loPI   PO4 3076  10.700  15.013  10.938 -0.3642  0.0586 -0.1383
  193loPI   GL1 3077  10.649  14.830  10.550  0.1551  0.1383  0.0086
  193loPI   GL2 3078  10.690  14.529  10.512  0.0153  0.1645  0.3449
  193loPI   C1A 3079  10.841  14.976  10.086 -0.0645 -0.1648  0.4239
  193loPI   C2A 3080  10.812  15.025   9.679  0.1659  0.2319 -0.1417
  193loPI   C3A 3081  10.883  14.994   9.359  0.0323  0.2843 -0.2217
  193loPI   C4A 3082  10.818  15.051   8.938 -0.1238  0.1869 -0.0660
  193loPI   C5A 3083  10.565  14.928   8.531  0.2259  0.0722  0.2035
  193loPI   C6A 3084  10.232  14.980   8.311  0.2088 -0.0090  0.1764
  193loPI   C1B 3085  10.815  14.387  10.078  0.2456 -0.2105  0.0410
  193loPI   C2B 3086  10.835  14.491   9.656 -0.3559  0.1204  0.2683
  193loPI   C3B 3087  10.856  14.468   9.209  0.1616 -0.0291 -0.1093
  193loPI   C4B 3088  10.689  14.575   8.836  0.1165  0.0927 -0.3215
  194loPI    C1 3089   1.736   1.227  10.603  0.2303  0.0537  0.1795
  194loPI    C2 3090   1.560   1.585  10.578 -0.0843 -0.1251 -0.3357
  194loPI    C3 3091   1.492   1.352  10.896 -0.2608  0.0740 -0.2241
  194loPI   PO4 3092   1.875   1.191  10.317  0.7206  0.1265  0.0067
  194loPI   GL1 3093   2.038   0.880   9.947  0.2546 -0.0026  0.1084
  194loPI   GL2 3094   1.814   0.773   9.849  0.2953  0.0206  0.2661
  194loPI   C1A 3095   2.357   0.960   9.652  0.2923  0.0944 -0.3627
  194loPI   C2A 3096   2.449   0.965   9.202 -0.0698  0.0348 -0.0196
  194loPI   C3A 3097   2.392   1.013   8.796 -0.0526 -0.0067  0.2985
  194loPI   C4A 3098   2.526   0.869   8.395  0.2740  0.2919 -0.0709
  194loPI   C5A 3099   2.404   0.577   8.027  0.0748 -0.1393  0.0651
  194loPI   C6A 3100   2.076   0.560   7.703 -0.0460 -0.2031 -0.1301
  194loPI   C1B 3101   1.969   0.736   9.446  0.0179 -0.1466 -0.0334
  194loPI   C2B 3102   1.956   0.778   9.011 -0.2307  0.0512 -0.0118
  194loPI   C3B 3103   2.016   0.672   8.559 -0.4775 -0.1887  0.0131
  194loPI   C4B 3104   1.950   0.593   8.167  0.1045  0.1958 -0.1534
  195loPI    C1 3105   3.253   6.408  10.100  0.1840  0.2494 -0.1081
  195loPI    C2 3106   3.554   6.312  10.345  0.0306 -0.0025 -0.0143
  195loPI    C3 3107   3.384   6.031  10.116 -0.2574  0.0969  0.0733
  195loPI   PO4 3108   3.319   6.606  10.005  0.0865 -0.2971  0.3106
  195loPI   GL1 3109   3.282   6.798   9.651 -0.0392 -0.2300 -0.0211
  195loPI   GL2 3110   3.513   6.616   9.560 -0.2822  0.0261  0.0540
  195loPI   C1A 3111   2.950   6.569   9.293 -0.1300 -0.1647 -0.2341
  195loPI   C2A 3112   2.982   6.439   8.855 -0.1552  0.1000  0.0539
  195loPI   C3A 3113   2.977   6.495   8.455 -0.1616  0.1034  0.0809
  195loPI   C4A 3114   2.988   6.569   7.938 -0.2127 -0.2753 -0.0103
  195loPI   C5A 3115   3.164   6.669   7.562  0.1974  0.0092  0.2741
  195loPI   C6A 3116   3.054   7.106   7.341  0.1775 -0.0004 -0.0211
  195loPI   C1B 3117   3.419   6.750   9.138  0.2446  0.0097 -0.1204
  195loPI   C2B 3118   3.341   6.743   8.736 -0.1160 -0.0774 -0.3166
  195loPI   C3B 3119   3.543   6.744   8.347 -0.0554  0.4260  0.1129
  195loPI   C4B 3120   3.679   6.712   7.906  0.0632  0.3299  0.0976
  196loPI    C1 3121  17.856  16.026  10.628 -0.0148  0.1134 -0.1289
  196loPI    C2 3122  17.802  16.246  10.957 -0.0007 -0.0315 -0.0287
  196loPI    C3 3123  17.590  16.325  10.627  0.1208  0.2358 -0.0455
  196loPI   PO4 3124  17.820  15.865  10.570  0.1295  0.0118 -0.2042
  196loPI   GL1 3125  17.670  15.784  10.240  0.0359 -0.2247 -0.3653
  196loPI   GL2 3126  17.329  15.950  10.252  0.1632 -0.4151 -0.0452
  196loPI   C1A 3127  17.874  15.852   9.926  0.2846 -0.0783  0.1767
  196loPI   C2A 3128  17.927  15.907   9.468  0.2303  0.3603 -0.2342
  196loPI   C3A 3129  17.975  15.849   9.033  0.2340 -0.2048  0.2122
  196loPI   C4A 3130  18.125  15.803   8.611  0.0784  0.1921 -0.3620
  196loPI   C5A 3131  17.911  15.905   8.171  0.0038  0.0531  0.0770
  196loPI   C6A 3132  17.738  15.739   7.844 -0.3195  0.0647 -0.0987
  196loPI   C1B 3133  17.469  16.115   9.872  0.0133  0.0302  0.1357
  196loPI   C2B 3134  17.500  16.137   9.399 -0.1699  0.1519 -0.1365
  196loPI   C3B 3135  17.437  16.009   9.026  0.1603 -0.0170 -0.1936
  196loPI   C4B 3136  17.654  15.947   8.663  0.1495 -0.0448 -0.1781
  197loPI    C1 3137   8.828  10.646  11.193 -0.1622  0.4913  0.1066
  197loPI    C2 3138   8.583  10.465  11.452 -0.0348 -0.2833 -0.2810
  197loPI    C3 3139   8.966  10.527  11.549 -0.0161 -0.4623 -0.2371
  197loPI   PO4 3140   8.735  10.550  10.929  0.1100  0.4190  0.2696
  197loPI   GL1 3141   8.775  10.718  10.459 -0.0853 -0.0201 -0.0898
  197loPI   GL2 3142   8.952  10.482  10.423  0.0544 -0.1312  0.3105
  197loPI   C1A 3143   8.505  10.729  10.033 -0.2363 -0.1562 -0.1838
  197loPI   C2A 3144   8.323  10.657   9.677 -0.0637  0.0397  0.0482
  197loPI   C3A 3145   8.345  10.666   9.173 -0.1397  0.2333 -0.1116
  197loPI   C4A 3146   8.308  10.587   8.761  0.1956 -0.2256 -0.0206
  197loPI   C5A 3147   8.328  10.851   8.443 -0.0330  0.1671  0.1714
  197loPI   C6A 3148   8.106  11.104   8.244 -0.0644 -0.5144  0.0692
  197loPI   C1B 3149   8.860  10.380   9.937  0.2198  0.2646  0.0463
  197loPI   C2B 3150   8.719  10.361   9.522  0.1042 -0.2600 -0.1045
  197loPI   C3B 3151   8.786  10.345   9.035 -0.0462 -0.1450 -0.1152
  197loPI   C4B 3152   8.836  10.436   8.636  0.1397 -0.0486  0.0562
  198loPI    C1 3153   0.441  10.574  10.631  0.0510  0.0220  0.2179
  198loPI    C2 3154   0.436  10.396  10.989  0.1583 -0.0050  0.2065
  198loPI    C3 3155   0.344  10.784  10.957  0.0846 -0.0184  0.2542
  198loPI   PO4 3156   0.644  10.350  10.515 -0.3597  0.2796  0.3862
  198loPI   GL1 3157   0.587  10.313  10.066  0.0046 -0.3132  0.0609
  198loPI   GL2 3158   0.927  10.390  10.090  0.0404  0.2726  0.1687
  198loPI   C1A 3159   0.602  10.321   9.696 -0.0119  0.0327 -0.2533
  198loPI   C2A 3160   0.699  10.344   9.224  0.0258 -0.0551 -0.2181
  198loPI   C3A 3161   0.667  10.350   8.813 -0.0758 -0.2619  0.2921
  198loPI   C4A 3162   0.647  10.289   8.463  0.0554  0.6140 -0.2960
  198loPI   C5A 3163   0.387  10.331   8.126  0.1692  0.2086  0.0071
  198loPI   C6A 3164   0.016  10.612   7.969 -0.0913  0.1702  0.1567
  198loPI   C1B 3165   1.118  10.477   9.648 -0.3125  0.1083 -0.2443
  198loPI   C2B 3166   1.160  10.567   9.113  0.1871  0.2197  0.4810
  198loPI   C3B 3167   1.190  10.611   8.679  0.4202 -0.0194  0.1921
  198loPI   C4B 3168   1.273  10.371   8.224  0.0206 -0.1774  0.1268
  199loPI    C1 3169   7.780  18.279  10.885 -0.2140 -0.0299 -0.0470
  199loPI    C2 3170   7.976  17.989  11.078 -0.3944 -0.1411 -0.0285
  199loPI    C3 3171   7.750  18.248  11.282 -0.1059  0.1150 -0.0267
  199loPI   PO4 3172   7.978  18.328  10.577 -0.1199  0.1283 -0.1509
  199loPI   GL1 3173   8.126  18.477  10.146 -0.3823  0.2036  0.0739
  199loPI   GL2 3174   8.332  18.743  10.041  0.3826 -0.3034 -0.1403
  199loPI   C1A 3175   8.251  18.356   9.712  0.3740 -0.0503 -0.2718
  199loPI   C2A 3176   8.291  18.242   9.207  0.0927 -0.1987  0.0157
  199loPI   C3A 3177   8.275  18.298   8.805 -0.1870 -0.1729 -0.1142
  199loPI   C4A 3178   8.283  18.228   8.370  0.0500 -0.0447  0.2150
  199loPI   C5A 3179   8.610  18.334   8.088  0.2059 -0.0711 -0.0650
  199loPI   C6A 3180   8.797  18.707   8.028 -0.2820 -0.0507  0.0235
  199loPI   C1B 3181   8.228  18.841   9.627 -0.1008  0.1316 -0.1047
  199loPI   C2B 3182   8.322  18.791   9.229 -0.0975  0.1120  0.1423
  199loPI   C3B 3183   8.348  18.837   8.761 -0.2841 -0.1239  0.0078
  199loPI   C4B 3184   8.401  18.699   8.368 -0.0064 -0.2313  0.1252
  200loPI    C1 3185  12.513  16.916  10.745  0.2458  0.1809  0.1474
  200loPI    C2 3186  12.537  17.234  10.988  0.0942  0.2005  0.1379
  200loPI    C3 3187  12.651  16.873  11.118 -0.1921  0.1701  0.3149
  200loPI   PO4 3188  12.505  16.974  10.573  0.1477  0.0280  0.1174
  200loPI   GL1 3189  12.400  17.044  10.120 -0.1947 -0.3038 -0.2468
  200loPI   GL2 3190  12.654  17.000   9.941  0.1315  0.1351  0.1521
  200loPI   C1A 3191  12.233  17.264   9.757 -0.0855  0.1341 -0.2393
  200loPI   C2A 3192  12.209  17.313   9.408 -0.2018 -0.0469 -0.2272
  200loPI   C3A 3193  12.212  17.302   8.959 -0.0624  0.3865 -0.2588
  200loPI   C4A 3194  12.214  17.462   8.486  0.1109  0.1971 -0.1028
  200loPI   C5A 3195  12.223  17.367   8.134 -0.1781 -0.2429 -0.1371
  200loPI   C6A 3196  12.311  17.280   7.703  0.0334 -0.4453 -0.2401
  200loPI   C1B 3197  12.652  17.020   9.520 -0.0233  0.0701 -0.2043
  200loPI   C2B 3198  12.646  17.022   9.133 -0.0428  0.2354  0.4355
  200loPI   C3B 3199  12.688  17.098   8.691 -0.2183  0.0136  0.1665
  200loPI   C4B 3200  12.811  17.270   8.280  0.1107  0.0678 -0.0650
  201loPI    C1 3201  16.987   3.707  10.175  0.0962 -0.1614  0.0021
  201loPI    C2 3202  17.265   3.912  10.376  0.0511 -0.1404  0.0430
  201loPI    C3 3203  17.162   3.545  10.496  0.1182 -0.1797 -0.0191
  201loPI   PO4 3204  16.771   3.835  10.155 -0.1947  0.1367  0.2878
  201loPI   GL1 3205  16.646   3.949   9.778 -0.1952  0.2066 -0.3342
  201loPI   GL2 3206  16.666   4.345   9.765 -0.1057  0.0216 -0.1973
  201loPI   C1A 3207  16.590   3.832   9.417  0.0799 -0.3379 -0.1778
  201loPI   C2A 3208  16.632   3.645   9.051  0.2019  0.1400 -0.2165
  201loPI   C3A 3209  16.521   3.649   8.613 -0.0459  0.2224  0.3380
  201loPI   C4A 3210  16.561   3.649   8.210 -0.0177 -0.0581  0.1354
  201loPI   C5A 3211  16.678   3.686   7.816  0.4753  0.0115  0.2939
  201loPI   C6A 3212  16.930   3.697   7.543 -0.2532  0.0168  0.1112
  201loPI   C1B 3213  16.718   4.283   9.315 -0.0014 -0.0774 -0.3644
  201loPI   C2B 3214  16.571   4.290   8.934 -0.2071 -0.2379 -0.1273
  201loPI   C3B 3215  16.587   4.141   8.532 -0.1201 -0.3183  0.1732
  201loPI   C4B 3216  16.551   4.154   8.102 -0.1309 -0.0687  0.3244
  202loPI    C1 3217  10.028  12.743  11.055  0.0788 -0.0463 -0.0783
  202loPI    C2 3218  10.309  13.027  11.041  0.1550 -0.1107  0.1010
  202loPI    C3 3219   9.974  13.088  11.251 -0.0606  0.0466 -0.2766
  202loPI   PO4 3220  10.019  12.642  10.860  0.1131  0.0609 -0.1647
  202loPI   GL1 3221  10.157  12.398  10.528 -0.1140 -0.1855  0.3158
  202loPI   GL2 3222   9.909  12.240  10.485 -0.2056 -0.1407  0.1363
  202loPI   C1A 3223  10.151  12.761  10.178  0.2184  0.0214  0.3045
  202loPI   C2A 3224  10.249  12.685   9.743 -0.0611 -0.0923  0.0132
  202loPI   C3A 3225  10.208  12.669   9.352 -0.1899 -0.0177  0.1175
  202loPI   C4A 3226  10.242  12.684   8.974 -0.4689  0.0032 -0.2160
  202loPI   C5A 3227   9.996  12.661   8.680 -0.3387  0.3776  0.2268
  202loPI   C6A 3228   9.607  12.963   8.563  0.3433 -0.0954 -0.1804
  202loPI   C1B 3229   9.775  11.935  10.147  0.2120 -0.0973 -0.0176
  202loPI   C2B 3230   9.743  11.938   9.749 -0.0772 -0.0900  0.2963
  202loPI   C3B 3231   9.744  11.902   9.302 -0.0231  0.2217  0.1548
  202loPI   C4B 3232   9.697  11.931   8.857  0.0618 -0.3568 -0.1627
  203loPI    C1 3233  13.674  10.507  11.004 -0.1719 -0.1914  0.0329
  203loPI    C2 3234  13.508  10.672  11.328 -0.0930 -0.0605  0.0072
  203loPI    C3 3235  13.702  10.324  11.359  0.2382  0.1339  0.1772
  203loPI   PO4 3236  13.738  10.665  10.887  0.0908 -0.1789 -0.0084
  203loPI   GL1 3237  13.772  10.843  10.455  0.2871 -0.2047 -0.1146
  203loPI   GL2 3238  14.037  10.738  10.501  0.0189 -0.1586 -0.2286
  203loPI   C1A 3239  13.736  10.957   9.948 -0.0871  0.0745  0.3458
  203loPI   C2A 3240  13.778  10.969   9.563  0.0753 -0.2864  0.0827
  203loPI   C3A 3241  13.728  10.861   9.251  0.0065  0.4236 -0.1223
  203loPI   C4A 3242  13.676  10.887   8.865 -0.2031  0.1204 -0.0435
  203loPI   C5A 3243  13.705  10.790   8.448  0.1532  0.2170  0.2865
  203loPI   C6A 3244  13.807  10.402   8.283 -0.0937  0.2010 -0.0609
  203loPI   C1B 3245  14.183  10.785  10.065  0.0242  0.2316 -0.1882
  203loPI   C2B 3246  14.251  10.709   9.628 -0.0697  0.1158 -0.4738
  203loPI   C3B 3247  14.158  10.655   9.261 -0.0841  0.0046  0.0031
  203loPI   C4B 3248  14.184  10.527   8.817 -0.3606  0.1435  0.0286
  204loPI    C1 3249   6.302  15.122  10.738 -0.0730  0.2382  0.0958
  204loPI    C2 3250   6.338  15.520  10.711  0.2911  0.2021 -0.0164
  204loPI    C3 3251   6.642  15.284  10.602  0.0197 -0.1148 -0.1062
  204loPI   PO4 3252   6.071  15.046  10.656  0.0380  0.0399 -0.2357
  204loPI   GL1 3253   5.744  14.943  10.327 -0.1648 -0.2057  0.1422
  204loPI   GL2 3254   5.514  15.160  10.215 -0.1176  0.2645  0.0830
  204loPI   C1A 3255   5.810  14.964   9.851  0.4357  0.0934 -0.1459
  204loPI   C2A 3256   5.845  14.989   9.388  0.2294  0.1558 -0.2092
  204loPI   C3A 3257   5.845  14.989   9.004  0.1375 -0.1075 -0.0110
  204loPI   C4A 3258   5.857  14.981   8.598  0.1713 -0.1520 -0.0323
  204loPI   C5A 3259   5.877  14.923   8.053  0.0254 -0.2157 -0.2113
  204loPI   C6A 3260   5.607  14.757   7.713  0.2852 -0.2464 -0.0288
  204loPI   C1B 3261   5.253  15.302  10.013 -0.0136 -0.1452 -0.1305
  204loPI   C2B 3262   5.342  15.284   9.571 -0.1603 -0.0856 -0.0709
  204loPI   C3B 3263   5.448  15.243   9.207 -0.0924 -0.0417 -0.2571
  204loPI   C4B 3264   5.348  15.324   8.803 -0.0491  0.2413  0.1286
  205loPI    C1 3265   4.601   5.376  10.171 -0.0472  0.4045 -0.1895
  205loPI    C2 3266   4.222   5.428  10.287 -0.0281  0.2248 -0.0413
  205loPI    C3 3267   4.521   5.496  10.544  0.0290  0.1357 -0.0841
  205loPI   PO4 3268   4.626   5.539   9.898 -0.2285 -0.0837  0.1578
  205loPI   GL1 3269   4.265   5.638   9.780 -0.0947 -0.3828  0.0704
  205loPI   GL2 3270   3.994   5.435   9.785 -0.2587  0.2872 -0.3305
  205loPI   C1A 3271   4.320   5.665   9.334 -0.0167  0.0319 -0.0196
  205loPI   C2A 3272   4.260   5.636   8.877 -0.1297 -0.0289 -0.1105
  205loPI   C3A 3273   4.352   5.607   8.467 -0.0978 -0.0130  0.1619
  205loPI   C4A 3274   4.467   5.482   8.104  0.2562 -0.0456 -0.0651
  205loPI   C5A 3275   4.601   5.514   7.670  0.3950 -0.1571  0.4869
  205loPI   C6A 3276   4.809   5.150   7.492  0.0097 -0.0221  0.1742
  205loPI   C1B 3277   3.787   5.444   9.369  0.3798  0.0453 -0.1464
  205loPI   C2B 3278   3.895   5.404   9.021  0.3079  0.1137 -0.2485
  205loPI   C3B 3279   3.802   5.316   8.598  0.1429 -0.1679 -0.0594
  205loPI   C4B 3280   3.924   5.476   8.196 -0.3017  0.3145 -0.1571
  206loPI    C1 3281  17.524   4.468  10.273  0.1171  0.1842 -0.1080
  206loPI    C2 3282  17.678   4.167  10.486 -0.0408  0.1031 -0.1064
  206loPI    C3 3283  17.693   4.541  10.628  0.0212  0.0754 -0.0390
  206loPI   PO4 3284  17.398   4.370  10.075  0.4956  0.1370  0.0115
  206loPI   GL1 3285  17.448   4.301   9.651  0.3119 -0.3268  0.1102
  206loPI   GL2 3286  17.157   4.441   9.656 -0.0190  0.0375 -0.0371
  206loPI   C1A 3287  17.604   4.267   9.205  0.0204 -0.1007 -0.0355
  206loPI   C2A 3288  17.598   4.141   8.845  0.1829  0.3833  0.4260
  206loPI   C3A 3289  17.465   4.110   8.438  0.1520  0.0200 -0.3842
  206loPI   C4A 3290  17.524   4.030   8.018 -0.1463 -0.2032 -0.5073
  206loPI   C5A 3291  17.520   3.953   7.562 -0.0145 -0.0941  0.1858
  206loPI   C6A 3292  17.767   4.368   7.321  0.1562 -0.1026 -0.0474
  206loPI   C1B 3293  17.194   4.480   9.162 -0.1262 -0.1891  0.1792
  206loPI   C2B 3294  16.991   4.469   8.777  0.1187  0.2563  0.3066
  206loPI   C3B 3295  17.009   4.360   8.359 -0.1278  0.5363  0.0166
  206loPI   C4B 3296  17.105   4.161   7.892  0.1426 -0.1193 -0.1020
  207loPI    C1 3297  14.208  14.860  11.016 -0.1428 -0.0905 -0.0108
  207loPI    C2 3298  14.413  14.584  11.222 -0.0057  0.0905  0.0977
  207loPI    C3 3299  14.111  14.780  11.396 -0.0060  0.1157  0.0688
  207loPI   PO4 3300  14.144  14.687  10.766 -0.1867  0.0185  0.0990
  207loPI   GL1 3301  14.372  14.624  10.302  0.0334 -0.0270 -0.0216
  207loPI   GL2 3302  14.314  14.873  10.282 -0.1553 -0.1293 -0.1640
  207loPI   C1A 3303  14.712  14.488  10.014  0.2726  0.0581  0.0972
  207loPI   C2A 3304  14.777  14.538   9.587  0.1921 -0.2308 -0.0210
  207loPI   C3A 3305  14.795  14.584   9.161 -0.0646 -0.1007  0.1392
  207loPI   C4A 3306  14.868  14.550   8.799 -0.0528 -0.0137 -0.0156
  207loPI   C5A 3307  14.856  14.598   8.394  0.0226  0.2037 -0.2820
  207loPI   C6A 3308  14.831  14.988   8.117 -0.0526  0.0526  0.1421
  207loPI   C1B 3309  14.317  14.747   9.833  0.0902 -0.2645  0.0814
  207loPI   C2B 3310  14.378  14.793   9.409  0.0912 -0.1972  0.1449
  207loPI   C3B 3311  14.417  14.755   8.950 -0.2962 -0.0204  0.0857
  207loPI   C4B 3312  14.350  14.996   8.612 -0.0408  0.1338  0.2481
  208loPI    C1 3313   1.598   2.094  10.342 -0.0773 -0.1071  0.1046
  208loPI    C2 3314   1.871   1.965  10.604  0.2208  0.2432 -0.0254
  208loPI    C3 3315   1.717   2.333  10.640 -0.1344  0.0999 -0.0365
  208loPI   PO4 3316   1.679   2.093  10.067 -0.1853 -0.1401 -0.1540
  208loPI   GL1 3317   2.036   2.053   9.784  0.2970 -0.0747 -0.2809
  208loPI   GL2 3318   2.143   1.788   9.761 -0.2316 -0.0759 -0.1935
  208loPI   C1A 3319   1.842   2.245   9.461  0.1591 -0.0516  0.2875
  208loPI   C2A 3320   1.801   2.308   9.036  0.1944 -0.1630  0.1180
  208loPI   C3A 3321   1.961   2.408   8.562 -0.2741  0.3032 -0.2255
  208loPI   C4A 3322   1.941   2.164   8.149 -0.1902  0.0368 -0.0868
  208loPI   C5A 3323   2.261   2.167   7.819  0.2400  0.0240 -0.1253
  208loPI   C6A 3324   2.698   2.116   7.543 -0.0055  0.0594 -0.3312
  208loPI   C1B 3325   1.979   1.728   9.383  0.2974 -0.0907  0.2240
  208loPI   C2B 3326   1.949   1.724   8.947 -0.2892 -0.0677  0.2224
  208loPI   C3B 3327   1.963   1.803   8.483 -0.0931  0.0310 -0.1855
  208loPI   C4B 3328   2.061   1.657   8.013  0.2872 -0.0205 -0.1057
  209loPI    C1 3329  12.320  10.042  10.610  0.2296  0.1379 -0.0207
  209loPI    C2 3330  12.525   9.702  10.557 -0.1737 -0.1161  0.0046
  209loPI    C3 3331  12.253   9.728  10.850 -0.1933  0.2084 -0.0385
  209loPI   PO4 3332  12.185  10.161  10.428 -0.0037  0.2197  0.4518
  209loPI   GL1 3333  12.351  10.382  10.115  0.2946  0.0571 -0.1065
  209loPI   GL2 3334  12.356  10.724  10.128 -0.1585  0.1430  0.2519
  209loPI   C1A 3335  12.344  10.205   9.618 -0.0893  0.1042  0.3306
  209loPI   C2A 3336  12.379  10.201   9.235  0.0413  0.1378 -0.0656
  209loPI   C3A 3337  12.414  10.230   8.835 -0.1549  0.1376 -0.1860
  209loPI   C4A 3338  12.389  10.189   8.415  0.0089  0.2605 -0.3264
  209loPI   C5A 3339  12.229  10.387   8.011  0.0404 -0.0750  0.1125
  209loPI   C6A 3340  12.088  10.636   7.694  0.3287 -0.0543 -0.0586
  209loPI   C1B 3341  12.413  10.725   9.692 -0.0209 -0.4063 -0.0449
  209loPI   C2B 3342  12.324  10.752   9.293  0.2867 -0.0169 -0.0027
  209loPI   C3B 3343  12.418  10.708   8.911 -0.2340 -0.0092 -0.2755
  209loPI   C4B 3344  12.280  10.693   8.534  0.3661  0.3394  0.0329
  210loPI    C1 3345  13.780   3.253  10.413  0.1161  0.2390  0.1179
  210loPI    C2 3346  13.538   3.571  10.404 -0.1054  0.0749  0.1979
  210loPI    C3 3347  13.751   3.491  10.733 -0.1771  0.0473  0.2377
  210loPI   PO4 3348  13.576   3.054  10.239 -0.1107 -0.0441 -0.2466
  210loPI   GL1 3349  13.601   3.062   9.860  0.1525  0.1201 -0.3004
  210loPI   GL2 3350  13.688   2.811   9.712 -0.1523  0.0151 -0.2984
  210loPI   C1A 3351  13.862   3.277   9.616 -0.2295  0.1340  0.2625
  210loPI   C2A 3352  13.845   3.277   9.214 -0.0167 -0.0682  0.0113
  210loPI   C3A 3353  13.888   3.260   8.842  0.2882  0.0110 -0.0065
  210loPI   C4A 3354  13.869   3.258   8.402 -0.2106 -0.1760 -0.0517
  210loPI   C5A 3355  13.998   3.290   7.936 -0.0215 -0.1447  0.1698
  210loPI   C6A 3356  14.068   2.977   7.598 -0.1548  0.4200  0.0402
  210loPI   C1B 3357  13.827   2.741   9.276 -0.2254 -0.1733 -0.1682
  210loPI   C2B 3358  13.805   2.750   8.868  0.0948  0.0586  0.1376
  210loPI   C3B 3359  13.828   2.775   8.433 -0.1237  0.0695 -0.3228
  210loPI   C4B 3360  13.755   2.758   7.998  0.0592  0.0192 -0.0326
  211loPI    C1 3361  17.171  13.224  11.178 -0.0434  0.1265  0.2266
  211loPI    C2 3362  17.310  12.885  11.338  0.1255  0.1150  0.0576
  211loPI    C3 3363  16.993  13.066  11.500 -0.0470 -0.1928  0.0716
  211loPI   PO4 3364  17.100  13.150  10.891  0.4573  0.0005  0.0003
  211loPI   GL1 3365  16.969  13.181  10.444  0.0512  0.2225  0.1428
  211loPI   GL2 3366  16.694  13.177  10.392 -0.0861 -0.0170 -0.0214
  211loPI   C1A 3367  16.993  13.163   9.970 -0.2898 -0.0433  0.0952
  211loPI   C2A 3368  16.938  13.210   9.562  0.0535 -0.0001 -0.2473
  211loPI   C3A 3369  16.960  13.158   9.106  0.1562 -0.0392  0.0251
  211loPI   C4A 3370  16.962  13.139   8.667 -0.2280 -0.0619 -0.0503
  211loPI   C5A 3371  16.810  13.304   8.248  0.1128 -0.1400 -0.1669
  211loPI   C6A 3372  16.472  13.620   8.150  0.1147 -0.2248  0.0203
  211loPI   C1B 3373  16.624  13.433  10.030  0.0114 -0.1180 -0.0999
  211loPI   C2B 3374  16.566  13.482   9.506 -0.1316 -0.0349  0.3844
  211loPI   C3B 3375  16.477  13.394   9.054 -0.4005 -0.1475  0.1529
  211loPI   C4B 3376  16.546  13.507   8.685  0.3552  0.2625 -0.1561
  212loPI    C1 3377  13.153   7.692  10.602  0.0504  0.0045  0.1272
  212loPI    C2 3378  13.201   7.399  10.870 -0.1069 -0.0124  0.1379
  212loPI    C3 3379  13.409   7.738  10.906 -0.0338 -0.0644  0.2095
  212loPI   PO4 3380  13.108   7.583  10.376 -0.0920  0.0277 -0.0794
  212loPI   GL1 3381  13.093   7.418   9.965 -0.2756 -0.2280 -0.2950
  212loPI   GL2 3382  12.893   7.173   9.911 -0.2971 -0.0320  0.1315
  212loPI   C1A 3383  13.136   7.399   9.530  0.0668  0.0149  0.0516
  212loPI   C2A 3384  13.148   7.474   9.124  0.1032  0.0984 -0.1340
  212loPI   C3A 3385  13.084   7.516   8.749 -0.2108 -0.1418  0.0549
  212loPI   C4A 3386  13.031   7.435   8.331  0.2071 -0.1960 -0.1134
  212loPI   C5A 3387  13.243   7.433   7.905  0.0929  0.0239 -0.2317
  212loPI   C6A 3388  13.109   7.523   7.499  0.1631  0.1212 -0.1583
  212loPI   C1B 3389  12.997   6.944   9.569  0.2755  0.0874 -0.2702
  212loPI   C2B 3390  13.101   6.975   9.162 -0.2368  0.1242  0.0276
  212loPI   C3B 3391  13.107   6.965   8.680 -0.1223  0.2817  0.1139
  212loPI   C4B 3392  13.030   6.915   8.266  0.0995 -0.0993  0.1169
  213loPI    C1 3393  13.765  17.977  10.657  0.1438 -0.0496  0.1500
  213loPI    C2 3394  13.796  17.710  10.952 -0.0753 -0.0666  0.1596
  213loPI    C3 3395  13.732  18.095  11.037  0.1377 -0.0262  0.1423
  213loPI   PO4 3396  13.519  17.942  10.438  0.0377  0.0687 -0.3442
  213loPI   GL1 3397  13.562  18.003  10.039  0.4539 -0.0907  0.1937
  213loPI   GL2 3398  13.268  17.800  10.070 -0.3750 -0.3758 -0.0478
  213loPI   C1A 3399  13.536  18.088   9.612 -0.1597  0.0567  0.3449
  213loPI   C2A 3400  13.583  18.001   9.182 -0.2373  0.0549  0.2462
  213loPI   C3A 3401  13.568  18.085   8.806 -0.2455  0.2056 -0.0856
  213loPI   C4A 3402  13.631  18.141   8.420  0.0307 -0.3653  0.1273
  213loPI   C5A 3403  13.427  18.137   8.022  0.0282 -0.2060  0.1065
  213loPI   C6A 3404  13.304  17.903   7.647 -0.0033  0.0650  0.2441
  213loPI   C1B 3405  13.090  17.723   9.749  0.1431 -0.1788  0.0180
  213loPI   C2B 3406  13.083  17.773   9.294 -0.1692  0.1902 -0.1600
  213loPI   C3B 3407  13.183  17.829   8.870  0.1074 -0.1266 -0.0840
  213loPI   C4B 3408  13.121  17.934   8.461  0.1097 -0.0483 -0.2070
  214loPI    C1 3409   6.816  16.668  10.905  0.1629 -0.0190 -0.2141
  214loPI    C2 3410   6.917  17.026  11.053  0.0332 -0.0972  0.0710
  214loPI    C3 3411   6.924  16.703  11.288  0.1092 -0.2773 -0.1737
  214loPI   PO4 3412   6.903  16.644  10.632  0.0010  0.1851 -0.0630
  214loPI   GL1 3413   6.708  16.844  10.294  0.0387  0.1974 -0.1947
  214loPI   GL2 3414   6.832  17.124  10.074 -0.0373 -0.1167  0.1581
  214loPI   C1A 3415   6.758  16.661   9.911  0.2766 -0.2528  0.0862
  214loPI   C2A 3416   6.824  16.537   9.401 -0.1205 -0.1809  0.1982
  214loPI   C3A 3417   6.766  16.545   8.918 -0.3093 -0.2539 -0.1295
  214loPI   C4A 3418   6.852  16.474   8.518 -0.0954  0.3153 -0.0802
  214loPI   C5A 3419   6.559  16.235   8.235  0.0695  0.2477  0.0067
  214loPI   C6A 3420   6.257  15.940   8.288  0.1875  0.3238  0.0557
  214loPI   C1B 3421   6.836  17.079   9.593 -0.2505  0.1122  0.2690
  214loPI   C2B 3422   6.859  17.047   9.154  0.0864 -0.1480  0.1999
  214loPI   C3B 3423   6.905  17.078   8.779  0.0314 -0.1382  0.1138
  214loPI   C4B 3424   6.860  16.976   8.350  0.0772  0.0251  0.1407
  215loPI    C1 3425   5.902   8.120  11.072  0.0360  0.1142  0.2075
  215loPI    C2 3426   6.293   8.097  11.156  0.0186  0.2280  0.3219
  215loPI    C3 3427   6.036   7.844  11.329  0.0870 -0.1053 -0.0505
  215loPI   PO4 3428   5.806   8.067  10.736  0.1047  0.2007 -0.0897
  215loPI   GL1 3429   5.875   8.203  10.243  0.3938 -0.1620 -0.2583
  215loPI   GL2 3430   5.662   7.938  10.200  0.1033  0.0013 -0.1698
  215loPI   C1A 3431   5.985   8.376   9.826 -0.1583 -0.1489  0.0399
  215loPI   C2A 3432   5.987   8.405   9.393 -0.2604 -0.2809 -0.1209
  215loPI   C3A 3433   5.883   8.457   9.029 -0.2246  0.0043  0.1835
  215loPI   C4A 3434   5.926   8.368   8.615 -0.1696 -0.0578  0.0249
  215loPI   C5A 3435   5.554   8.189   8.228 -0.0873 -0.2701  0.1536
  215loPI   C6A 3436   5.152   8.297   8.000  0.4347  0.0152 -0.0639
  215loPI   C1B 3437   5.537   8.118   9.889  0.1215 -0.0923  0.4279
  215loPI   C2B 3438   5.513   8.130   9.523 -0.0065 -0.1452  0.1190
  215loPI   C3B 3439   5.469   8.218   9.189 -0.1966  0.2457 -0.0007
  215loPI   C4B 3440   5.491   8.173   8.774  0.1059 -0.4008 -0.1083
  216loPI    C1 3441  17.912   1.820  10.558 -0.1627 -0.0042  0.0048
  216loPI    C2 3442  18.190   1.856  10.843  0.0157  0.1248 -0.1830
  216loPI    C3 3443  17.839   2.044  10.882 -0.0405 -0.0234  0.0462
  216loPI   PO4 3444  18.135   1.862  10.312  0.1482 -0.1263 -0.0749
  216loPI   GL1 3445  18.083   1.905   9.926 -0.3193 -0.3101  0.0423
  216loPI   GL2 3446  18.070   2.102   9.643  0.3002  0.1829 -0.4344
  216loPI   C1A 3447  17.712   1.731   9.682  0.0227 -0.0825  0.2561
  216loPI   C2A 3448  17.853   1.775   9.293 -0.3363  0.2340 -0.0945
  216loPI   C3A 3449  17.664   1.758   8.918  0.0713  0.1239 -0.0440
  216loPI   C4A 3450  17.689   1.648   8.526  0.0356  0.3224 -0.1154
  216loPI   C5A 3451  17.642   1.831   8.121  0.0235  0.3024 -0.3158
  216loPI   C6A 3452  17.832   1.644   7.801  0.5320  0.1351  0.1417
  216loPI   C1B 3453  18.009   2.229   9.255  0.1351 -0.1634 -0.0633
  216loPI   C2B 3454  17.890   2.157   8.863 -0.1773 -0.0954 -0.0765
  216loPI   C3B 3455  18.060   2.031   8.426  0.0068  0.1878 -0.4359
  216loPI   C4B 3456  18.168   2.276   8.074 -0.0483  0.1720  0.2517
  217loPI    C1 3457  11.426  13.428  11.111  0.0156  0.2546  0.1449
  217loPI    C2 3458  11.360  13.395  11.505  0.3384 -0.0255  0.1798
  217loPI    C3 3459  11.355  13.069  11.272  0.0581  0.1499 -0.0667
  217loPI   PO4 3460  11.252  13.623  10.941  0.2560 -0.1724  0.0767
  217loPI   GL1 3461  11.132  13.606  10.551 -0.2417 -0.1345  0.3225
  217loPI   GL2 3462  11.433  13.859  10.527  0.0743  0.1807 -0.1424
  217loPI   C1A 3463  11.149  13.631  10.190  0.2667  0.2341  0.1680
  217loPI   C2A 3464  11.239  13.660   9.711  0.1498  0.0200 -0.0417
  217loPI   C3A 3465  11.148  13.595   9.261 -0.1013  0.2429 -0.0761
  217loPI   C4A 3466  11.151  13.777   8.931 -0.1444 -0.0151 -0.1799
  217loPI   C5A 3467  11.103  13.773   8.429 -0.0934  0.0149 -0.1635
  217loPI   C6A 3468  11.166  13.705   8.033 -0.1547  0.0892  0.0915
  217loPI   C1B 3469  11.646  13.855  10.083 -0.1000 -0.0321 -0.0173
  217loPI   C2B 3470  11.660  13.907   9.609  0.1757 -0.0460 -0.0810
  217loPI   C3B 3471  11.609  13.947   9.195  0.1331 -0.2055  0.1052
  217loPI   C4B 3472  11.651  13.853   8.704  0.3054  0.0078 -0.0349
  218loPI    C1 3473  13.358   6.665  10.628 -0.0930  0.0150 -0.1914
  218loPI    C2 3474  13.512   6.987  10.809 -0.1533  0.0196 -0.1472
  218loPI    C3 3475  13.154   6.848  10.920 -0.1464 -0.0375 -0.1954
  218loPI   PO4 3476  13.430   6.690  10.413  0.1815 -0.2393  0.1709
  218loPI   GL1 3477  13.259   6.904  10.046  0.3029  0.2971  0.1805
  218loPI   GL2 3478  13.192   6.519   9.871 -0.2355  0.0629 -0.2905
  218loPI   C1A 3479  13.479   7.157   9.686  0.1913  0.1133 -0.2696
  218loPI   C2A 3480  13.567   7.320   9.283 -0.0512 -0.0556 -0.1253
  218loPI   C3A 3481  13.524   7.224   8.899 -0.3715 -0.2826 -0.0163
  218loPI   C4A 3482  13.460   7.160   8.343 -0.1495 -0.1406  0.0097
  218loPI   C5A 3483  13.429   6.914   7.928 -0.2391  0.2292  0.1601
  218loPI   C6A 3484  13.071   7.024   7.713 -0.0236  0.2290  0.2256
  218loPI   C1B 3485  13.029   6.410   9.424 -0.0063  0.0358 -0.2219
  218loPI   C2B 3486  13.012   6.451   9.022 -0.2391  0.2253  0.1739
  218loPI   C3B 3487  12.917   6.450   8.572 -0.0947  0.2336  0.3411
  218loPI   C4B 3488  13.055   6.493   8.034 -0.3521  0.5635 -0.3047
  219loPI    C1 3489   0.049   4.212  10.035 -0.0753 -0.0318 -0.0700
  219loPI    C2 3490  -0.117   3.871   9.910  0.2101 -0.2050  0.0133
  219loPI    C3 3491  -0.196   4.009  10.277 -0.0292 -0.0962 -0.0770
  219loPI   PO4 3492   0.228   4.282   9.780 -0.0271 -0.0827 -0.1270
  219loPI   GL1 3493   0.149   4.296   9.474 -0.1589  0.1137  0.0296
  219loPI   GL2 3494   0.052   4.630   9.285 -0.0122  0.0385 -0.2763
  219loPI   C1A 3495   0.054   4.061   9.095 -0.3191 -0.1161  0.3702
  219loPI   C2A 3496   0.011   3.891   8.685 -0.0633 -0.2427 -0.0745
  219loPI   C3A 3497  -0.105   4.012   8.280 -0.0047 -0.0527 -0.1348
  219loPI   C4A 3498  -0.078   4.066   7.833  0.1288  0.2966  0.3878
  219loPI   C5A 3499   0.044   3.889   7.429 -0.1252 -0.0395 -0.1338
  219loPI   C6A 3500   0.102   3.900   7.030  0.0384  0.0872 -0.2780
  219loPI   C1B 3501  -0.010   4.747   8.827 -0.1930  0.0820  0.0159
  219loPI   C2B 3502  -0.070   4.602   8.318 -0.1481  0.0043  0.3131
  219loPI   C3B 3503  -0.046   4.577   7.873  0.2570  0.0384  0.3468
  219loPI   C4B 3504  -0.167   4.415   7.458  0.0560 -0.0870 -0.1662
  220loPI    C1 3505  11.727  11.725  10.972 -0.0557  0.2198  0.2380
  220loPI    C2 3506  12.060  11.517  10.896 -0.0136  0.3675  0.0086
  220loPI    C3 3507  11.870  11.470  11.245  0.0585  0.0316  0.0054
  220loPI   PO4 3508  11.594  11.770  10.684  0.0954  0.5010 -0.1869
  220loPI   GL1 3509  11.445  11.878  10.223 -0.2100 -0.0436  0.0972
  220loPI   GL2 3510  11.702  12.094  10.337 -0.1283  0.2408 -0.1025
  220loPI   C1A 3511  11.486  11.850   9.837  0.0008  0.0576 -0.0746
  220loPI   C2A 3512  11.542  11.849   9.455  0.0593 -0.3441 -0.2771
  220loPI   C3A 3513  11.493  11.809   9.001  0.0757  0.0820 -0.1462
  220loPI   C4A 3514  11.408  11.889   8.590  0.1582  0.0444 -0.0737
  220loPI   C5A 3515  11.203  12.136   8.364  0.1068 -0.2425  0.0381
  220loPI   C6A 3516  11.416  12.526   8.256  0.3134  0.2977 -0.0925
  220loPI   C1B 3517  11.933  12.107  10.040  0.0089 -0.1246  0.1144
  220loPI   C2B 3518  12.020  12.028   9.604 -0.0487 -0.1544  0.3025
  220loPI   C3B 3519  11.897  12.061   9.240  0.0150  0.0126 -0.0307
  220loPI   C4B 3520  11.864  12.058   8.819 -0.2210 -0.0070 -0.1045
  221loPI    C1 3521  14.855  13.405  11.034 -0.0571  0.0036 -0.0392
  221loPI    C2 3522  15.006  13.772  11.082 -0.0292 -0.0124 -0.0052
  221loPI    C3 3523  15.171  13.461  11.272 -0.1065 -0.0295  0.0345
  221loPI   PO4 3524  14.898  13.296  10.774  0.1089  0.1096 -0.2297
  221loPI   GL1 3525  14.851  13.454  10.385 -0.1601 -0.0420  0.0897
  221loPI   GL2 3526  14.548  13.381  10.361  0.4391  0.3733  0.1435
  221loPI   C1A 3527  14.763  13.504   9.935 -0.0140 -0.5029  0.0358
  221loPI   C2A 3528  14.760  13.496   9.536  0.0412  0.3629 -0.2022
  221loPI   C3A 3529  14.748  13.517   9.123 -0.0435 -0.2323  0.0402
  221loPI   C4A 3530  14.825  13.393   8.723  0.0070 -0.1461 -0.1913
  221loPI   C5A 3531  14.832  13.529   8.352  0.3086  0.2718 -0.1352
  221loPI   C6A 3532  15.059  13.647   8.014  0.2408 -0.1618 -0.0440
  221loPI   C1B 3533  14.302  13.219   9.957 -0.2554  0.1156  0.0510
  221loPI   C2B 3534  14.305  13.240   9.483 -0.1880  0.1118  0.2273
  221loPI   C3B 3535  14.344  13.256   9.023 -0.0397  0.0728 -0.0454
  221loPI   C4B 3536  14.321  13.368   8.612  0.2575  0.0092  0.3756
  222loPI    C1 3537  11.801   3.923  10.868  0.2775  0.1838 -0.0822
  222loPI    C2 3538  12.054   3.614  10.841  0.0612 -0.0253  0.2196
  222loPI    C3 3539  12.119   3.902  11.110  0.1291  0.0682  0.1046
  222loPI   PO4 3540  11.699   3.958  10.528  0.0716 -0.0854 -0.0071
  222loPI   GL1 3541  11.794   4.162  10.152 -0.1482 -0.0153 -0.1420
  222loPI   GL2 3542  11.597   4.290  10.119 -0.2588  0.0323 -0.0793
  222loPI   C1A 3543  11.879   3.868   9.762 -0.0875  0.3963 -0.3109
  222loPI   C2A 3544  12.030   3.841   9.341  0.3709 -0.0018  0.0366
  222loPI   C3A 3545  12.076   3.889   8.894 -0.0424  0.4598 -0.0082
  222loPI   C4A 3546  11.937   3.866   8.539 -0.4630  0.1279 -0.0007
  222loPI   C5A 3547  12.133   3.910   8.081  0.0534 -0.0928 -0.1084
  222loPI   C6A 3548  12.413   3.689   7.699  0.1225  0.1589 -0.3635
  222loPI   C1B 3549  11.481   4.155   9.679  0.1979  0.1913  0.0571
  222loPI   C2B 3550  11.543   4.055   9.278  0.3509  0.0976 -0.1337
  222loPI   C3B 3551  11.617   4.096   8.810  0.0633  0.2305  0.1290
  222loPI   C4B 3552  11.510   4.153   8.389 -0.4628 -0.1201 -0.0010
  223loPI    C1 3553  13.361  11.815  11.205  0.0813  0.1779 -0.0723
  223loPI    C2 3554  13.692  11.695  11.395 -0.1273 -0.0270  0.1690
  223loPI    C3 3555  13.438  11.945  11.576 -0.1701  0.0276  0.0346
  223loPI   PO4 3556  13.366  11.579  11.006 -0.3355 -0.0646  0.1706
  223loPI   GL1 3557  13.379  11.472  10.522  0.1680  0.3137  0.1670
  223loPI   GL2 3558  13.338  11.793  10.542  0.2441 -0.1736  0.0642
  223loPI   C1A 3559  13.320  11.630  10.068  0.3341  0.1226  0.0265
  223loPI   C2A 3560  13.401  11.717   9.669 -0.1830  0.2141  0.0493
  223loPI   C3A 3561  13.346  11.777   9.315  0.2325  0.2673 -0.0136
  223loPI   C4A 3562  13.283  11.686   8.913  0.4710  0.2797  0.0728
  223loPI   C5A 3563  13.216  11.829   8.494  0.0163 -0.2490  0.1357
  223loPI   C6A 3564  12.930  11.878   8.181  0.1952  0.2033  0.3560
  223loPI   C1B 3565  13.234  12.073  10.140 -0.3808  0.1324  0.0221
  223loPI   C2B 3566  13.301  12.181   9.748 -0.0200 -0.4786 -0.1378
  223loPI   C3B 3567  13.412  12.303   9.312  0.0112  0.0597 -0.1164
  223loPI   C4B 3568  13.202  12.216   8.968  0.0737 -0.0693 -0.0180
  224loPI    C1 3569   4.155  10.111  10.874 -0.0359  0.2320 -0.0872
  224loPI    C2 3570   3.812  10.307  10.815  0.0023  0.2845 -0.1367
  224loPI    C3 3571   4.059  10.420  11.108 -0.0989  0.1433  0.0050
  224loPI   PO4 3572   4.126   9.967  10.669  0.3618 -0.4783  0.0095
  224loPI   GL1 3573   3.898   9.741  10.427  0.3610  0.0992  0.2892
  224loPI   GL2 3574   4.130   9.605  10.350  0.3262 -0.1041 -0.0859
  224loPI   C1A 3575   3.791   9.705   9.959  0.0915  0.0833 -0.0247
  224loPI   C2A 3576   3.897   9.639   9.595 -0.2933 -0.1107  0.3013
  224loPI   C3A 3577   3.762   9.781   9.298 -0.0760  0.0442 -0.0655
  224loPI   C4A 3578   3.790   9.889   8.977  0.0068  0.1298  0.1476
  224loPI   C5A 3579   3.868   9.879   8.552  0.0549  0.2960  0.1867
  224loPI   C6A 3580   4.177   9.782   8.238  0.0404  0.2920  0.3438
  224loPI   C1B 3581   4.172   9.441  10.055 -0.2293 -0.0589  0.2455
  224loPI   C2B 3582   4.321   9.452   9.730 -0.0471 -0.1457  0.1481
  224loPI   C3B 3583   4.275   9.462   9.224 -0.1396  0.2686 -0.3164
  224loPI   C4B 3584   4.269   9.621   8.767  0.0043 -0.0450  0.0302
  225loPI    C1 3585   9.472   0.459  11.054  0.2092  0.1282 -0.0213
  225loPI    C2 3586   9.357   0.677  11.369 -0.0396  0.0689 -0.0696
  225loPI    C3 3587   9.478   0.299  11.421 -0.1442  0.0375 -0.0521
  225loPI   PO4 3588   9.322   0.443  10.827  0.2503 -0.0419 -0.2576
  225loPI   GL1 3589   9.393   0.377  10.357  0.3190  0.0977  0.0989
  225loPI   GL2 3590   9.115   0.229  10.208  0.1900 -0.2899  0.3129
  225loPI   C1A 3591   9.503   0.494   9.993  0.3480 -0.3249  0.0649
  225loPI   C2A 3592   9.570   0.517   9.572 -0.1353 -0.1591 -0.1609
  225loPI   C3A 3593   9.660   0.542   9.163  0.1070  0.1507 -0.1606
  225loPI   C4A 3594   9.629   0.440   8.704  0.0604  0.2484 -0.1409
  225loPI   C5A 3595   9.554   0.561   8.290 -0.0702  0.1233 -0.1527
  225loPI   C6A 3596   9.717   0.650   7.817  0.0965 -0.0976 -0.2247
  225loPI   C1B 3597   9.179   0.250   9.738  0.1799  0.3038 -0.1941
  225loPI   C2B 3598   9.159   0.297   9.380  0.2949  0.4341  0.1925
  225loPI   C3B 3599   9.196   0.294   8.958  0.2740 -0.1090  0.1867
  225loPI   C4B 3600   9.161   0.307   8.486 -0.1870  0.0704  0.0937
  226loPI    C1 3601  11.172   7.962  10.442 -0.1120 -0.1270 -0.0595
  226loPI    C2 3602  10.936   8.147  10.707  0.0010  0.3031 -0.2488
  226loPI    C3 3603  11.315   8.062  10.802 -0.0934  0.0254 -0.1083
  226loPI   PO4 3604  11.151   8.080  10.263  0.0812 -0.1580  0.0281
  226loPI   GL1 3605  10.983   8.230   9.958 -0.0054  0.5968 -0.0788
  226loPI   GL2 3606  11.127   7.947   9.777  0.2122  0.2143 -0.0452
  226loPI   C1A 3607  10.762   8.287   9.609  0.1006 -0.0410  0.2735
  226loPI   C2A 3608  10.802   8.400   9.196 -0.0402  0.2115  0.0447
  226loPI   C3A 3609  10.878   8.517   8.854  0.3353 -0.0563  0.2588
  226loPI   C4A 3610  10.985   8.433   8.521 -0.0327  0.2186 -0.4674
  226loPI   C5A 3611  10.859   8.445   8.236 -0.0684 -0.5281 -0.0834
  226loPI   C6A 3612  10.901   8.240   7.917  0.1491  0.0307  0.1056
  226loPI   C1B 3613  11.215   8.113   9.393  0.1711 -0.0570 -0.0121
  226loPI   C2B 3614  11.431   8.154   9.052 -0.0178  0.2036  0.1548
  226loPI   C3B 3615  11.382   8.111   8.650 -0.4735  0.0411  0.0525
  226loPI   C4B 3616  11.324   8.149   8.207  0.0222 -0.2846 -0.3959
  227loPI    C1 3617  17.703   8.473  10.156 -0.0146  0.1035  0.1178
  227loPI    C2 3618  17.899   8.810  10.242 -0.1318  0.1145  0.3490
  227loPI    C3 3619  17.692   8.621  10.527 -0.0797 -0.1451  0.2174
  227loPI   PO4 3620  17.592   8.513   9.908  0.0099  0.1257  0.0526
  227loPI   GL1 3621  17.799   8.812   9.561  0.1530  0.0579 -0.2500
  227loPI   GL2 3622  17.999   8.723   9.690  0.4273  0.4260 -0.0508
  227loPI   C1A 3623  17.902   8.909   9.240 -0.2088  0.0756  0.1354
  227loPI   C2A 3624  17.846   9.011   8.866 -0.1616  0.0990 -0.0504
  227loPI   C3A 3625  17.772   9.002   8.472  0.2053 -0.2607 -0.0258
  227loPI   C4A 3626  17.721   8.911   8.153 -0.0621  0.1871 -0.2221
  227loPI   C5A 3627  17.811   8.951   7.738 -0.3274 -0.2605 -0.0485
  227loPI   C6A 3628  18.100   9.121   7.562 -0.0031 -0.1262  0.0071
  227loPI   C1B 3629  18.329   9.023   9.504  0.1234 -0.0732  0.2252
  227loPI   C2B 3630  18.340   9.232   9.043 -0.0276  0.0955 -0.0368
  227loPI   C3B 3631  18.222   9.197   8.565  0.0393  0.0817 -0.1514
  227loPI   C4B 3632  18.143   9.176   8.112 -0.2138 -0.4516 -0.0935
  228loPI    C1 3633   9.926  17.202  10.744  0.2940 -0.0065 -0.0635
  228loPI    C2 3634  10.228  17.185  11.007  0.2474  0.2040  0.0057
  228loPI    C3 3635   9.863  17.293  11.129  0.1361 -0.0719 -0.0732
  228loPI   PO4 3636   9.962  16.979  10.625 -0.0552 -0.1142 -0.3670
  228loPI   GL1 3637  10.001  16.661  10.307 -0.0219 -0.0618  0.1225
  228loPI   GL2 3638  10.307  16.688  10.293  0.0659 -0.0816 -0.2404
  228loPI   C1A 3639   9.894  16.631   9.847  0.1404  0.0093  0.1328
  228loPI   C2A 3640   9.946  16.654   9.357 -0.0511 -0.2485 -0.1174
  228loPI   C3A 3641  10.016  16.600   8.922 -0.0669 -0.1223 -0.0802
  228loPI   C4A 3642  10.130  16.671   8.548  0.0217  0.2472  0.0117
  228loPI   C5A 3643  10.231  16.945   8.215  0.1959 -0.0373 -0.0546
  228loPI   C6A 3644  10.004  17.294   7.973  0.0224  0.2533 -0.0301
  228loPI   C1B 3645  10.444  16.792   9.856  0.0676  0.0319  0.0091
  228loPI   C2B 3646  10.417  16.888   9.443 -0.1293  0.0502 -0.1590
  228loPI   C3B 3647  10.515  16.920   8.985 -0.0552 -0.1078 -0.1420
  228loPI   C4B 3648  10.527  16.960   8.648  0.0119 -0.1618  0.0049
  229loPI    C1 3649   1.130   9.628  10.433  0.2352 -0.1477 -0.0130
  229loPI    C2 3650   0.813   9.870  10.407  0.3569 -0.0044 -0.1885
  229loPI    C3 3651   1.002   9.825  10.757  0.1804 -0.0441 -0.0970
  229loPI   PO4 3652   1.148   9.481  10.256  0.0751  0.0203  0.1282
  229loPI   GL1 3653   1.221   9.587   9.829  0.2194 -0.0832  0.2282
  229loPI   GL2 3654   0.979   9.918   9.939  0.0345  0.1261 -0.0658
  229loPI   C1A 3655   1.185   9.607   9.390 -0.0321 -0.0084  0.2065
  229loPI   C2A 3656   1.131   9.604   8.987  0.0661  0.1249 -0.0825
  229loPI   C3A 3657   1.123   9.489   8.620  0.2987 -0.1232  0.0215
  229loPI   C4A 3658   1.093   9.394   8.143  0.1264  0.1732  0.0829
  229loPI   C5A 3659   0.989   9.125   7.834 -0.0409 -0.2135  0.0773
  229loPI   C6A 3660   1.091   8.808   7.584  0.0902  0.1687  0.2461
  229loPI   C1B 3661   0.926  10.003   9.455 -0.0955 -0.0241 -0.0601
  229loPI   C2B 3662   1.033  10.072   8.985  0.0661  0.1640  0.1815
  229loPI   C3B 3663   1.185  10.022   8.613 -0.2402 -0.1212  0.4365
  229loPI   C4B 3664   1.229   9.892   8.171  0.1717 -0.2025 -0.1973
  230loPI    C1 3665   7.761   8.140  10.818 -0.0281 -0.0383 -0.1030
  230loPI    C2 3666   7.686   8.396  11.115 -0.1146 -0.0221 -0.1386
  230loPI    C3 3667   7.939   8.092  11.173 -0.0299  0.0573 -0.0888
  230loPI   PO4 3668   7.780   8.263  10.630  0.0156  0.3547  0.0893
  230loPI   GL1 3669   7.704   8.237  10.227  0.0755  0.2338  0.2813
  230loPI   GL2 3670   7.594   7.958  10.280 -0.1803 -0.1877  0.0699
  230loPI   C1A 3671   7.776   8.357   9.800  0.3518 -0.2723  0.1762
  230loPI   C2A 3672   7.760   8.314   9.265 -0.0918  0.2922  0.2529
  230loPI   C3A 3673   7.741   8.408   8.796  0.0745 -0.0294  0.1373
  230loPI   C4A 3674   7.891   8.283   8.445  0.1531 -0.0950  0.2785
  230loPI   C5A 3675   7.928   7.968   8.167 -0.1182  0.5530  0.2410
  230loPI   C6A 3676   8.152   7.544   8.020 -0.2135  0.1098 -0.1036
  230loPI   C1B 3677   7.693   7.815   9.879 -0.0421 -0.3417 -0.2836
  230loPI   C2B 3678   7.727   7.842   9.419 -0.2149 -0.1639 -0.0568
  230loPI   C3B 3679   7.737   7.816   8.999  0.0643 -0.2891 -0.0043
  230loPI   C4B 3680   7.665   7.793   8.599  0.0751  0.0725 -0.2030
  231loPI    C1 3681   5.711  11.869  11.337  0.0059  0.1707  0.0880
  231loPI    C2 3682   5.559  11.516  11.447  0.1155  0.0624 -0.1031
  231loPI    C3 3683   5.771  11.732  11.708 -0.2384  0.1475  0.1205
  231loPI   PO4 3684   5.524  11.877  11.093 -0.1581 -0.2364 -0.1134
  231loPI   GL1 3685   5.568  11.801  10.620 -0.1284  0.0423 -0.0825
  231loPI   GL2 3686   5.305  11.759  10.512  0.1707 -0.0861 -0.2880
  231loPI   C1A 3687   5.783  11.815  10.174 -0.2184  0.1588 -0.0500
  231loPI   C2A 3688   5.693  11.789   9.796  0.0888  0.0122  0.1756
  231loPI   C3A 3689   5.757  11.808   9.386 -0.0497 -0.2088  0.0221
  231loPI   C4A 3690   5.736  11.835   8.904 -0.2004  0.0301  0.0497
  231loPI   C5A 3691   5.512  11.907   8.481  0.0050  0.0468 -0.1772
  231loPI   C6A 3692   5.186  11.670   8.287 -0.1723 -0.2188  0.1976
  231loPI   C1B 3693   5.216  11.529  10.163 -0.2746 -0.3928 -0.0800
  231loPI   C2B 3694   5.240  11.490   9.649  0.0257 -0.0163  0.0627
  231loPI   C3B 3695   5.204  11.536   9.256 -0.0029 -0.1828 -0.1246
  231loPI   C4B 3696   5.246  11.660   8.834 -0.2868 -0.3357 -0.0841
  232loPI    C1 3697   9.554  11.880  11.277 -0.2536 -0.1780 -0.0966
  232loPI    C2 3698   9.863  11.634  11.338 -0.0528  0.0419 -0.2081
  232loPI    C3 3699   9.715  11.850  11.641 -0.0631 -0.0243 -0.1660
  232loPI   PO4 3700   9.511  11.809  11.017  0.2991 -0.0856 -0.0375
  232loPI   GL1 3701   9.530  11.949  10.601  0.1191 -0.0902 -0.0623
  232loPI   GL2 3702   9.470  11.646  10.520  0.0411 -0.1747  0.0774
  232loPI   C1A 3703   9.376  12.219  10.332 -0.0771  0.0863  0.0256
  232loPI   C2A 3704   9.359  12.188   9.856 -0.3611 -0.2865  0.2741
  232loPI   C3A 3705   9.333  12.231   9.387  0.0182 -0.0585  0.1941
  232loPI   C4A 3706   9.237  12.093   8.939  0.0595  0.0072  0.1774
  232loPI   C5A 3707   9.218  12.110   8.490 -0.1463  0.1621 -0.0915
  232loPI   C6A 3708   9.173  12.086   8.009 -0.3374  0.0560  0.0723
  232loPI   C1B 3709   9.352  11.681   9.994  0.3160 -0.2597  0.1093
  232loPI   C2B 3710   9.328  11.627   9.620 -0.1707  0.1686 -0.1065
  232loPI   C3B 3711   9.341  11.656   9.149  0.1200  0.0625  0.3331
  232loPI   C4B 3712   9.332  11.647   8.737  0.0783 -0.1629 -0.2335
  233loPI    C1 3713   3.057   0.555  10.643  0.2742  0.0524 -0.0281
  233loPI    C2 3714   3.006   0.845  10.913 -0.2075  0.2175 -0.2839
  233loPI    C3 3715   2.779   0.516  10.928 -0.0722  0.1205 -0.3485
  233loPI   PO4 3716   2.999   0.580  10.322 -0.2474  0.2126  0.0734
  233loPI   GL1 3717   3.163   0.368   9.974 -0.0341  0.2027  0.0782
  233loPI   GL2 3718   3.272   0.001   9.851  0.3478 -0.2224 -0.2494
  233loPI   C1A 3719   2.850   0.112   9.596 -0.1656 -0.0300 -0.4750
  233loPI   C2A 3720   2.806   0.063   9.137  0.0067 -0.3017  0.0948
  233loPI   C3A 3721   2.854   0.148   8.762  0.2854 -0.0056  0.4196
  233loPI   C4A 3722   2.895   0.169   8.378  0.1693 -0.0262  0.2717
  233loPI   C5A 3723   2.795   0.273   7.940  0.0077  0.1734  0.0229
  233loPI   C6A 3724   3.131   0.177   7.805 -0.1629  0.0233 -0.1841
  233loPI   C1B 3725   3.280  -0.141   9.510  0.0669 -0.0596 -0.1244
  233loPI   C2B 3726   3.327  -0.187   9.111 -0.1948 -0.0678  0.2154
  233loPI   C3B 3727   3.335  -0.137   8.710 -0.2843 -0.0150 -0.1010
  233loPI   C4B 3728   3.262  -0.092   8.245 -0.1255 -0.1914 -0.0508
  234loPI    C1 3729  15.673  11.790  11.139 -0.0464  0.2524 -0.2122
  234loPI    C2 3730  15.782  12.027  11.442  0.0709  0.1196 -0.1494
  234loPI    C3 3731  16.059  11.825  11.237 -0.0299  0.0229 -0.1910
  234loPI   PO4 3732  15.529  11.973  10.956  0.0272  0.0887  0.3741
  234loPI   GL1 3733  15.351  12.147  10.592  0.0243  0.0269  0.1822
  234loPI   GL2 3734  15.660  12.123  10.518  0.0909  0.1191  0.1062
  234loPI   C1A 3735  15.181  12.243  10.149  0.1760 -0.0236  0.2463
  234loPI   C2A 3736  15.105  12.297   9.794 -0.0218 -0.2703  0.1291
  234loPI   C3A 3737  15.184  12.176   9.360 -0.0769 -0.2042 -0.0575
  234loPI   C4A 3738  15.223  12.086   8.967  0.0511  0.1211 -0.0190
  234loPI   C5A 3739  15.103  12.085   8.566 -0.5139  0.1978  0.3368
  234loPI   C6A 3740  14.851  12.133   8.314  0.1223  0.2961  0.1373
  234loPI   C1B 3741  15.629  12.476  10.110  0.2398  0.1153  0.3505
  234loPI   C2B 3742  15.595  12.467   9.653 -0.0200  0.3754 -0.0457
  234loPI   C3B 3743  15.592  12.343   9.145  0.0417  0.1082  0.0227
  234loPI   C4B 3744  15.599  12.348   8.710 -0.3613  0.4277 -0.1277
  235loPI    C1 3745   6.164   1.011  10.963  0.1059 -0.2165  0.1582
  235loPI    C2 3746   6.146   1.277  11.261 -0.0603  0.0918 -0.1187
  235loPI    C3 3747   5.841   1.024  11.199 -0.1310  0.1900 -0.1730
  235loPI   PO4 3748   6.171   1.190  10.745  0.2140  0.1530  0.4460
  235loPI   GL1 3749   6.106   0.855  10.405  0.0350 -0.1367 -0.1448
  235loPI   GL2 3750   6.101   1.244  10.219 -0.1536 -0.1317 -0.1625
  235loPI   C1A 3751   6.064   0.833   9.964 -0.2193 -0.0852 -0.1474
  235loPI   C2A 3752   6.062   0.834   9.470 -0.0545  0.0865  0.2109
  235loPI   C3A 3753   6.102   0.632   9.098  0.1771 -0.2748 -0.1745
  235loPI   C4A 3754   6.059   0.637   8.731  0.1658 -0.0285 -0.1547
  235loPI   C5A 3755   6.115   0.773   8.391 -0.0044 -0.0382  0.0239
  235loPI   C6A 3756   5.989   0.883   8.092  0.1946  0.0508  0.1041
  235loPI   C1B 3757   6.074   1.294   9.747  0.3676 -0.1448  0.0320
  235loPI   C2B 3758   6.109   1.245   9.269 -0.0698  0.0234  0.0225
  235loPI   C3B 3759   6.087   1.198   8.893 -0.0866  0.2837  0.2260
  235loPI   C4B 3760   6.185   1.258   8.453  0.0525  0.1648  0.1111
  236loPI    C1 3761   1.816  13.561  11.136  0.0043 -0.1739 -0.0685
  236loPI    C2 3762   1.507  13.760  11.294  0.0592 -0.1890  0.0585
  236loPI    C3 3763   1.726  13.515  11.523  0.2331 -0.0934 -0.0040
  236loPI   PO4 3764   1.827  13.622  10.869  0.0131 -0.0970  0.0639
  236loPI   GL1 3765   2.104  13.432  10.580  0.1458 -0.0842 -0.0263
  236loPI   GL2 3766   2.211  13.549  10.404 -0.0957 -0.1566 -0.2163
  236loPI   C1A 3767   1.788  13.334  10.200 -0.1290 -0.1809 -0.1259
  236loPI   C2A 3768   1.772  13.272   9.818 -0.1370 -0.0036  0.1465
  236loPI   C3A 3769   1.756  13.365   9.425 -0.0916 -0.2717  0.1703
  236loPI   C4A 3770   1.700  13.287   9.026  0.0922 -0.0595  0.1650
  236loPI   C5A 3771   1.659  13.354   8.536 -0.1102 -0.1523 -0.1527
  236loPI   C6A 3772   1.726  13.411   8.131 -0.0841 -0.1248 -0.0930
  236loPI   C1B 3773   2.271  13.536  10.082  0.0975 -0.2401 -0.3013
  236loPI   C2B 3774   2.204  13.610   9.608  0.1951 -0.2408  0.2633
  236loPI   C3B 3775   2.108  13.661   9.183  0.1479  0.2133  0.0795
  236loPI   C4B 3776   2.064  13.583   8.765 -0.0645 -0.0052 -0.1841
  237loPI    C1 3777   7.929  14.020  11.052  0.0765 -0.0276  0.0326
  237loPI    C2 3778   8.084  14.369  10.933  0.0001  0.0283  0.0958
  237loPI    C3 3779   7.690  14.307  10.908  0.0219 -0.0808  0.0170
  237loPI   PO4 3780   8.109  13.873  11.001  0.1401 -0.0923  0.7977
  237loPI   GL1 3781   7.968  13.621  10.669  0.2482 -0.2143 -0.1212
  237loPI   GL2 3782   7.884  14.041  10.534 -0.0231  0.0536 -0.2387
  237loPI   C1A 3783   8.016  13.653  10.213 -0.0000 -0.0221 -0.1101
  237loPI   C2A 3784   7.994  13.514   9.818 -0.3059  0.2335 -0.1736
  237loPI   C3A 3785   8.053  13.631   9.548 -0.3688 -0.0769  0.3717
  237loPI   C4A 3786   7.988  13.494   9.116  0.2741 -0.0200  0.1903
  237loPI   C5A 3787   8.048  13.440   8.677 -0.1182  0.1920 -0.1881
  237loPI   C6A 3788   7.780  13.564   8.324  0.1455 -0.2876 -0.0585
  237loPI   C1B 3789   8.009  14.158  10.075 -0.1377 -0.1266 -0.0661
  237loPI   C2B 3790   8.001  14.123   9.696  0.0680  0.1434  0.0224
  237loPI   C3B 3791   8.043  14.106   9.211 -0.1791  0.3744  0.0216
  237loPI   C4B 3792   7.864  13.979   8.720 -0.1607  0.3140 -0.1737
  238loPI    C1 3793  14.951   0.989  10.843  0.1299  0.2177 -0.2465
  238loPI    C2 3794  14.865   1.308  11.069  0.1392  0.0862 -0.0548
  238loPI    C3 3795  15.224   1.132  11.098  0.1009  0.0016 -0.0910
  238loPI   PO4 3796  14.872   1.020  10.579  0.0118  0.2080 -0.1808
  238loPI   GL1 3797  14.968   1.161  10.180  0.0680  0.1435  0.3120
  238loPI   GL2 3798  14.915   1.334   9.906 -0.1071  0.0332  0.1205
  238loPI   C1A 3799  15.038   0.942   9.711 -0.0187  0.0934  0.2464
  238loPI   C2A 3800  14.917   0.887   9.293 -0.0218  0.0479 -0.0377
  238loPI   C3A 3801  15.014   0.877   8.909  0.0208  0.1759  0.2148
  238loPI   C4A 3802  14.980   0.865   8.477 -0.0794  0.0252 -0.0257
  238loPI   C5A 3803  14.983   0.952   8.045 -0.1807  0.1298  0.1045
  238loPI   C6A 3804  14.863   0.930   7.595 -0.4794 -0.1558  0.1393
  238loPI   C1B 3805  14.995   1.406   9.519  0.0828 -0.1132  0.1728
  238loPI   C2B 3806  15.010   1.365   9.072  0.0311  0.0449  0.0360
  238loPI   C3B 3807  14.969   1.303   8.683  0.0930 -0.0624 -0.0053
  238loPI   C4B 3808  15.070   1.369   8.281  0.2566  0.0166  0.2918
  239loPI    C1 3809   4.776  15.569  10.970  0.0251 -0.0826 -0.1901
  239loPI    C2 3810   5.119  15.364  10.991 -0.0584 -0.2232 -0.1848
  239loPI    C3 3811   4.826  15.291  11.253  0.0300  0.1287  0.0209
  239loPI   PO4 3812   4.699  15.609  10.817  0.0092  0.2759 -0.2909
  239loPI   GL1 3813   4.484  15.452  10.507 -0.1630  0.0095 -0.0237
  239loPI   GL2 3814   4.256  15.159  10.538 -0.0254  0.2335 -0.4323
  239loPI   C1A 3815   4.337  15.457   9.995 -0.0580 -0.0139  0.0724
  239loPI   C2A 3816   4.444  15.393   9.538 -0.0736 -0.0829 -0.3240
  239loPI   C3A 3817   4.492  15.372   9.202  0.2990 -0.2974  0.5304
  239loPI   C4A 3818   4.457  15.305   8.762 -0.0619  0.0638  0.2334
  239loPI   C5A 3819   4.207  15.206   8.386 -0.2821  0.1017 -0.1762
  239loPI   C6A 3820   4.069  15.459   8.073 -0.1887  0.0724 -0.1976
  239loPI   C1B 3821   4.022  15.111  10.059 -0.4658 -0.2405  0.1639
  239loPI   C2B 3822   3.994  15.133   9.681  0.2498  0.2103  0.4433
  239loPI   C3B 3823   4.061  15.096   9.250 -0.2851 -0.0629 -0.0797
  239loPI   C4B 3824   4.003  15.069   8.801  0.2752  0.2083  0.1449
  240loPI    C1 3825   3.595   4.086  10.293  0.1382  0.1009  0.0618
  240loPI    C2 3826   3.269   4.308  10.364  0.0783  0.0492 -0.0504
  240loPI    C3 3827   3.335   3.976  10.577  0.0230  0.0238 -0.0725
  240loPI   PO4 3828   3.555   4.105   9.993  0.2818  0.2658 -0.0025
  240loPI   GL1 3829   3.598   3.884   9.684 -0.1156 -0.2929 -0.3745
  240loPI   GL2 3830   3.672   3.646   9.647  0.1155 -0.2070 -0.2456
  240loPI   C1A 3831   3.830   3.811   9.241 -0.2900 -0.0510 -0.0791
  240loPI   C2A 3832   3.916   3.799   8.756 -0.3730  0.1098 -0.1868
  240loPI   C3A 3833   3.889   3.711   8.322 -0.1121 -0.0884  0.0405
  240loPI   C4A 3834   4.039   3.577   7.899 -0.0528 -0.2285  0.1036
  240loPI   C5A 3835   4.138   3.175   7.840 -0.0491 -0.0229 -0.1182
  240loPI   C6A 3836   4.417   2.932   7.640 -0.3434  0.0365 -0.5121
  240loPI   C1B 3837   3.805   3.291   9.432  0.0835  0.0393  0.2056
  240loPI   C2B 3838   3.875   3.366   9.036 -0.0906  0.1637 -0.0194
  240loPI   C3B 3839   3.899   3.295   8.668 -0.2553 -0.1278 -0.0441
  240loPI   C4B 3840   3.762   3.231   8.242 -0.2511  0.1671 -0.1497
  241loPI    C1 3841   9.959   7.874  10.944  0.0015 -0.1229  0.0249
  241loPI    C2 3842   9.779   7.641  11.216 -0.0295 -0.0134  0.0987
  241loPI    C3 3843  10.175   7.699  11.232 -0.0291 -0.0192  0.1113
  241loPI   PO4 3844   9.882   7.778  10.731  0.1901  0.2526 -0.1234
  241loPI   GL1 3845  10.035   7.837  10.253 -0.3738 -0.1391  0.1801
  241loPI   GL2 3846   9.773   7.939  10.118 -0.0143 -0.2250 -0.0056
  241loPI   C1A 3847   9.846   7.484   9.934 -0.1824  0.1618  0.2102
  241loPI   C2A 3848   9.885   7.441   9.552  0.0195  0.4118  0.4243
  241loPI   C3A 3849  10.009   7.447   9.123  0.3508  0.0439 -0.2430
  241loPI   C4A 3850   9.981   7.388   8.659  0.1238 -0.1171 -0.0588
  241loPI   C5A 3851  10.049   7.401   8.212  0.1364 -0.0430 -0.1091
  241loPI   C6A 3852   9.829   7.332   7.870  0.0532  0.2750  0.1082
  241loPI   C1B 3853   9.991   7.943   9.697 -0.3549  0.1209 -0.1796
  241loPI   C2B 3854   9.936   7.972   9.240  0.2614 -0.4208  0.1286
  241loPI   C3B 3855  10.020   7.853   8.835 -0.2464 -0.1431  0.1668
  241loPI   C4B 3856  10.087   7.904   8.367 -0.3346 -0.1783  0.1862
  242loPI    C1 3857   0.128   2.346  10.178  0.1465  0.0132 -0.1402
  242loPI    C2 3858  -0.007   2.697  10.314  0.2552  0.0711 -0.1807
  242loPI    C3 3859   0.298   2.515  10.499  0.1634 -0.0293 -0.1267
  242loPI   PO4 3860   0.076   2.296   9.897  0.0847 -0.2454  0.2747
  242loPI   GL1 3861   0.220   2.392   9.606 -0.3123 -0.0497 -0.0027
  242loPI   GL2 3862  -0.017   2.451   9.425 -0.0414 -0.0296  0.3042
  242loPI   C1A 3863   0.435   2.219   9.242 -0.2788 -0.0346 -0.0135
  242loPI   C2A 3864   0.502   2.069   8.870  0.2330  0.0950 -0.0247
  242loPI   C3A 3865   0.545   1.908   8.452 -0.1638 -0.2066 -0.2462
  242loPI   C4A 3866   0.599   1.940   8.139 -0.2327  0.2711  0.0568
  242loPI   C5A 3867   0.470   1.810   7.678 -0.0609  0.0986  0.0213
  242loPI   C6A 3868   0.346   1.727   7.319 -0.3106 -0.2113  0.0968
  242loPI   C1B 3869   0.025   2.356   8.944  0.0656  0.1763 -0.2097
  242loPI   C2B 3870   0.079   2.192   8.552  0.0738 -0.0333  0.1579
  242loPI   C3B 3871   0.086   1.861   8.233  0.0027  0.2521 -0.0706
  242loPI   C4B 3872   0.162   1.518   7.948 -0.1290 -0.1872 -0.2641
  243loPI    C1 3873   3.877  12.019  10.806  0.1947  0.0891  0.0038
  243loPI    C2 3874   4.082  11.864  11.112  0.2724  0.0246 -0.0800
  243loPI    C3 3875   3.792  12.131  11.180  0.2498 -0.0331  0.0535
  243loPI   PO4 3876   3.892  12.032  10.571  0.0576  0.3815 -0.1295
  243loPI   GL1 3877   3.949  11.723  10.317 -0.2336 -0.0502 -0.3415
  243loPI   GL2 3878   4.015  11.424  10.221  0.3044 -0.4713 -0.0243
  243loPI   C1A 3879   3.864  11.901   9.915  0.2621 -0.0861 -0.0946
  243loPI   C2A 3880   3.927  11.858   9.531 -0.1491 -0.0640  0.0447
  243loPI   C3A 3881   3.837  11.956   9.061 -0.1143  0.1439  0.1704
  243loPI   C4A 3882   4.003  11.934   8.634  0.2396  0.0409  0.2739
  243loPI   C5A 3883   4.151  12.055   8.251  0.1064  0.3197  0.1359
  243loPI   C6A 3884   4.198  12.346   7.995 -0.2811 -0.0350  0.0034
  243loPI   C1B 3885   3.915  11.407   9.820  0.2710 -0.2639 -0.1789
  243loPI   C2B 3886   3.781  11.384   9.395  0.2092 -0.0621 -0.0514
  243loPI   C3B 3887   3.811  11.468   8.966 -0.0727  0.0061 -0.2261
  243loPI   C4B 3888   3.976  11.349   8.626  0.1146  0.2910  0.0127
  244loPI    C1 3889  11.349   6.105  10.694 -0.2350  0.0254 -0.1408
  244loPI    C2 3890  11.181   6.335  10.975  0.0394 -0.0724  0.1094
  244loPI    C3 3891  11.545   6.424  10.835  0.0083 -0.1668 -0.0342
  244loPI   PO4 3892  11.183   6.049  10.544 -0.0074  0.1104 -0.0012
  244loPI   GL1 3893  11.284   6.012  10.074 -0.1821  0.1184 -0.2114
  244loPI   GL2 3894  11.294   6.412  10.102 -0.1372  0.1288 -0.1428
  244loPI   C1A 3895  11.242   6.083   9.653 -0.0411  0.0761 -0.1629
  244loPI   C2A 3896  11.128   6.127   9.236  0.1172  0.0905  0.0232
  244loPI   C3A 3897  11.295   6.107   8.717 -0.1792  0.2478 -0.1192
  244loPI   C4A 3898  11.153   6.091   8.266 -0.1700 -0.1368  0.2837
  244loPI   C5A 3899  11.107   5.836   7.983 -0.0583 -0.0075 -0.2975
  244loPI   C6A 3900  11.022   5.727   7.607  0.0022  0.0826  0.0238
  244loPI   C1B 3901  10.931   6.458   9.884 -0.1744  0.0445 -0.0414
  244loPI   C2B 3902  10.820   6.376   9.573 -0.1508  0.2890  0.2056
  244loPI   C3B 3903  10.793   6.386   9.027 -0.1729 -0.1126  0.0333
  244loPI   C4B 3904  10.775   6.326   8.614 -0.2582 -0.4663 -0.0710
  245loPI    C1 3905   7.451   4.080  10.867  0.0867 -0.0816 -0.0248
  245loPI    C2 3906   7.373   3.730  10.690 -0.2674 -0.1211  0.1984
  245loPI    C3 3907   7.548   3.737  11.049  0.1288 -0.0511  0.0103
  245loPI   PO4 3908   7.367   4.258  10.575 -0.0940  0.0733  0.0024
  245loPI   GL1 3909   7.347   4.115  10.186  0.1208  0.0898  0.0349
  245loPI   GL2 3910   7.607   4.042  10.074  0.2253 -0.2367 -0.4911
  245loPI   C1A 3911   7.153   3.979   9.791 -0.1184 -0.2290 -0.2372
  245loPI   C2A 3912   6.924   3.889   9.423 -0.0100 -0.3587  0.0614
  245loPI   C3A 3913   7.008   3.922   9.013 -0.3155  0.1465  0.2378
  245loPI   C4A 3914   7.026   3.783   8.551  0.0827  0.1368 -0.0814
  245loPI   C5A 3915   7.039   3.739   8.068 -0.0447  0.0751 -0.2262
  245loPI   C6A 3916   6.846   3.927   7.725  0.2218 -0.2293  0.0708
  245loPI   C1B 3917   7.613   4.232   9.683  0.0833  0.1829  0.1982
  245loPI   C2B 3918   7.460   4.111   9.236  0.1138 -0.0283  0.0608
  245loPI   C3B 3919   7.490   4.089   8.797 -0.2901 -0.2216 -0.0180
  245loPI   C4B 3920   7.388   4.026   8.372 -0.1712  0.0359  0.0228
  246loPI    C1 3921  12.163  12.019  11.003  0.2137  0.0675 -0.0695
  246loPI    C2 3922  12.517  11.847  11.076  0.0374 -0.3626 -0.1985
  246loPI    C3 3923  12.231  11.845  11.356  0.1444  0.0186 -0.0801
  246loPI   PO4 3924  12.114  12.022  10.748  0.1910 -0.1355 -0.0154
  246loPI   GL1 3925  12.411  11.958  10.451  0.1761 -0.1011 -0.0174
  246loPI   GL2 3926  12.455  12.205  10.338  0.3169  0.0189 -0.3038
  246loPI   C1A 3927  12.338  11.810  10.099  0.3047  0.1728 -0.0794
  246loPI   C2A 3928  12.380  11.720   9.643  0.0862  0.0261 -0.4809
  246loPI   C3A 3929  12.398  11.769   9.252  0.1333 -0.0685  0.2111
  246loPI   C4A 3930  12.353  11.765   8.840 -0.1116  0.1593  0.0712
  246loPI   C5A 3931  12.402  11.733   8.413 -0.0503  0.1311  0.0357
  246loPI   C6A 3932  12.417  11.993   8.080  0.1839  0.1314 -0.2307
  246loPI   C1B 3933  12.422  12.319   9.869 -0.1645  0.0663 -0.2015
  246loPI   C2B 3934  12.445  12.326   9.386  0.2300  0.3688  0.0207
  246loPI   C3B 3935  12.297  12.268   8.983 -0.0116 -0.1298  0.0315
  246loPI   C4B 3936  12.340  12.187   8.571  0.1306 -0.4077 -0.0379
  247loPI    C1 3937   0.611   3.192  10.102  0.0959 -0.1549  0.1738
  247loPI    C2 3938   0.894   3.208   9.820 -0.1787 -0.2259 -0.1112
  247loPI    C3 3939   0.866   3.500  10.092  0.2054 -0.2510 -0.0395
  247loPI   PO4 3940   0.258   3.227   9.995  0.1099  0.3099 -0.3660
  247loPI   GL1 3941  -0.015   3.407   9.654 -0.0639  0.0361 -0.2602
  247loPI   GL2 3942  -0.293   3.142   9.706 -0.0241  0.5095  0.2939
  247loPI   C1A 3943  -0.018   3.537   9.160 -0.2762  0.1271  0.2314
  247loPI   C2A 3944  -0.034   3.386   8.735  0.4347  0.0628  0.0563
  247loPI   C3A 3945  -0.097   3.453   8.299 -0.2361  0.1609  0.0555
  247loPI   C4A 3946   0.016   3.602   7.926  0.2063  0.2205 -0.1225
  247loPI   C5A 3947  -0.083   3.450   7.564  0.2215  0.2236  0.3817
  247loPI   C6A 3948  -0.087   3.500   7.137 -0.0318 -0.1045  0.0969
  247loPI   C1B 3949  -0.493   3.355   9.335  0.1376  0.0160  0.2247
  247loPI   C2B 3950  -0.531   3.173   8.939 -0.2572  0.1800  0.2123
  247loPI   C3B 3951  -0.532   3.222   8.529 -0.0654  0.0989 -0.0365
  247loPI   C4B 3952  -0.456   3.170   8.165  0.0721 -0.1192  0.0511
  248loPI    C1 3953   4.382  15.946  11.096  0.0138  0.0893 -0.0282
  248loPI    C2 3954   4.448  15.657  11.365 -0.4632  0.3437  0.3786
  248loPI    C3 3955   4.724  15.940  11.305 -0.0501 -0.1073  0.0739
  248loPI   PO4 3956   4.242  15.767  10.865  0.1519  0.0666 -0.0146
  248loPI   GL1 3957   4.402  15.947  10.453  0.1030 -0.0783 -0.2901
  248loPI   GL2 3958   4.169  16.075  10.478  0.0697 -0.1765  0.2347
  248loPI   C1A 3959   4.466  15.998  10.051  0.0960 -0.1143  0.1779
  248loPI   C2A 3960   4.449  15.876   9.597  0.0002 -0.1228 -0.1896
  248loPI   C3A 3961   4.521  15.834   9.175  0.1900 -0.5086  0.1988
  248loPI   C4A 3962   4.560  15.821   8.726 -0.1223 -0.1037 -0.2456
  248loPI   C5A 3963   4.577  15.541   8.315  0.2900 -0.2178 -0.2759
  248loPI   C6A 3964   4.614  15.720   7.883  0.1619  0.0680  0.0884
  248loPI   C1B 3965   4.071  16.249  10.074 -0.0201 -0.1515  0.0271
  248loPI   C2B 3966   4.064  16.209   9.670  0.0866  0.0796  0.0011
  248loPI   C3B 3967   4.119  16.135   9.242  0.1991 -0.2500 -0.0458
  248loPI   C4B 3968   4.119  16.190   8.781  0.0024 -0.3515 -0.5125
  249loPI    C1 3969  17.003   1.551  10.631 -0.1542 -0.1331 -0.1069
  249loPI    C2 3970  17.052   1.233  10.868  0.0069  0.1319  0.2242
  249loPI    C3 3971  16.911   1.575  11.019 -0.3062  0.1794 -0.1594
  249loPI   PO4 3972  17.171   1.505  10.311  0.0583 -0.0408  0.2184
  249loPI   GL1 3973  17.241   1.381   9.983 -0.2585  0.1739  0.0191
  249loPI   GL2 3974  17.516   1.225   9.971  0.1118 -0.0574 -0.1159
  249loPI   C1A 3975  17.261   1.539   9.567  0.2469  0.0499 -0.1081
  249loPI   C2A 3976  17.330   1.503   9.177  0.0401 -0.1313  0.3055
  249loPI   C3A 3977  17.239   1.508   8.770 -0.2059  0.2885  0.0193
  249loPI   C4A 3978  17.239   1.540   8.351 -0.0057 -0.0436 -0.1070
  249loPI   C5A 3979  17.227   1.599   7.936 -0.0893  0.0101 -0.0654
  249loPI   C6A 3980  16.790   1.755   7.757 -0.1484  0.3899 -0.0171
  249loPI   C1B 3981  17.705   1.303   9.443  0.1707  0.2173 -0.4135
  249loPI   C2B 3982  17.774   1.303   9.107  0.0519  0.0608 -0.0840
  249loPI   C3B 3983  17.733   1.145   8.662 -0.1494 -0.0811 -0.0547
  249loPI   C4B 3984  17.687   1.229   8.251 -0.0923 -0.2600  0.1210
  250loPI    C1 3985  12.675   8.328  10.743 -0.1472 -0.0831 -0.1237
  250loPI    C2 3986  12.439   8.087  10.958 -0.0051 -0.0692  0.0499
  250loPI    C3 3987  12.546   8.445  11.103  0.1458 -0.0873 -0.0147
  250loPI   PO4 3988  12.633   8.338  10.478 -0.1053  0.1047  0.2645
  250loPI   GL1 3989  12.534   8.188  10.146 -0.2005 -0.0022  0.2754
  250loPI   GL2 3990  12.363   8.322  10.054 -0.0028 -0.2580 -0.0271
  250loPI   C1A 3991  12.628   8.234   9.696 -0.2748 -0.2370 -0.1000
  250loPI   C2A 3992  12.703   8.280   9.154  0.1886 -0.2563 -0.1220
  250loPI   C3A 3993  12.735   8.173   8.706  0.1165 -0.2809  0.0432
  250loPI   C4A 3994  12.657   8.345   8.373  0.1691 -0.3773  0.2051
  250loPI   C5A 3995  12.598   8.322   7.976 -0.1991  0.0585 -0.2352
  250loPI   C6A 3996  12.333   8.046   7.827 -0.1326  0.0876  0.1432
  250loPI   C1B 3997  12.095   8.232   9.715 -0.2867 -0.0786 -0.0125
  250loPI   C2B 3998  12.209   8.089   9.365 -0.0012  0.1780  0.0653
  250loPI   C3B 3999  12.286   8.029   8.908 -0.3122  0.4874 -0.2230
  250loPI   C4B 4000  12.199   8.064   8.445 -0.1372  0.2270 -0.0973
  251loPI    C1 4001   7.952   0.640  10.844  0.1837 -0.2825 -0.0869
  251loPI    C2 4002   7.659   0.600  11.114 -0.0569  0.0384 -0.2928
  251loPI    C3 4003   7.928   0.308  11.065 -0.0760 -0.0718  0.2110
  251loPI   PO4 4004   7.821   0.740  10.615  0.2812 -0.3700  0.0101
  251loPI   GL1 4005   7.657   0.765  10.217  0.0817 -0.0605  0.0291
  251loPI   GL2 4006   7.894   0.593  10.006  0.0004  0.1709  0.1559
  251loPI   C1A 4007   7.833   1.117   9.982 -0.2939 -0.2105 -0.1720
  251loPI   C2A 4008   7.907   1.330   9.557  0.0250 -0.0097 -0.0150
  251loPI   C3A 4009   7.880   1.197   9.100 -0.1008  0.1212  0.0599
  251loPI   C4A 4010   7.885   1.121   8.665 -0.0401 -0.1338  0.0571
  251loPI   C5A 4011   7.957   1.295   8.227 -0.1799 -0.1415  0.1722
  251loPI   C6A 4012   8.370   1.402   8.094  0.3094 -0.0224 -0.1359
  251loPI   C1B 4013   7.845   0.706   9.620 -0.0747  0.1440  0.3987
  251loPI   C2B 4014   7.848   0.672   9.252 -0.0372  0.1432 -0.2685
  251loPI   C3B 4015   7.826   0.527   8.843  0.3885  0.0495  0.0342
  251loPI   C4B 4016   8.035   0.637   8.411  0.0278  0.0573  0.0246
  252loPI    C1 4017   1.201   7.725  10.402  0.0096  0.0486 -0.0262
  252loPI    C2 4018   1.235   7.345  10.523 -0.0131  0.0335 -0.0669
  252loPI    C3 4019   0.897   7.548  10.592  0.0289  0.0725  0.0272
  252loPI   PO4 4020   1.309   7.745  10.201  0.3128 -0.1904  0.0346
  252loPI   GL1 4021   1.437   7.651   9.701  0.1619  0.0333  0.4022
  252loPI   GL2 4022   1.713   7.441   9.541 -0.1080 -0.0200  0.0655
  252loPI   C1A 4023   1.217   7.910   9.533  0.0379  0.0098 -0.1113
  252loPI   C2A 4024   1.212   7.909   9.063  0.2013  0.1338  0.0669
  252loPI   C3A 4025   1.206   7.799   8.615  0.0890 -0.2095  0.0636
  252loPI   C4A 4026   1.286   7.893   8.154 -0.1353 -0.0063  0.0584
  252loPI   C5A 4027   1.335   7.611   7.843 -0.0452 -0.2174  0.1386
  252loPI   C6A 4028   1.377   7.277   7.510  0.1208  0.2522 -0.0217
  252loPI   C1B 4029   1.627   7.533   9.039 -0.0698 -0.2983 -0.2673
  252loPI   C2B 4030   1.653   7.607   8.524  0.0441 -0.1707  0.2760
  252loPI   C3B 4031   1.809   7.610   8.059  0.1470  0.1310  0.1148
  252loPI   C4B 4032   1.905   7.370   7.661  0.1596 -0.2762 -0.1757
  253loPI    C1 4033   9.033  14.214  11.388 -0.1212  0.0394  0.3206
  253loPI    C2 4034   8.805  13.997  11.635  0.1018 -0.2291  0.2962
  253loPI    C3 4035   9.173  14.105  11.747 -0.0613  0.2771  0.3710
  253loPI   PO4 4036   9.109  14.094  11.121  0.3844  0.0178 -0.3229
  253loPI   GL1 4037   8.971  14.261  10.693  0.1577 -0.3805 -0.2526
  253loPI   GL2 4038   9.000  14.032  10.539  0.1730  0.3452 -0.0700
  253loPI   C1A 4039   9.300  14.312  10.299  0.2327  0.3227  0.2883
  253loPI   C2A 4040   9.332  14.327   9.848 -0.5733  0.0977 -0.2752
  253loPI   C3A 4041   9.407  14.262   9.374 -0.0816 -0.4302  0.0606
  253loPI   C4A 4042   9.301  14.210   9.017 -0.0333 -0.1093 -0.0330
  253loPI   C5A 4043   9.419  14.273   8.700 -0.1155 -0.2758  0.1596
  253loPI   C6A 4044   9.774  14.399   8.661  0.1604  0.1543  0.0614
  253loPI   C1B 4045   8.871  14.031  10.054 -0.0279  0.3031 -0.4579
  253loPI   C2B 4046   8.865  14.135   9.632 -0.1257 -0.0627 -0.3612
  253loPI   C3B 4047   8.868  14.071   9.254 -0.0415 -0.1966  0.1856
  253loPI   C4B 4048   8.824  13.950   8.814  0.1389 -0.2494 -0.3092
  254loPI    C1 4049   9.132   3.914  10.708 -0.0158  0.0408 -0.0882
  254loPI    C2 4050   8.852   4.117  10.507 -0.1558  0.0495  0.1135
  254loPI    C3 4051   8.757   3.927  10.846  0.0836  0.0566  0.1862
  254loPI   PO4 4052   9.244   3.777  10.517 -0.0804  0.0746 -0.0527
  254loPI   GL1 4053   9.173   4.057   9.956 -0.2373 -0.3840  0.0855
  254loPI   GL2 4054   8.988   3.889  10.065  0.0514  0.0753 -0.2140
  254loPI   C1A 4055   9.349   4.133   9.566  0.0780  0.1425 -0.2276
  254loPI   C2A 4056   9.317   4.098   9.169 -0.1295 -0.1312  0.0744
  254loPI   C3A 4057   9.336   4.106   8.773  0.0824  0.0350  0.0824
  254loPI   C4A 4058   9.247   4.007   8.327  0.2737 -0.1187  0.0087
  254loPI   C5A 4059   9.541   3.947   8.076  0.1077  0.0041 -0.2702
  254loPI   C6A 4060   9.877   3.803   8.040 -0.1955 -0.0251  0.0513
  254loPI   C1B 4061   8.852   3.892   9.607  0.2357 -0.0716 -0.0452
  254loPI   C2B 4062   8.862   3.873   9.161  0.2409 -0.1384  0.1734
  254loPI   C3B 4063   8.822   3.731   8.682 -0.3254  0.2420 -0.1544
  254loPI   C4B 4064   8.844   3.677   8.218 -0.0874  0.1828  0.1363
  255loPI    C1 4065   9.554   4.136  10.506  0.0548 -0.0437 -0.2441
  255loPI    C2 4066   9.816   4.401  10.649 -0.1567 -0.1105  0.2919
  255loPI    C3 4067   9.940   4.109  10.406  0.1126  0.3503 -0.1446
  255loPI   PO4 4068   9.405   4.275  10.350 -0.2821 -0.0977 -0.2304
  255loPI   GL1 4069   9.301   4.590  10.101  0.2700 -0.1980 -0.1000
  255loPI   GL2 4070   8.953   4.519  10.253 -0.4538 -0.0708  0.0806
  255loPI   C1A 4071   9.315   4.628   9.651 -0.0764 -0.0924 -0.3866
  255loPI   C2A 4072   9.354   4.586   9.265 -0.0868  0.2720  0.1889
  255loPI   C3A 4073   9.411   4.626   8.729  0.0531 -0.0187  0.0735
  255loPI   C4A 4074   9.372   4.543   8.253  0.0049  0.1930 -0.1408
  255loPI   C5A 4075   9.061   4.413   8.064  0.4276 -0.3244 -0.1422
  255loPI   C6A 4076   8.689   4.103   8.079  0.0704  0.0010 -0.0485
  255loPI   C1B 4077   8.904   4.419   9.766  0.2398 -0.2599  0.2869
  255loPI   C2B 4078   8.871   4.343   9.368  0.1554 -0.0047  0.0156
  255loPI   C3B 4079   8.904   4.296   8.907 -0.2280  0.0463  0.0010
  255loPI   C4B 4080   8.928   4.314   8.500  0.0413 -0.0085 -0.4269
  256loPI    C1 4081   5.680  17.350  10.684 -0.0272 -0.0708 -0.0219
  256loPI    C2 4082   5.929  17.422  10.989  0.0909 -0.0441 -0.1238
  256loPI    C3 4083   5.581  17.235  11.054 -0.0494  0.2804  0.0849
  256loPI   PO4 4084   5.674  17.624  10.547 -0.4972  0.1148 -0.1370
  256loPI   GL1 4085   5.815  17.620  10.224 -0.1347 -0.2289 -0.1655
  256loPI   GL2 4086   5.501  17.549  10.081  0.4427  0.2076 -0.2768
  256loPI   C1A 4087   5.937  17.694   9.850  0.0460  0.0563  0.3758
  256loPI   C2A 4088   5.836  17.657   9.461 -0.0845 -0.1810  0.0213
  256loPI   C3A 4089   5.982  17.609   9.088  0.1695  0.0678  0.2955
  256loPI   C4A 4090   5.970  17.638   8.617 -0.0091 -0.1045 -0.0735
  256loPI   C5A 4091   5.887  17.489   8.250  0.0237 -0.1627 -0.2211
  256loPI   C6A 4092   5.997  17.516   7.859 -0.0095  0.0791  0.0629
  256loPI   C1B 4093   5.429  17.362   9.718 -0.0641  0.3433  0.2018
  256loPI   C2B 4094   5.409  17.414   9.202 -0.0753  0.1921 -0.2177
  256loPI   C3B 4095   5.485  17.447   8.856 -0.2103  0.3069  0.0710
  256loPI   C4B 4096   5.434  17.382   8.343 -0.3125 -0.1202  0.0721
  257loPI    C1 4097   5.109   1.368  10.821 -0.0389  0.0519  0.0261
  257loPI    C2 4098   5.146   1.247  11.200  0.0963  0.4643  0.1500
  257loPI    C3 4099   4.783   1.307  11.044  0.0308  0.0191  0.1195
  257loPI   PO4 4100   5.245   1.212  10.686 -0.0564 -0.1035  0.0571
  257loPI   GL1 4101   5.448   1.051  10.298  0.1863 -0.2523  0.0843
  257loPI   GL2 4102   5.635   1.111  10.018 -0.2970 -0.0368  0.2198
  257loPI   C1A 4103   5.231   0.882   9.961 -0.1221  0.6261  0.0069
  257loPI   C2A 4104   5.175   0.843   9.495 -0.0247 -0.0285  0.1868
  257loPI   C3A 4105   5.125   0.760   9.010 -0.4400  0.0361 -0.1129
  257loPI   C4A 4106   5.165   0.786   8.642 -0.2353  0.0866 -0.0568
  257loPI   C5A 4107   5.245   0.944   8.185 -0.1321  0.2224 -0.0114
  257loPI   C6A 4108   5.516   1.018   7.924 -0.1068 -0.0324 -0.3298
  257loPI   C1B 4109   5.601   1.031   9.645  0.0456  0.3426  0.0776
  257loPI   C2B 4110   5.594   0.994   9.243 -0.0533  0.0309 -0.3455
  257loPI   C3B 4111   5.571   0.909   8.854  0.0872 -0.1414  0.0405
  257loPI   C4B 4112   5.673   1.016   8.432  0.3776  0.1992  0.1752
  258loPI    C1 4113  14.003   2.112  10.399 -0.2288 -0.0768  0.0281
  258loPI    C2 4114  13.824   2.001  10.740 -0.1385  0.1215  0.1420
  258loPI    C3 4115  14.171   2.200  10.751  0.0065 -0.1124 -0.0735
  258loPI   PO4 4116  13.842   2.235  10.230 -0.3539  0.0915  0.3809
  258loPI   GL1 4117  13.523   2.108   9.898  0.0350 -0.4701  0.2717
  258loPI   GL2 4118  13.188   2.126   9.854 -0.1997  0.1236  0.1629
  258loPI   C1A 4119  13.692   2.227   9.431 -0.1257  0.1276  0.2789
  258loPI   C2A 4120  13.788   2.232   8.897 -0.1975  0.3227  0.0433
  258loPI   C3A 4121  13.847   2.217   8.507  0.0018 -0.0030  0.1285
  258loPI   C4A 4122  13.788   2.266   8.178 -0.1436 -0.0800  0.0240
  258loPI   C5A 4123  13.718   2.031   7.735  0.0272  0.2087  0.0573
  258loPI   C6A 4124  13.509   1.667   7.617 -0.1203  0.3404  0.2683
  258loPI   C1B 4125  13.221   2.033   9.488  0.2948 -0.0931 -0.1848
  258loPI   C2B 4126  13.310   2.039   9.075  0.1370 -0.2711  0.2719
  258loPI   C3B 4127  13.361   2.010   8.666 -0.0427 -0.1798  0.6290
  258loPI   C4B 4128  13.356   2.050   8.302  0.1723 -0.3316  0.3266
  259loPI    C1 4129  17.916   7.092  10.044  0.1876 -0.0049  0.0303
  259loPI    C2 4130  17.913   7.280  10.397 -0.1423 -0.0986  0.0809
  259loPI    C3 4131  17.906   6.881  10.383  0.0772 -0.1006 -0.0320
  259loPI   PO4 4132  17.890   7.278   9.892 -0.0572 -0.1270 -0.3386
  259loPI   GL1 4133  17.717   7.512   9.550 -0.0469 -0.0562  0.3769
  259loPI   GL2 4134  17.958   7.714   9.637 -0.0687  0.2069 -0.0156
  259loPI   C1A 4135  17.658   7.451   9.171  0.2170  0.0961 -0.3329
  259loPI   C2A 4136  17.665   7.426   8.827 -0.0332 -0.0468  0.2377
  259loPI   C3A 4137  17.665   7.371   8.437 -0.0355 -0.2267 -0.0355
  259loPI   C4A 4138  17.667   7.285   8.031 -0.1824 -0.0426 -0.0410
  259loPI   C5A 4139  17.915   7.385   7.550 -0.2683  0.1788  0.0404
  259loPI   C6A 4140  17.766   7.653   7.171 -0.0989  0.0116  0.2253
  259loPI   C1B 4141  17.974   7.934   9.272  0.0485 -0.1372  0.0218
  259loPI   C2B 4142  17.878   7.863   8.884  0.1746 -0.1933 -0.1837
  259loPI   C3B 4143  17.774   7.953   8.464 -0.1115 -0.0800  0.2343
  259loPI   C4B 4144  17.930   7.984   8.082 -0.0785 -0.1835  0.2703
  260loPI    C1 4145  15.470  17.559  10.641 -0.0215 -0.0612  0.2181
  260loPI    C2 4146  15.545  17.439  11.015  0.2537 -0.1154  0.1477
  260loPI    C3 4147  15.421  17.813  10.946 -0.2000 -0.2261  0.3286
  260loPI   PO4 4148  15.286  17.454  10.543 -0.0886  0.2469 -0.1934
  260loPI   GL1 4149  15.168  17.314  10.194  0.1006 -0.1810  0.0524
  260loPI   GL2 4150  15.049  17.095  10.010 -0.0780 -0.1759  0.2318
  260loPI   C1A 4151  15.333  17.337   9.714 -0.1124  0.0765  0.0809
  260loPI   C2A 4152  15.390  17.389   9.263  0.2994  0.1773 -0.2902
  260loPI   C3A 4153  15.416  17.396   8.855  0.1384  0.0810  0.0230
  260loPI   C4A 4154  15.296  17.389   8.411 -0.3008 -0.1351 -0.1817
  260loPI   C5A 4155  15.231  17.450   8.014 -0.1438 -0.0713 -0.0334
  260loPI   C6A 4156  15.156  17.322   7.547 -0.1933 -0.0199  0.0843
  260loPI   C1B 4157  14.871  17.087   9.627 -0.2523 -0.1736 -0.0216
  260loPI   C2B 4158  14.928  17.179   9.159 -0.2198  0.1055 -0.0731
  260loPI   C3B 4159  14.911  17.189   8.741  0.2386 -0.2221  0.2796
  260loPI   C4B 4160  14.853  17.280   8.302  0.3002 -0.2308  0.0175
  261loPI    C1 4161   3.281  17.800  10.739  0.1305  0.0697  0.1967
  261loPI    C2 4162   2.933  17.985  10.808  0.0586  0.0465 -0.0901
  261loPI    C3 4163   3.233  18.018  11.071 -0.0968  0.2190  0.0685
  261loPI   PO4 4164   3.258  17.672  10.574 -0.1675  0.0016  0.0628
  261loPI   GL1 4165   3.247  17.496  10.246  0.0150 -0.2253 -0.2890
  261loPI   GL2 4166   3.571  17.535  10.162  0.1372 -0.0868  0.1192
  261loPI   C1A 4167   3.110  17.273   9.857 -0.3628 -0.2304 -0.0987
  261loPI   C2A 4168   3.241  17.162   9.459 -0.0537 -0.1136  0.1137
  261loPI   C3A 4169   3.200  17.217   8.937 -0.1160 -0.1221  0.0524
  261loPI   C4A 4170   3.258  17.258   8.556 -0.2713  0.1371  0.2527
  261loPI   C5A 4171   3.283  17.295   8.214 -0.3191 -0.0659 -0.0202
  261loPI   C6A 4172   3.221  17.394   7.788 -0.2250 -0.0075  0.0255
  261loPI   C1B 4173   3.606  17.452   9.789  0.0772  0.1515 -0.2526
  261loPI   C2B 4174   3.680  17.432   9.294 -0.0671 -0.4449 -0.3213
  261loPI   C3B 4175   3.718  17.397   8.815 -0.4523  0.0800 -0.0362
  261loPI   C4B 4176   3.682  17.478   8.409 -0.0558  0.3146  0.3863
  262loPI    C1 4177   8.665   8.860  11.037  0.0720  0.3849 -0.1238
  262loPI    C2 4178   8.512   9.106  11.313  0.0978  0.0265  0.2196
  262loPI    C3 4179   8.571   8.720  11.400  0.1451 -0.0858 -0.2792
  262loPI   PO4 4180   8.509   8.874  10.840  0.0684  0.2344  0.0611
  262loPI   GL1 4181   8.426   8.579  10.466  0.0370 -0.2427  0.0352
  262loPI   GL2 4182   8.153   8.534  10.292  0.1593  0.0340 -0.1425
  262loPI   C1A 4183   8.628   8.811  10.151 -0.0072  0.1058 -0.3294
  262loPI   C2A 4184   8.709   8.770   9.729  0.0447 -0.2531 -0.3272
  262loPI   C3A 4185   8.684   8.837   9.239 -0.0932 -0.1323 -0.2266
  262loPI   C4A 4186   8.637   8.841   8.894 -0.2371 -0.0647  0.1470
  262loPI   C5A 4187   8.733   8.865   8.461  0.1094  0.0173 -0.0560
  262loPI   C6A 4188   8.792   9.165   8.212  0.0195 -0.1950 -0.0844
  262loPI   C1B 4189   8.254   8.591   9.905  0.0165  0.3730  0.1468
  262loPI   C2B 4190   8.241   8.556   9.431 -0.2314 -0.1337  0.0908
  262loPI   C3B 4191   8.172   8.535   9.010  0.1909 -0.2917 -0.0534
  262loPI   C4B 4192   8.264   8.581   8.623  0.2644  0.4307  0.1371
  263loPI    C1 4193   8.815   1.356  10.981 -0.3632 -0.0705  0.0496
  263loPI    C2 4194   9.069   1.319  11.287 -0.1678  0.0249 -0.0985
  263loPI    C3 4195   8.811   1.625  11.276  0.0592  0.2155 -0.1955
  263loPI   PO4 4196   8.957   1.249  10.833 -0.1563  0.0767  0.2560
  263loPI   GL1 4197   8.985   1.281  10.467 -0.0219 -0.0140  0.2118
  263loPI   GL2 4198   8.788   1.138  10.276  0.0297 -0.1646 -0.0561
  263loPI   C1A 4199   9.159   1.405  10.089  0.0831 -0.1164 -0.1103
  263loPI   C2A 4200   9.178   1.445   9.652 -0.1440 -0.0629 -0.3088
  263loPI   C3A 4201   9.220   1.397   9.206 -0.1039 -0.2275 -0.2366
  263loPI   C4A 4202   9.263   1.514   8.815  0.2894  0.1693  0.0824
  263loPI   C5A 4203   9.298   1.286   8.389 -0.0499 -0.3933  0.3422
  263loPI   C6A 4204   9.419   1.131   8.017  0.1337  0.0162  0.1719
  263loPI   C1B 4205   8.794   1.080   9.898  0.0311 -0.3616 -0.0471
  263loPI   C2B 4206   8.731   1.192   9.539 -0.0601  0.1178  0.1535
  263loPI   C3B 4207   8.762   1.171   9.167  0.1128 -0.0533  0.0727
  263loPI   C4B 4208   8.863   1.167   8.808 -0.3535  0.1791 -0.2667
  264loPI    C1 4209  13.297   3.991  10.228  0.2047 -0.0131  0.2169
  264loPI    C2 4210  13.466   4.353  10.244  0.1572  0.0122  0.1499
  264loPI    C3 4211  13.584   4.066  10.496  0.2978  0.0308  0.1058
  264loPI   PO4 4212  13.279   3.911  10.003  0.1209  0.0383  0.0041
  264loPI   GL1 4213  13.395   3.748   9.578  0.1814 -0.0224  0.1835
  264loPI   GL2 4214  13.411   3.455   9.539  0.4439  0.3221 -0.1995
  264loPI   C1A 4215  13.441   4.144   9.378 -0.0147  0.0137 -0.0757
  264loPI   C2A 4216  13.369   4.058   8.964 -0.2307  0.1084  0.0444
  264loPI   C3A 4217  13.457   4.064   8.435  0.0624 -0.1387 -0.3381
  264loPI   C4A 4218  13.237   4.060   8.054 -0.0889 -0.1536 -0.5074
  264loPI   C5A 4219  13.231   4.234   7.644  0.2045 -0.0178 -0.1562
  264loPI   C6A 4220  13.052   4.140   7.269 -0.0720  0.0974 -0.1037
  264loPI   C1B 4221  13.369   3.505   9.107 -0.0970  0.1224  0.0943
  264loPI   C2B 4222  13.335   3.541   8.654 -0.2036  0.2311  0.0342
  264loPI   C3B 4223  13.519   3.567   8.177  0.1715 -0.0541 -0.0957
  264loPI   C4B 4224  13.537   3.503   7.720  0.0760 -0.2946 -0.0266
  265loPI    C1 4225   8.264   3.947  10.751  0.3580  0.0243  0.1935
  265loPI    C2 4226   8.031   3.663  10.909  0.2614  0.0487  0.0967
  265loPI    C3 4227   7.991   4.043  11.028  0.0576  0.0974 -0.1203
  265loPI   PO4 4228   8.311   3.895  10.487 -0.1852  0.0758 -0.0233
  265loPI   GL1 4229   8.462   3.850  10.050  0.1380  0.2098 -0.1110
  265loPI   GL2 4230   8.540   4.227  10.121  0.2709 -0.2373  0.0916
  265loPI   C1A 4231   8.434   3.624   9.578 -0.1538  0.1226  0.1370
  265loPI   C2A 4232   8.342   3.606   9.176 -0.4232  0.3038  0.0514
  265loPI   C3A 4233   8.313   3.516   8.732 -0.1210 -0.1294  0.2422
  265loPI   C4A 4234   8.364   3.503   8.229 -0.1384 -0.0551  0.1196
  265loPI   C5A 4235   8.668   3.484   7.812  0.1124  0.1270 -0.0637
  265loPI   C6A 4236   8.939   3.149   7.509 -0.2148 -0.4220  0.0629
  265loPI   C1B 4237   8.446   4.227   9.752 -0.1628 -0.0501  0.0164
  265loPI   C2B 4238   8.391   4.073   9.377 -0.2354  0.1075  0.0861
  265loPI   C3B 4239   8.470   4.039   8.915  0.3045  0.1903  0.0413
  265loPI   C4B 4240   8.409   4.021   8.465 -0.1463  0.0075 -0.0298
  266loPI    C1 4241   5.481  15.651  11.246 -0.0759  0.0307 -0.0962
  266loPI    C2 4242   5.131  15.697  11.435  0.0856  0.0178  0.2123
  266loPI    C3 4243   5.447  15.917  11.543  0.2226 -0.1014  0.0605
  266loPI   PO4 4244   5.455  15.730  10.929 -0.1702  0.1042  0.1247
  266loPI   GL1 4245   5.292  15.773  10.498  0.0353  0.1289  0.0509
  266loPI   GL2 4246   5.060  15.852  10.591 -0.2264  0.1236  0.1019
  266loPI   C1A 4247   5.297  15.924  10.145 -0.0438  0.3610 -0.0347
  266loPI   C2A 4248   5.363  15.784   9.661 -0.0250 -0.0912  0.2845
  266loPI   C3A 4249   5.453  15.865   9.211 -0.1877  0.0337  0.1715
  266loPI   C4A 4250   5.505  15.790   8.728  0.0200 -0.2082  0.1648
  266loPI   C5A 4251   5.347  15.775   8.342  0.2580 -0.0690 -0.2517
  266loPI   C6A 4252   5.064  15.515   8.037 -0.3923  0.3216 -0.0518
  266loPI   C1B 4253   4.837  15.753  10.228  0.3456  0.0592 -0.1706
  266loPI   C2B 4254   4.798  15.620   9.891 -0.2473 -0.2329  0.0874
  266loPI   C3B 4255   4.904  15.642   9.439 -0.0552  0.0671 -0.1640
  266loPI   C4B 4256   4.957  15.614   9.023 -0.4984  0.1503  0.3601
  267loPI    C1 4257  17.525  10.237  10.523 -0.2827 -0.0923 -0.1268
  267loPI    C2 4258  17.158  10.293  10.672 -0.0857  0.2248  0.2552
  267loPI    C3 4259  17.455  10.173  10.912  0.1584  0.3983  0.0450
  267loPI   PO4 4260  17.506  10.361  10.352 -0.1052  0.1027  0.0769
  267loPI   GL1 4261  17.410  10.436   9.850  0.1897 -0.1554 -0.1424
  267loPI   GL2 4262  17.738  10.592   9.926 -0.0355 -0.6414  0.1382
  267loPI   C1A 4263  17.320  10.367   9.465 -0.0836  0.0534  0.0322
  267loPI   C2A 4264  17.452  10.339   9.017 -0.1822 -0.0788 -0.1016
  267loPI   C3A 4265  17.405  10.243   8.488  0.4365 -0.0212 -0.2627
  267loPI   C4A 4266  17.331  10.062   8.046  0.1391  0.0365 -0.0658
  267loPI   C5A 4267  17.361   9.904   7.645 -0.1403 -0.0706 -0.7495
  267loPI   C6A 4268  17.769   9.822   7.367  0.1750  0.0566  0.2692
  267loPI   C1B 4269  17.808  10.588   9.545  0.4303  0.5181 -0.2097
  267loPI   C2B 4270  17.817  10.573   9.160  0.2812 -0.1480  0.0520
  267loPI   C3B 4271  17.784  10.498   8.662  0.0926  0.2024  0.0096
  267loPI   C4B 4272  17.940  10.487   8.279  0.1965  0.1632  0.0113
  268loPI    C1 4273  10.105   6.492  10.616 -0.0977 -0.4414  0.0754
  268loPI    C2 4274  10.257   6.162  10.449  0.1925 -0.2288 -0.0908
  268loPI    C3 4275  10.247   6.198  10.847  0.1924 -0.4210 -0.0725
  268loPI   PO4 4276  10.267   6.726  10.388 -0.0087 -0.0347  0.0660
  268loPI   GL1 4277  10.345   6.689   9.950 -0.2718  0.0296  0.3280
  268loPI   GL2 4278  10.643   6.801   9.802  0.2906 -0.3514 -0.1988
  268loPI   C1A 4279  10.225   6.659   9.515 -0.1751 -0.0543 -0.1537
  268loPI   C2A 4280  10.353   6.695   9.074 -0.1904 -0.0585 -0.1142
  268loPI   C3A 4281  10.380   6.624   8.689 -0.1578  0.4080 -0.0931
  268loPI   C4A 4282  10.383   6.410   8.303  0.0062 -0.2506  0.0628
  268loPI   C5A 4283  10.732   6.424   8.156  0.0451 -0.3634 -0.0289
  268loPI   C6A 4284  10.829   6.213   7.844 -0.0858 -0.0041 -0.0449
  268loPI   C1B 4285  10.737   6.805   9.368 -0.0873  0.1737 -0.0592
  268loPI   C2B 4286  10.820   6.881   8.888  0.1139  0.2224 -0.0072
  268loPI   C3B 4287  10.819   6.832   8.456  0.3940 -0.1096 -0.1002
  268loPI   C4B 4288  10.857   6.939   8.030 -0.0600  0.0600 -0.0209
  269loPI    C1 4289   9.396   9.290  10.868 -0.1018  0.4356  0.2712
  269loPI    C2 4290   9.023   9.268  11.010 -0.1573 -0.0756  0.0688
  269loPI    C3 4291   9.334   9.205  11.253 -0.2186 -0.0815  0.1463
  269loPI   PO4 4292   9.376   9.297  10.685  0.0023 -0.0272 -0.1038
  269loPI   GL1 4293   9.522   9.240  10.323  0.2232  0.0225 -0.0795
  269loPI   GL2 4294   9.241   9.473  10.196 -0.1325  0.0050  0.0227
  269loPI   C1A 4295   9.635   9.130   9.909  0.0677  0.0265 -0.0012
  269loPI   C2A 4296   9.613   9.223   9.509 -0.2574  0.0558 -0.0054
  269loPI   C3A 4297   9.504   9.298   9.065 -0.1812  0.0844 -0.0041
  269loPI   C4A 4298   9.703   9.322   8.722  0.3344 -0.1229 -0.1663
  269loPI   C5A 4299   9.676   9.320   8.345 -0.0326  0.2812  0.1273
  269loPI   C6A 4300   9.942   9.565   7.942 -0.0295 -0.1766 -0.0517
  269loPI   C1B 4301   9.253   9.486   9.767  0.0635  0.4210  0.0173
  269loPI   C2B 4302   9.126   9.538   9.369  0.1138  0.4828 -0.0657
  269loPI   C3B 4303   9.144   9.595   8.922  0.1499  0.3195  0.2571
  269loPI   C4B 4304   9.167   9.538   8.495  0.3718 -0.3083  0.1702
  270loPI    C1 4305  17.100  16.344  10.939 -0.0343 -0.4609 -0.2100
  270loPI    C2 4306  17.295  16.152  11.231  0.0233 -0.1089 -0.0113
  270loPI    C3 4307  16.973  16.374  11.317  0.0664  0.0336 -0.2080
  270loPI   PO4 4308  17.011  16.248  10.753 -0.2007  0.4825 -0.0823
  270loPI   GL1 4309  16.892  16.192  10.386  0.2039  0.1220 -0.2234
  270loPI   GL2 4310  16.595  16.249  10.207  0.2145 -0.2074  0.1113
  270loPI   C1A 4311  17.012  16.298   9.993  0.3441 -0.0932  0.1840
  270loPI   C2A 4312  17.036  16.174   9.574 -0.1117  0.2242 -0.2175
  270loPI   C3A 4313  17.092  16.301   9.255  0.1089  0.0878  0.1041
  270loPI   C4A 4314  17.046  16.326   8.799 -0.1533 -0.0603 -0.0537
  270loPI   C5A 4315  17.113  16.218   8.387  0.2203  0.2703  0.1815
  270loPI   C6A 4316  16.885  16.019   8.130 -0.1009 -0.1761 -0.0646
  270loPI   C1B 4317  16.562  16.033   9.746  0.3479  0.3052  0.2761
  270loPI   C2B 4318  16.653  15.987   9.288 -0.0691  0.0863  0.1345
  270loPI   C3B 4319  16.586  16.060   8.947 -0.0004  0.2094  0.0799
  270loPI   C4B 4320  16.599  16.091   8.565  0.0422 -0.4258 -0.3581
  271loPI    C1 4321   6.096   6.190  10.419 -0.4347 -0.0861 -0.1194
  271loPI    C2 4322   5.965   6.230  10.795 -0.0684  0.0824 -0.0051
  271loPI    C3 4323   5.866   5.906  10.583  0.2211 -0.3183  0.4495
  271loPI   PO4 4324   6.043   6.443  10.283 -0.0580  0.0300 -0.3698
  271loPI   GL1 4325   5.874   6.611   9.895  0.0341 -0.2114 -0.1615
  271loPI   GL2 4326   6.127   6.732   9.846  0.2324  0.0911 -0.0877
  271loPI   C1A 4327   5.852   6.799   9.426  0.2248 -0.1152 -0.4779
  271loPI   C2A 4328   5.864   6.880   9.031 -0.1116 -0.0390 -0.1188
  271loPI   C3A 4329   5.846   6.817   8.605 -0.0488  0.1935 -0.0177
  271loPI   C4A 4330   5.810   6.905   8.195 -0.1598  0.0531  0.3386
  271loPI   C5A 4331   5.820   6.684   7.832 -0.3948 -0.1906  0.0441
  271loPI   C6A 4332   6.010   6.283   7.620  0.1920  0.1050 -0.4670
  271loPI   C1B 4333   6.242   6.522   9.498  0.2172 -0.2711  0.0472
  271loPI   C2B 4334   6.200   6.536   9.111 -0.0188 -0.0593  0.0767
  271loPI   C3B 4335   6.332   6.517   8.677 -0.1864 -0.0875  0.2213
  271loPI   C4B 4336   6.283   6.698   8.191 -0.3101 -0.1060 -0.0693
  272loPI    C1 4337  16.297  10.746  10.898 -0.0257 -0.2935 -0.0355
  272loPI    C2 4338  16.054  10.604  11.182 -0.0491 -0.0029  0.0927
  272loPI    C3 4339  16.448  10.543  11.207 -0.0434  0.0854  0.2281
  272loPI   PO4 4340  16.236  10.629  10.555  0.2622 -0.0237 -0.4410
  272loPI   GL1 4341  16.419  10.771  10.182  0.1774 -0.2469 -0.1487
  272loPI   GL2 4342  16.107  10.920  10.216  0.1350  0.0923  0.2609
  272loPI   C1A 4343  16.482  10.822   9.716 -0.0538  0.0801 -0.0433
  272loPI   C2A 4344  16.384  10.940   9.335  0.1635 -0.0186  0.0880
  272loPI   C3A 4345  16.364  10.916   8.946 -0.0504  0.2067  0.0496
  272loPI   C4A 4346  16.403  10.840   8.484 -0.0942  0.0819 -0.0876
  272loPI   C5A 4347  16.239  10.914   7.997  0.0882  0.2186 -0.0867
  272loPI   C6A 4348  16.477  10.843   7.564  0.1470  0.0413  0.1316
  272loPI   C1B 4349  16.058  11.044   9.864  0.1834 -0.1490  0.3075
  272loPI   C2B 4350  15.983  11.171   9.284 -0.1638  0.0796  0.0703
  272loPI   C3B 4351  15.888  11.061   8.907 -0.1290  0.0997  0.1117
  272loPI   C4B 4352  16.014  11.115   8.388 -0.2609 -0.1414 -0.0031
  273loPI    C1 4353   5.145   2.268  10.467 -0.2462  0.1010 -0.1105
  273loPI    C2 4354   4.907   2.306  10.786 -0.0232  0.2610  0.0403
  273loPI    C3 4355   4.774   2.119  10.458 -0.2401  0.0569  0.2406
  273loPI   PO4 4356   5.263   2.491  10.444  0.3587  0.0668  0.1567
  273loPI   GL1 4357   5.257   2.641  10.048  0.1207  0.0212  0.0840
  273loPI   GL2 4358   5.332   2.301  10.002 -0.2764  0.0349  0.0658
  273loPI   C1A 4359   5.315   2.891   9.659 -0.2631  0.0449  0.0476
  273loPI   C2A 4360   5.228   2.867   9.159 -0.0521 -0.0316 -0.1458
  273loPI   C3A 4361   5.206   2.864   8.699 -0.1843 -0.1487  0.0205
  273loPI   C4A 4362   5.224   2.917   8.293 -0.0693  0.1905  0.2278
  273loPI   C5A 4363   5.362   2.891   7.827 -0.0804 -0.0303 -0.0714
  273loPI   C6A 4364   5.283   2.606   7.439 -0.4474 -0.0358  0.4652
  273loPI   C1B 4365   5.179   2.440   9.581  0.0323 -0.0285  0.2862
  273loPI   C2B 4366   5.279   2.370   9.157 -0.0039  0.0304  0.0673
  273loPI   C3B 4367   5.247   2.346   8.723  0.1256  0.1804  0.0973
  273loPI   C4B 4368   5.208   2.364   8.200  0.0601 -0.3778  0.1398
  274loPI    C1 4369  12.784   8.833  10.679 -0.1240 -0.0333  0.0965
  274loPI    C2 4370  13.015   9.032  10.937 -0.0511 -0.1293  0.1059
  274loPI    C3 4371  12.993   8.633  10.955  0.0855 -0.1499 -0.1427
  274loPI   PO4 4372  12.793   8.998  10.448 -0.5408  0.0281 -0.0905
  274loPI   GL1 4373  12.677   8.917  10.006  0.2823  0.1832 -0.1472
  274loPI   GL2 4374  12.744   8.668  10.016  0.0053  0.3361 -0.2079
  274loPI   C1A 4375  12.359   8.663   9.640  0.0275 -0.2496 -0.0381
  274loPI   C2A 4376  12.272   8.548   9.216  0.3491  0.1590 -0.1683
  274loPI   C3A 4377  12.307   8.461   8.718  0.1980 -0.1570  0.2642
  274loPI   C4A 4378  12.254   8.658   8.336 -0.2196  0.0163 -0.3270
  274loPI   C5A 4379  11.903   8.870   7.979  0.0281  0.2107 -0.1378
  274loPI   C6A 4380  11.561   9.077   8.136 -0.0529 -0.0144  0.3616
  274loPI   C1B 4381  12.818   8.680   9.587 -0.1485  0.0115  0.1795
  274loPI   C2B 4382  12.696   8.795   9.148 -0.2630  0.2586 -0.0957
  274loPI   C3B 4383  12.774   8.679   8.779  0.3036 -0.3415 -0.0859
  274loPI   C4B 4384  12.744   8.847   8.326  0.0151 -0.2255  0.3177
  275loPI    C1 4385   1.761  10.346  10.308 -0.0902  0.0427  0.1470
  275loPI    C2 4386   1.664  10.137  10.635  0.0372 -0.1339  0.0730
  275loPI    C3 4387   2.006  10.060  10.442 -0.1301 -0.1670 -0.2159
  275loPI   PO4 4388   1.609  10.294  10.102  0.0782 -0.1012  0.1725
  275loPI   GL1 4389   1.650  10.480   9.836 -0.0505 -0.3448 -0.0931
  275loPI   GL2 4390   1.483  10.784   9.755  0.1595  0.2032 -0.0597
  275loPI   C1A 4391   2.021  10.464   9.506  0.0870 -0.0472  0.1687
  275loPI   C2A 4392   2.068  10.457   9.066 -0.0071 -0.3703  0.0603
  275loPI   C3A 4393   2.013  10.523   8.653 -0.2645  0.1843 -0.0559
  275loPI   C4A 4394   1.958  10.491   8.112  0.0507  0.0351 -0.2173
  275loPI   C5A 4395   2.160  10.387   7.730 -0.0048  0.0804  0.0587
  275loPI   C6A 4396   2.373  10.140   7.506 -0.1998  0.0317  0.3261
  275loPI   C1B 4397   1.616  10.721   9.413  0.2813 -0.0443  0.0363
  275loPI   C2B 4398   1.617  10.732   8.905  0.1848 -0.0305 -0.2135
  275loPI   C3B 4399   1.648  10.816   8.492 -0.2456  0.2366  0.0460
  275loPI   C4B 4400   1.728  10.872   7.987 -0.0851  0.2178 -0.0365
  276loPI    C1 4401   1.974   0.736  10.652 -0.0286 -0.1178 -0.0004
  276loPI    C2 4402   2.264   0.680  10.921 -0.1208  0.1203  0.1512
  276loPI    C3 4403   2.169   1.050  10.804 -0.2837  0.0362  0.0139
  276loPI   PO4 4404   2.102   0.615  10.451 -0.1824  0.2848 -0.1011
  276loPI   GL1 4405   2.016   0.380  10.097 -0.5019  0.1241 -0.0599
  276loPI   GL2 4406   2.217   0.115  10.198  0.1102  0.1224 -0.1681
  276loPI   C1A 4407   1.851   0.204   9.757  0.0146 -0.1163  0.1557
  276loPI   C2A 4408   1.899   0.066   9.385 -0.1957  0.1489 -0.1779
  276loPI   C3A 4409   1.866   0.195   8.992  0.1707 -0.0463  0.1496
  276loPI   C4A 4410   1.938   0.112   8.542 -0.0154 -0.2375 -0.0869
  276loPI   C5A 4411   1.977  -0.029   8.169 -0.1025  0.0801 -0.0995
  276loPI   C6A 4412   2.112  -0.233   7.674  0.2495 -0.3948  0.0696
  276loPI   C1B 4413   2.370  -0.020   9.819  0.4042  0.1208 -0.2153
  276loPI   C2B 4414   2.353  -0.125   9.414  0.1343  0.0145  0.2000
  276loPI   C3B 4415   2.272  -0.096   9.031 -0.1295 -0.0585 -0.0361
  276loPI   C4B 4416   2.443  -0.112   8.633  0.0825  0.1985  0.2936
  277loPI    C1 4417   7.055  15.473  11.116 -0.0749  0.2100  0.2031
  277loPI    C2 4418   6.963  15.195  11.388 -0.1963  0.0421 -0.0059
  277loPI    C3 4419   7.252  15.462  11.464 -0.1533 -0.0712  0.2405
  277loPI   PO4 4420   7.021  15.374  10.918 -0.1435  0.2663  0.0780
  277loPI   GL1 4421   7.038  15.446  10.428  0.1243 -0.2692 -0.1825
  277loPI   GL2 4422   7.080  15.715  10.291  0.3510 -0.2512 -0.1703
  277loPI   C1A 4423   7.171  15.183  10.041  0.1849  0.1910  0.0628
  277loPI   C2A 4424   7.211  15.207   9.633  0.1739 -0.2305 -0.0281
  277loPI   C3A 4425   7.234  15.187   9.206 -0.0372 -0.2651 -0.1017
  277loPI   C4A 4426   7.104  15.215   8.747  0.1038 -0.1606  0.0096
  277loPI   C5A 4427   7.130  15.368   8.257 -0.3363  0.1412  0.2645
  277loPI   C6A 4428   7.064  15.474   7.918  0.0875  0.2683  0.0582
  277loPI   C1B 4429   7.219  15.653   9.863 -0.2700 -0.3557  0.0434
  277loPI   C2B 4430   7.213  15.684   9.447 -0.1895  0.0014  0.2071
  277loPI   C3B 4431   7.214  15.822   8.990 -0.0783  0.1806  0.1449
  277loPI   C4B 4432   7.131  15.964   8.550  0.0192 -0.1344  0.1469
  278loPI    C1 4433   5.979   6.929  10.384  0.0666 -0.0251  0.0021
  278loPI    C2 4434   5.665   7.018  10.616 -0.0109 -0.2146 -0.0281
  278loPI    C3 4435   5.852   6.666  10.659  0.4112  0.0317  0.2221
  278loPI   PO4 4436   5.931   7.118  10.149  0.0276 -0.2477  0.2786
  278loPI   GL1 4437   5.628   7.214   9.927 -0.0725  0.1489 -0.0229
  278loPI   GL2 4438   5.418   7.519   9.890 -0.0532  0.1472 -0.1080
  278loPI   C1A 4439   5.885   7.289   9.424 -0.0069 -0.2291  0.0478
  278loPI   C2A 4440   5.916   7.414   8.954 -0.1756 -0.0533  0.0635
  278loPI   C3A 4441   5.918   7.348   8.433  0.0512  0.2660  0.0198
  278loPI   C4A 4442   5.870   7.412   8.090 -0.0090  0.0817  0.1011
  278loPI   C5A 4443   6.039   7.107   7.764 -0.0576 -0.2380  0.0855
  278loPI   C6A 4444   6.369   6.708   7.688 -0.0483 -0.0313 -0.0828
  278loPI   C1B 4445   5.391   7.658   9.426  0.0231 -0.2783  0.1461
  278loPI   C2B 4446   5.412   7.663   8.934  0.3390  0.1034  0.0580
  278loPI   C3B 4447   5.376   7.735   8.498 -0.0064 -0.3692 -0.0964
  278loPI   C4B 4448   5.510   7.746   8.017  0.1376 -0.3280  0.0256
  279loPI    C1 4449   1.767  12.671  10.634 -0.0110 -0.1341  0.1817
  279loPI    C2 4450   1.938  12.318  10.713  0.0053 -0.1749 -0.0301
  279loPI    C3 4451   1.757  12.523  11.005  0.2344 -0.2285  0.1519
  279loPI   PO4 4452   1.730  12.705  10.408  0.1307  0.3991  0.0331
  279loPI   GL1 4453   1.874  12.636  10.065 -0.2598 -0.1459 -0.1181
  279loPI   GL2 4454   2.065  12.369  10.128  0.1780 -0.1866  0.0744
  279loPI   C1A 4455   1.681  12.737   9.716 -0.2460 -0.4428  0.2725
  279loPI   C2A 4456   1.664  12.785   9.256  0.2181  0.0512  0.0809
  279loPI   C3A 4457   1.734  12.846   8.830 -0.1396  0.1898 -0.1073
  279loPI   C4A 4458   1.779  12.852   8.389  0.0728  0.0667  0.5905
  279loPI   C5A 4459   2.131  12.986   8.088 -0.0347 -0.4229 -0.0233
  279loPI   C6A 4460   2.551  12.962   7.907  0.3223 -0.1478  0.3330
  279loPI   C1B 4461   2.126  12.511   9.654  0.1633 -0.0180  0.2116
  279loPI   C2B 4462   2.130  12.534   9.264 -0.2114 -0.2747 -0.1299
  279loPI   C3B 4463   2.136  12.543   8.817  0.0360 -0.2560  0.2234
  279loPI   C4B 4464   2.263  12.655   8.376 -0.1423  0.0671  0.1662
  280loPI    C1 4465  12.904  14.602  10.895  0.0814 -0.1658  0.0070
  280loPI    C2 4466  12.602  14.378  11.030  0.1514 -0.3171 -0.0858
  280loPI    C3 4467  12.837  14.572  11.288  0.0258 -0.2650 -0.0098
  280loPI   PO4 4468  12.813  14.695  10.690 -0.2952 -0.0515  0.2208
  280loPI   GL1 4469  12.766  14.726  10.318  0.4914 -0.1949  0.0786
  280loPI   GL2 4470  12.961  14.556  10.176  0.1498  0.1489  0.2044
  280loPI   C1A 4471  12.641  14.814   9.912  0.0085 -0.2389 -0.0647
  280loPI   C2A 4472  12.600  14.949   9.535  0.2635 -0.1324 -0.1276
  280loPI   C3A 4473  12.565  15.003   9.085 -0.2519 -0.1789 -0.1330
  280loPI   C4A 4474  12.641  15.046   8.710 -0.0366 -0.2571  0.0044
  280loPI   C5A 4475  12.442  15.173   8.349 -0.2611 -0.1431  0.3820
  280loPI   C6A 4476  12.187  15.414   8.177  0.0084 -0.0286 -0.4089
  280loPI   C1B 4477  13.008  14.501   9.805  0.2502  0.0433  0.4581
  280loPI   C2B 4478  12.964  14.623   9.341 -0.1450 -0.1887  0.0363
  280loPI   C3B 4479  12.980  14.668   8.904  0.3100 -0.2470  0.2500
  280loPI   C4B 4480  12.897  14.701   8.534 -0.2074 -0.1240 -0.0957
  281loPI    C1 4481  14.328   0.642  10.709  0.1526 -0.2925 -0.0649
  281loPI    C2 4482  14.373   0.931  10.981 -0.2208 -0.3191  0.0307
  281loPI    C3 4483  14.302   0.556  11.099 -0.0203 -0.3995 -0.0989
  281loPI   PO4 4484  14.519   0.601  10.583  0.0155 -0.2359 -0.0051
  281loPI   GL1 4485  14.673   0.634  10.129 -0.0485  0.1322  0.1690
  281loPI   GL2 4486  14.537   0.771   9.870  0.1987  0.1275  0.1490
  281loPI   C1A 4487  14.548   0.228   9.952  0.1459  0.0646  0.2648
  281loPI   C2A 4488  14.371   0.120   9.681 -0.1031 -0.0392  0.1009
  281loPI   C3A 4489  14.449  -0.011   9.310 -0.3065  0.0837 -0.1681
  281loPI   C4A 4490  14.509   0.117   8.878  0.1667  0.1006 -0.0723
  281loPI   C5A 4491  14.572   0.198   8.387  0.0396 -0.0539  0.1397
  281loPI   C6A 4492  14.879   0.436   8.040  0.0461 -0.0544  0.0778
  281loPI   C1B 4493  14.419   0.617   9.454  0.0928  0.0895  0.0116
  281loPI   C2B 4494  14.490   0.653   9.062 -0.3820  0.1810  0.2952
  281loPI   C3B 4495  14.545   0.532   8.684  0.1936 -0.0876 -0.1967
  281loPI   C4B 4496  14.551   0.666   8.340 -0.2362 -0.1379 -0.1871
  282loPI    C1 4497  15.367   2.397  10.594  0.0439  0.2207 -0.2520
  282loPI    C2 4498  15.730   2.231  10.625 -0.0908 -0.0151  0.1436
  282loPI    C3 4499  15.546   2.370  10.951 -0.2300  0.3866 -0.0989
  282loPI   PO4 4500  15.443   2.436  10.276  0.0214 -0.0346 -0.0823
  282loPI   GL1 4501  15.307   2.779   9.989 -0.2731 -0.1476  0.0825
  282loPI   GL2 4502  15.579   2.664   9.824  0.2118  0.1460  0.1560
  282loPI   C1A 4503  15.186   2.927   9.588  0.2893  0.3190  0.0689
  282loPI   C2A 4504  15.125   2.907   9.189  0.0672 -0.1907 -0.2742
  282loPI   C3A 4505  15.204   2.910   8.789  0.1424  0.2773  0.1293
  282loPI   C4A 4506  15.146   2.896   8.398  0.1081 -0.1361 -0.1681
  282loPI   C5A 4507  15.233   2.904   7.911  0.0001 -0.2032  0.0241
  282loPI   C6A 4508  15.663   2.911   7.684  0.1392  0.3545 -0.1066
  282loPI   C1B 4509  15.615   2.658   9.426  0.5058  0.0069 -0.1434
  282loPI   C2B 4510  15.571   2.627   8.974 -0.1125 -0.0482 -0.2028
  282loPI   C3B 4511  15.561   2.645   8.564 -0.2035  0.1026 -0.2610
  282loPI   C4B 4512  15.591   2.646   8.157  0.0717 -0.1952 -0.2010
  283loPI    C1 4513  15.513  13.842  11.043  0.0091 -0.0115 -0.1061
  283loPI    C2 4514  15.906  13.851  11.119  0.0007 -0.2028 -0.0347
  283loPI    C3 4515  15.683  13.547  11.254 -0.2041 -0.0051  0.0785
  283loPI   PO4 4516  15.574  14.003  10.771 -0.1198 -0.0480 -0.0352
  283loPI   GL1 4517  15.467  13.962  10.344 -0.0073  0.0569  0.2301
  283loPI   GL2 4518  15.258  13.788  10.413 -0.0515 -0.0433  0.1129
  283loPI   C1A 4519  15.618  14.054   9.940  0.2926  0.1404  0.1293
  283loPI   C2A 4520  15.700  13.941   9.543  0.3359 -0.0087  0.2591
  283loPI   C3A 4521  15.672  13.942   9.091  0.3891  0.0663  0.1629
  283loPI   C4A 4522  15.721  13.954   8.697  0.2072  0.2159  0.2023
  283loPI   C5A 4523  16.121  13.757   8.426  0.0660 -0.0638 -0.2288
  283loPI   C6A 4524  16.540  13.933   8.538 -0.0431 -0.2393 -0.1029
  283loPI   C1B 4525  15.155  13.785   9.949  0.3047  0.0340 -0.1484
  283loPI   C2B 4526  15.206  13.751   9.573 -0.2113  0.0303 -0.1001
  283loPI   C3B 4527  15.263  13.707   9.084  0.0663  0.2651 -0.2235
  283loPI   C4B 4528  15.266  13.640   8.601  0.2398 -0.0931 -0.0144
  284loPI    C1 4529   6.067   2.511  10.698  0.2052  0.2775  0.1678
  284loPI    C2 4530   6.152   2.181  10.907 -0.0711  0.1126  0.0263
  284loPI    C3 4531   5.930   2.470  11.072  0.1684  0.2292  0.1492
  284loPI   PO4 4532   6.138   2.399  10.470  0.2010 -0.0644  0.2138
  284loPI   GL1 4533   6.210   2.603  10.099 -0.2318 -0.1418 -0.3176
  284loPI   GL2 4534   6.104   2.282   9.962 -0.0333  0.0940 -0.0944
  284loPI   C1A 4535   6.512   2.657   9.849  0.0527 -0.0149 -0.1633
  284loPI   C2A 4536   6.567   2.602   9.385 -0.1245  0.0443 -0.0044
  284loPI   C3A 4537   6.582   2.483   8.926 -0.2832  0.2120 -0.2780
  284loPI   C4A 4538   6.575   2.539   8.556 -0.3172  0.0623  0.3034
  284loPI   C5A 4539   6.534   2.472   8.113  0.2034 -0.1865 -0.1666
  284loPI   C6A 4540   6.295   2.237   7.808  0.2200  0.0779  0.2709
  284loPI   C1B 4541   6.052   2.321   9.548  0.3223 -0.0790  0.1599
  284loPI   C2B 4542   6.048   2.350   9.123 -0.0147  0.0696 -0.1100
  284loPI   C3B 4543   6.183   2.276   8.745 -0.1216 -0.2114 -0.1242
  284loPI   C4B 4544   6.049   2.260   8.315 -0.3525  0.1983 -0.2656
  285loPI    C1 4545  17.157   2.390  10.408  0.1523 -0.0674  0.1258
  285loPI    C2 4546  17.233   1.998  10.408  0.1362 -0.0708  0.2285
  285loPI    C3 4547  17.383   2.230  10.697  0.0462 -0.0209  0.2355
  285loPI   PO4 4548  17.191   2.443  10.129 -0.0565 -0.0776 -0.1520
  285loPI   GL1 4549  16.964   2.426   9.738 -0.4217  0.1147  0.3232
  285loPI   GL2 4550  16.772   2.230   9.907 -0.1392 -0.1203 -0.2104
  285loPI   C1A 4551  16.841   2.304   9.285 -0.0123  0.0191 -0.1636
  285loPI   C2A 4552  16.864   2.307   8.878  0.2879  0.1285 -0.2592
  285loPI   C3A 4553  16.827   2.355   8.414 -0.2694 -0.2329  0.0904
  285loPI   C4A 4554  16.965   2.257   8.015  0.0939 -0.1676 -0.1359
  285loPI   C5A 4555  17.235   2.182   7.773 -0.1145 -0.2236 -0.2793
  285loPI   C6A 4556  17.762   2.186   7.745  0.2826 -0.1172  0.0132
  285loPI   C1B 4557  16.799   1.904   9.595 -0.3251  0.2406  0.0653
  285loPI   C2B 4558  16.860   1.827   9.155 -0.0571 -0.2505 -0.2953
  285loPI   C3B 4559  16.855   1.799   8.733 -0.1107 -0.0362 -0.1885
  285loPI   C4B 4560  16.837   1.868   8.274  0.0449 -0.1190 -0.2118
  286loPI    C1 4561   2.829  15.237  10.986 -0.2862 -0.0370 -0.1517
  286loPI    C2 4562   2.696  15.442  11.303 -0.0015 -0.0653 -0.0106
  286loPI    C3 4563   2.819  15.064  11.347  0.1757 -0.0222 -0.1260
  286loPI   PO4 4564   2.742  15.347  10.814 -0.1058 -0.1432 -0.0279
  286loPI   GL1 4565   2.532  15.287  10.471  0.0247 -0.3296  0.2434
  286loPI   GL2 4566   2.289  15.577  10.483 -0.0556  0.1138 -0.1621
  286loPI   C1A 4567   2.649  15.399  10.047  0.1487 -0.2203  0.2623
  286loPI   C2A 4568   2.732  15.334   9.600  0.4369 -0.1220  0.1428
  286loPI   C3A 4569   2.811  15.387   9.225  0.1078  0.1653 -0.1815
  286loPI   C4A 4570   2.752  15.347   8.769 -0.0475 -0.0323  0.3501
  286loPI   C5A 4571   2.874  15.273   8.355  0.1665 -0.1261 -0.0458
  286loPI   C6A 4572   3.001  14.859   8.116 -0.0335  0.1526 -0.2369
  286loPI   C1B 4573   2.322  15.781  10.153  0.0781 -0.1142 -0.1597
  286loPI   C2B 4574   2.263  15.675   9.671 -0.0206 -0.0034 -0.0581
  286loPI   C3B 4575   2.262  15.619   9.285 -0.1603 -0.2865  0.2144
  286loPI   C4B 4576   2.377  15.644   8.902  0.1352  0.1111 -0.0972
  287loPI    C1 4577   2.401   5.868   9.724 -0.1367 -0.1407 -0.2250
  287loPI    C2 4578   2.475   5.738  10.095  0.1077  0.2597 -0.1265
  287loPI    C3 4579   2.648   5.559   9.782  0.0668  0.0539 -0.0335
  287loPI   PO4 4580   2.363   6.133   9.784  0.0475 -0.0675 -0.3759
  287loPI   GL1 4581   2.439   6.270   9.418  0.2481 -0.0382  0.0426
  287loPI   GL2 4582   2.777   6.118   9.471  0.0431 -0.0135  0.3284
  287loPI   C1A 4583   2.456   6.444   9.139 -0.2159 -0.1498 -0.1370
  287loPI   C2A 4584   2.501   6.420   8.658 -0.3910  0.1662 -0.0796
  287loPI   C3A 4585   2.533   6.156   8.211  0.1401  0.0075  0.1512
  287loPI   C4A 4586   2.709   6.198   7.805  0.1362 -0.0051  0.0065
  287loPI   C5A 4587   2.486   6.364   7.463 -0.0580  0.1011 -0.0093
  287loPI   C6A 4588   2.059   6.358   7.390  0.2554 -0.0663 -0.2074
  287loPI   C1B 4589   2.798   6.033   9.034 -0.2357 -0.0700  0.1446
  287loPI   C2B 4590   2.869   5.971   8.543 -0.1430 -0.2784 -0.2615
  287loPI   C3B 4591   3.008   5.923   8.161  0.0516  0.0227 -0.2557
  287loPI   C4B 4592   3.210   6.102   7.761  0.2010  0.1362  0.0946
  288loPI    C1 4593  10.458  14.277  10.902 -0.0621 -0.0014 -0.1768
  288loPI    C2 4594  10.720  14.151  11.176 -0.1900  0.0176 -0.0448
  288loPI    C3 4595  10.763  14.512  11.010 -0.0219 -0.0577 -0.1678
  288loPI   PO4 4596  10.442  14.078  10.714  0.0383  0.0467  0.4107
  288loPI   GL1 4597  10.764  13.947  10.311 -0.0857 -0.2811  0.1262
  288loPI   GL2 4598  10.689  13.580  10.359 -0.0475 -0.3794  0.2193
  288loPI   C1A 4599  10.813  13.891   9.925 -0.3019  0.0490  0.0062
  288loPI   C2A 4600  10.837  13.963   9.495  0.3207 -0.0442 -0.1243
  288loPI   C3A 4601  10.684  13.945   9.113  0.0526 -0.1637 -0.0485
  288loPI   C4A 4602  10.716  13.980   8.670  0.0660  0.3526  0.0023
  288loPI   C5A 4603  10.676  14.354   8.388  0.3411 -0.2119  0.0074
  288loPI   C6A 4604  10.897  14.492   8.108 -0.2414 -0.0129  0.0569
  288loPI   C1B 4605  10.665  13.418   9.989 -0.4546 -0.3516  0.2144
  288loPI   C2B 4606  10.768  13.479   9.641 -0.2304 -0.1642  0.3488
  288loPI   C3B 4607  10.684  13.403   9.175  0.0652  0.1520  0.0087
  288loPI   C4B 4608  10.695  13.552   8.875 -0.2697  0.3751 -0.2899
  289loPI    C1 4609  15.033  14.669  11.053  0.1042 -0.0616  0.0588
  289loPI    C2 4610  14.766  14.936  11.183  0.0132  0.0691 -0.3794
  289loPI    C3 4611  15.157  15.000  11.240 -0.0334 -0.0209  0.0785
  289loPI   PO4 4612  14.938  14.561  10.835  0.1186 -0.1768  0.0438
  289loPI   GL1 4613  14.928  14.604  10.442 -0.1144 -0.1133  0.1114
  289loPI   GL2 4614  14.868  14.879  10.287 -0.0448 -0.0386  0.1200
  289loPI   C1A 4615  15.172  14.310  10.059 -0.0340  0.1738 -0.2315
  289loPI   C2A 4616  15.246  14.234   9.654 -0.2346  0.0307 -0.0101
  289loPI   C3A 4617  15.257  14.221   9.174 -0.0434 -0.0359  0.1154
  289loPI   C4A 4618  15.325  14.229   8.749 -0.4221 -0.3159 -0.0141
  289loPI   C5A 4619  15.195  14.262   8.252 -0.0015 -0.2009 -0.0107
  289loPI   C6A 4620  15.487  13.909   8.048  0.1767 -0.3590 -0.3737
  289loPI   C1B 4621  14.804  14.969   9.874  0.1285  0.2033  0.0137
  289loPI   C2B 4622  14.845  15.007   9.415  0.2884 -0.1374  0.4328
  289loPI   C3B 4623  14.756  15.139   8.972  0.2522  0.0323 -0.2741
  289loPI   C4B 4624  14.851  15.096   8.631  0.0479 -0.0094 -0.0655
  290loPI    C1 4625  18.292   8.500  10.247 -0.0685 -0.3774  0.0969
  290loPI    C2 4626  18.375   8.835  10.450  0.1251 -0.1520 -0.3392
  290loPI    C3 4627  18.151   8.549  10.618  0.3232 -0.0002  0.2046
  290loPI   PO4 4628  18.344   8.553   9.973  0.1309 -0.0843  0.0703
  290loPI   GL1 4629  18.388   8.458   9.604 -0.0165  0.0722 -0.3413
  290loPI   GL2 4630  18.442   8.199   9.588 -0.0563 -0.1938  0.0473
  290loPI   C1A 4631  18.329   8.607   9.241 -0.4082  0.1220 -0.0812
  290loPI   C2A 4632  18.304   8.601   8.793  0.0299  0.0666 -0.1267
  290loPI   C3A 4633  18.196   8.698   8.322  0.0684 -0.0449  0.2250
  290loPI   C4A 4634  18.301   8.791   7.907 -0.2685  0.1376  0.2824
  290loPI   C5A 4635  18.506   8.789   7.561 -0.0193  0.1032  0.2363
  290loPI   C6A 4636  18.488   8.818   7.226  0.1130  0.1766 -0.3919
  290loPI   C1B 4637  18.423   8.128   9.184  0.2385  0.0987  0.0986
  290loPI   C2B 4638  18.325   8.123   8.798 -0.0394 -0.0574 -0.0511
  290loPI   C3B 4639  18.279   8.187   8.355  0.1784 -0.2187  0.3008
  290loPI   C4B 4640  18.280   8.266   7.916  0.0668 -0.2509 -0.1671
  291loPI    C1 4641   4.333  17.186  10.830 -0.0722  0.0610  0.2358
  291loPI    C2 4642   4.501  17.078  11.176  0.0981 -0.1562  0.0879
  291loPI    C3 4643   4.125  17.213  11.171  0.1666  0.0568  0.3842
  291loPI   PO4 4644   4.297  17.016  10.685  0.0441 -0.3888 -0.1438
  291loPI   GL1 4645   4.389  17.124  10.306  0.1036 -0.0474  0.0430
  291loPI   GL2 4646   4.571  17.262  10.252 -0.0801  0.2618 -0.2450
  291loPI   C1A 4647   4.524  17.007   9.833 -0.0893  0.0084  0.0361
  291loPI   C2A 4648   4.569  16.882   9.349 -0.0307 -0.0432  0.0358
  291loPI   C3A 4649   4.604  16.922   8.904 -0.1472 -0.1398  0.1323
  291loPI   C4A 4650   4.547  16.868   8.446  0.0216  0.1536 -0.0849
  291loPI   C5A 4651   4.391  16.991   8.080 -0.0973  0.0984 -0.0701
  291loPI   C6A 4652   3.984  16.840   7.750 -0.0581 -0.0616 -0.4229
  291loPI   C1B 4653   4.554  17.469   9.867 -0.2762  0.0548 -0.1406
  291loPI   C2B 4654   4.647  17.424   9.472  0.0166 -0.2542 -0.0262
  291loPI   C3B 4655   4.601  17.389   9.065  0.2562 -0.1801  0.1952
  291loPI   C4B 4656   4.590  17.411   8.623 -0.1245  0.2542 -0.2266
  292loPI    C1 4657   2.324   3.257  10.096 -0.0650  0.0441  0.3030
  292loPI    C2 4658   1.947   3.305  10.221 -0.0768 -0.0063  0.2873
  292loPI    C3 4659   2.241   3.517  10.388 -0.1493  0.2395  0.1080
  292loPI   PO4 4660   2.308   3.270   9.835  0.3104  0.2682  0.2979
  292loPI   GL1 4661   2.442   3.025   9.588 -0.2148 -0.1510 -0.0080
  292loPI   GL2 4662   2.198   3.220   9.350 -0.0568  0.1278  0.0317
  292loPI   C1A 4663   2.834   3.300   9.394  0.0491 -0.3554  0.2112
  292loPI   C2A 4664   2.986   3.291   8.914  0.2202 -0.1800  0.0869
  292loPI   C3A 4665   2.915   3.278   8.464  0.1747 -0.0961  0.1599
  292loPI   C4A 4666   2.844   3.171   8.008 -0.1212  0.1002  0.1405
  292loPI   C5A 4667   3.099   3.051   7.801  0.1418  0.0840 -0.3162
  292loPI   C6A 4668   3.661   2.984   7.703 -0.1940 -0.0849 -0.0062
  292loPI   C1B 4669   2.450   3.092   9.022  0.0291 -0.1340  0.1832
  292loPI   C2B 4670   2.481   3.087   8.667  0.1900  0.0097 -0.0109
  292loPI   C3B 4671   2.379   3.021   8.173 -0.1160 -0.0399 -0.1227
  292loPI   C4B 4672   2.361   3.075   7.769 -0.2962  0.2930  0.1809
  293loPI    C1 4673  16.375  15.464  10.964 -0.0669 -0.0328 -0.0891
  293loPI    C2 4674  16.114  15.194  11.103 -0.1250 -0.0073 -0.1483
  293loPI    C3 4675  16.336  15.407  11.358 -0.0470 -0.1425 -0.1028
  293loPI   PO4 4676  16.422  15.360  10.682  0.0696 -0.0884 -0.2453
  293loPI   GL1 4677  16.175  15.276  10.346  0.2555  0.1216 -0.1652
  293loPI   GL2 4678  16.390  15.052  10.232  0.0937 -0.2494  0.1521
  293loPI   C1A 4679  16.102  15.364   9.896  0.0386  0.0989 -0.0015
  293loPI   C2A 4680  16.089  15.293   9.438  0.0503 -0.1406 -0.1561
  293loPI   C3A 4681  16.141  15.171   8.892 -0.2744  0.0018  0.0487
  293loPI   C4A 4682  16.107  15.292   8.497  0.0097  0.0261 -0.3886
  293loPI   C5A 4683  16.208  15.197   8.000  0.0549  0.3144  0.0334
  293loPI   C6A 4684  15.939  15.219   7.680 -0.0937  0.3113  0.1876
  293loPI   C1B 4685  16.591  14.976   9.926  0.0796  0.0713 -0.1366
  293loPI   C2B 4686  16.657  14.936   9.538  0.2579  0.0034 -0.0045
  293loPI   C3B 4687  16.597  14.989   9.098 -0.2264 -0.2089 -0.3550
  293loPI   C4B 4688  16.562  15.075   8.620 -0.2180 -0.2348 -0.1855
  294loPI    C1 4689   3.167  12.769  11.388 -0.0503  0.1493  0.1275
  294loPI    C2 4690   2.807  12.932  11.447 -0.2111 -0.1137 -0.1028
  294loPI    C3 4691   2.900  12.584  11.621  0.0038  0.0462  0.1083
  294loPI   PO4 4692   3.158  12.775  11.091 -0.2163 -0.1286 -0.1822
  294loPI   GL1 4693   3.423  12.826  10.747  0.2220  0.0248  0.0184
  294loPI   GL2 4694   3.497  13.071  10.668 -0.3974 -0.3819 -0.4909
  294loPI   C1A 4695   3.377  12.740  10.297 -0.1339  0.2052 -0.1941
  294loPI   C2A 4696   3.558  12.618   9.985  0.0607 -0.0222 -0.2365
  294loPI   C3A 4697   3.536  12.678   9.572  0.1209  0.0261 -0.0376
  294loPI   C4A 4698   3.425  12.686   9.161  0.0704 -0.2922 -0.2055
  294loPI   C5A 4699   3.518  12.645   8.730  0.4177 -0.3969 -0.0363
  294loPI   C6A 4700   3.558  12.574   8.319 -0.0312 -0.0731 -0.3097
  294loPI   C1B 4701   3.435  13.199  10.272  0.0635 -0.0636 -0.0975
  294loPI   C2B 4702   3.446  13.109   9.907 -0.1254 -0.0795 -0.0666
  294loPI   C3B 4703   3.498  13.255   9.460  0.0146  0.1033  0.2544
  294loPI   C4B 4704   3.564  13.209   9.076 -0.1704 -0.0816  0.1269
  295loPI    C1 4705   9.171   6.775  11.001 -0.3422 -0.2354  0.0681
  295loPI    C2 4706   8.994   7.133  10.984  0.0448 -0.0431 -0.0431
  295loPI    C3 4707   9.131   6.994  11.333 -0.1265 -0.0964  0.0044
  295loPI   PO4 4708   9.069   6.664  10.702 -0.0536 -0.0769 -0.4382
  295loPI   GL1 4709   9.043   6.637  10.251 -0.1216  0.1090 -0.0396
  295loPI   GL2 4710   9.025   6.977  10.125 -0.0516  0.1190  0.1824
  295loPI   C1A 4711   8.953   6.491   9.812 -0.2592  0.0217 -0.0148
  295loPI   C2A 4712   9.029   6.446   9.394  0.0682 -0.1340  0.0528
  295loPI   C3A 4713   9.056   6.463   8.915  0.2086  0.1282 -0.3029
  295loPI   C4A 4714   9.074   6.408   8.522  0.0762  0.1334  0.0144
  295loPI   C5A 4715   9.055   6.359   8.061 -0.1192 -0.1949 -0.1537
  295loPI   C6A 4716   8.837   6.289   7.566  0.0154 -0.2671 -0.2894
  295loPI   C1B 4717   9.034   7.026   9.656  0.1745 -0.0696 -0.0812
  295loPI   C2B 4718   8.975   6.954   9.243 -0.1301  0.1982  0.3305
  295loPI   C3B 4719   9.018   6.998   8.801  0.2463  0.0541  0.0024
  295loPI   C4B 4720   9.085   6.932   8.408 -0.0305 -0.2690  0.0477
  296loPI    C1 4721   7.198  17.489  11.033 -0.1021 -0.3199 -0.0835
  296loPI    C2 4722   6.822  17.526  11.164 -0.0836 -0.3294 -0.0272
  296loPI    C3 4723   7.116  17.439  11.421  0.0047 -0.0232 -0.0195
  296loPI   PO4 4724   7.246  17.669  10.813  0.2539 -0.1252  0.0695
  296loPI   GL1 4725   7.308  17.661  10.382  0.1544 -0.0103 -0.2596
  296loPI   GL2 4726   7.045  17.534  10.265 -0.2009 -0.3776  0.2116
  296loPI   C1A 4727   7.449  17.790   9.928  0.2061  0.2005  0.0958
  296loPI   C2A 4728   7.372  17.694   9.544 -0.1950  0.0137 -0.2071
  296loPI   C3A 4729   7.288  17.775   9.157 -0.1045  0.0430 -0.3027
  296loPI   C4A 4730   7.250  17.689   8.749 -0.1287 -0.2542  0.3472
  296loPI   C5A 4731   7.412  17.768   8.343 -0.0137 -0.0483  0.0332
  296loPI   C6A 4732   7.584  18.030   8.101 -0.2499 -0.1405  0.3350
  296loPI   C1B 4733   6.997  17.508   9.807 -0.1583  0.1969  0.0080
  296loPI   C2B 4734   6.816  17.571   9.391 -0.0868  0.0847  0.1847
  296loPI   C3B 4735   6.853  17.554   8.996  0.1110  0.0964  0.0875
  296loPI   C4B 4736   6.810  17.520   8.515  0.4017  0.0380  0.0468
  297loPI    C1 4737  14.909  18.011  10.844 -0.0694  0.0051  0.0700
  297loPI    C2 4738  14.669  18.120  11.144 -0.1404 -0.0783  0.0438
  297loPI    C3 4739  15.066  18.125  11.194 -0.1493 -0.0036  0.1089
  297loPI   PO4 4740  14.677  18.109  10.590  0.0798 -0.1715 -0.1338
  297loPI   GL1 4741  14.528  18.169  10.123  0.2112 -0.1090  0.0042
  297loPI   GL2 4742  14.668  17.890  10.051 -0.1528  0.0463  0.0942
  297loPI   C1A 4743  14.396  18.044   9.691  0.0504  0.1036  0.3412
  297loPI   C2A 4744  14.480  17.905   9.282  0.2061 -0.2462 -0.2081
  297loPI   C3A 4745  14.566  17.993   8.929  0.1340 -0.1359 -0.0856
  297loPI   C4A 4746  14.515  18.056   8.530  0.4712 -0.0169 -0.3297
  297loPI   C5A 4747  14.482  17.840   8.115 -0.0783  0.0785  0.0341
  297loPI   C6A 4748  14.327  17.748   7.787  0.1565 -0.1781 -0.1443
  297loPI   C1B 4749  14.901  17.665   9.691 -0.0600  0.1486 -0.0400
  297loPI   C2B 4750  14.967  17.638   9.264  0.1710 -0.0218 -0.2256
  297loPI   C3B 4751  14.933  17.758   8.774 -0.1040 -0.2994 -0.2749
  297loPI   C4B 4752  14.969  17.773   8.366  0.3865  0.1706 -0.0584
  298loPI    C1 4753   9.432  18.396  11.003  0.2266 -0.0987 -0.3673
  298loPI    C2 4754   9.098  18.221  11.136  0.3407 -0.2545 -0.2833
  298loPI    C3 4755   9.445  18.158  11.324  0.3299  0.3199 -0.0523
  298loPI   PO4 4756   9.429  18.358  10.688 -0.0131  0.3351 -0.2159
  298loPI   GL1 4757   9.701  18.280  10.401 -0.0874 -0.0962 -0.2749
  298loPI   GL2 4758   9.482  17.964  10.373  0.0423 -0.1768  0.0395
  298loPI   C1A 4759   9.629  18.417  10.036  0.0552  0.1452 -0.1894
  298loPI   C2A 4760   9.655  18.424   9.639 -0.0321 -0.0296 -0.3853
  298loPI   C3A 4761   9.514  18.405   9.296  0.2131 -0.0522  0.0838
  298loPI   C4A 4762   9.620  18.434   8.960  0.0241 -0.0301 -0.2139
  298loPI   C5A 4763   9.526  18.451   8.452 -0.1356  0.1876  0.0622
  298loPI   C6A 4764   9.406  18.621   8.009 -0.1526 -0.1818 -0.2065
  298loPI   C1B 4765   9.676  17.925  10.003 -0.0037 -0.1247 -0.5437
  298loPI   C2B 4766   9.587  17.939   9.528  0.0686  0.0227 -0.0517
  298loPI   C3B 4767   9.598  17.925   9.038  0.0542  0.0985  0.0378
  298loPI   C4B 4768   9.560  17.960   8.538 -0.0034 -0.0725 -0.2095
  299loPI    C1 4769  10.047   3.573  10.960 -0.0875  0.4478 -0.0212
  299loPI    C2 4770   9.738   3.428  11.168  0.0043  0.1871 -0.0629
  299loPI    C3 4771  10.002   3.671  11.345  0.1225 -0.0901  0.1489
  299loPI   PO4 4772   9.989   3.679  10.733  0.1986 -0.0590 -0.1864
  299loPI   GL1 4773  10.005   3.640  10.284 -0.2326  0.2256  0.2339
  299loPI   GL2 4774   9.678   3.660  10.277 -0.3668 -0.2607  0.1394
  299loPI   C1A 4775  10.085   3.486   9.861 -0.0895 -0.0775  0.1869
  299loPI   C2A 4776  10.175   3.509   9.512  0.1191  0.0398 -0.1449
  299loPI   C3A 4777  10.122   3.457   9.148 -0.0603  0.1191  0.0055
  299loPI   C4A 4778  10.226   3.436   8.675  0.2837 -0.1642 -0.0579
  299loPI   C5A 4779  10.121   3.434   8.333 -0.1840 -0.3869 -0.2176
  299loPI   C6A 4780   9.679   3.256   8.265 -0.1796 -0.0354 -0.2451
  299loPI   C1B 4781   9.653   3.803   9.863  0.1373  0.2023 -0.0549
  299loPI   C2B 4782   9.715   3.731   9.422 -0.0495 -0.1228 -0.0951
  299loPI   C3B 4783   9.669   3.742   8.987  0.2488  0.0404  0.2396
  299loPI   C4B 4784   9.684   3.790   8.518  0.2991 -0.0351  0.1930
  300loPI    C1 4785  11.311  11.063  10.801  0.1446  0.1153  0.1194
  300loPI    C2 4786  11.656  11.264  10.824  0.1824  0.0858 -0.1592
  300loPI    C3 4787  11.504  11.090  11.150  0.5112 -0.0344 -0.0661
  300loPI   PO4 4788  11.282  11.114  10.509 -0.0076  0.4019 -0.1130
  300loPI   GL1 4789  11.574  11.373  10.353  0.2387  0.4282  0.0923
  300loPI   GL2 4790  11.498  11.291  10.038  0.0194  0.2833 -0.0478
  300loPI   C1A 4791  11.928  11.509   9.957 -0.1461  0.2249 -0.3734
  300loPI   C2A 4792  11.947  11.451   9.434 -0.3303 -0.0801  0.0595
  300loPI   C3A 4793  11.951  11.578   9.014 -0.1775  0.1432 -0.1850
  300loPI   C4A 4794  11.919  11.611   8.563  0.0042 -0.1945 -0.1052
  300loPI   C5A 4795  11.943  11.991   8.376  0.1723  0.3604 -0.0542
  300loPI   C6A 4796  11.833  12.368   8.375 -0.0345  0.0436  0.4185
  300loPI   C1B 4797  11.516  11.208   9.657  0.2034  0.1705  0.0713
  300loPI   C2B 4798  11.450  11.198   9.175  0.0144  0.3257  0.1838
  300loPI   C3B 4799  11.499  11.307   8.777 -0.0046 -0.3051 -0.1540
  300loPI   C4B 4800  11.531  11.441   8.317 -0.1532  0.0700 -0.0964
  301loPI    C1 4801   8.507  12.024  11.082 -0.1786 -0.2798 -0.0447
  301loPI    C2 4802   8.638  11.672  11.219  0.0352 -0.1206  0.1678
  301loPI    C3 4803   8.552  11.967  11.475 -0.1148 -0.0075 -0.0105
  301loPI   PO4 4804   8.504  11.957  10.817  0.0713  0.0673 -0.2053
  301loPI   GL1 4805   8.647  12.035  10.423  0.0571  0.0112  0.2846
  301loPI   GL2 4806   8.261  12.108  10.349 -0.1077  0.0585 -0.1021
  301loPI   C1A 4807   8.981  12.027  10.127 -0.1405  0.1496  0.3548
  301loPI   C2A 4808   8.881  11.907   9.675 -0.1886 -0.0184  0.5110
  301loPI   C3A 4809   8.877  11.903   9.260 -0.0573  0.0381 -0.4587
  301loPI   C4A 4810   8.781  11.969   8.794  0.0083 -0.1237  0.1486
  301loPI   C5A 4811   8.781  11.984   8.272  0.1225  0.2823  0.0830
  301loPI   C6A 4812   8.699  12.054   7.815 -0.0588 -0.2123 -0.0405
  301loPI   C1B 4813   8.534  12.275   9.913 -0.0664  0.0737  0.0957
  301loPI   C2B 4814   8.471  12.290   9.531 -0.0286  0.1500 -0.1260
  301loPI   C3B 4815   8.436  12.266   9.085 -0.1705  0.2502  0.1318
  301loPI   C4B 4816   8.345  12.275   8.595 -0.1426  0.1478  0.0411
  302loPI    C1 4817   0.984  15.156  11.112  0.0066  0.0489  0.1948
  302loPI    C2 4818   0.630  15.020  10.985  0.0060  0.1998  0.0316
  302loPI    C3 4819   0.861  14.790  11.217 -0.1185  0.0311 -0.0096
  302loPI   PO4 4820   1.076  15.276  10.854 -0.0228  0.4312  0.1870
  302loPI   GL1 4821   1.275  15.204  10.455 -0.1262 -0.1967 -0.0909
  302loPI   GL2 4822   1.452  15.076  10.580  0.1491  0.0612  0.1711
  302loPI   C1A 4823   1.333  15.308  10.030  0.1665  0.0986  0.2500
  302loPI   C2A 4824   1.371  15.286   9.580  0.0069 -0.1654  0.0479
  302loPI   C3A 4825   1.350  15.204   9.104 -0.0461  0.0205 -0.4047
  302loPI   C4A 4826   1.359  15.200   8.763 -0.1169 -0.0821  0.0951
  302loPI   C5A 4827   1.149  15.097   8.498 -0.0265 -0.0823  0.0519
  302loPI   C6A 4828   0.896  14.657   8.390  0.1939  0.2286  0.2241
  302loPI   C1B 4829   1.685  14.951  10.245  0.3896  0.0624 -0.2553
  302loPI   C2B 4830   1.760  14.897   9.727  0.1302  0.1710 -0.0676
  302loPI   C3B 4831   1.751  14.940   9.272  0.0804 -0.3657 -0.0898
  302loPI   C4B 4832   1.803  14.934   8.847 -0.2377  0.1317  0.1080
  303loPI    C1 4833   1.615   0.351  10.658 -0.2317 -0.3927  0.0800
  303loPI    C2 4834   1.975   0.180  10.615 -0.0302  0.0607 -0.1069
  303loPI    C3 4835   1.857   0.312  10.974  0.0597  0.0585 -0.0763
  303loPI   PO4 4836   1.444   0.187  10.556  0.1911  0.1023 -0.0916
  303loPI   GL1 4837   1.461   0.021  10.207 -0.0907 -0.0717 -0.2124
  303loPI   GL2 4838   1.761  -0.145  10.247  0.2373  0.0982 -0.0885
  303loPI   C1A 4839   1.471  -0.085   9.778 -0.2534  0.0612 -0.3444
  303loPI   C2A 4840   1.462  -0.065   9.466  0.1053  0.0676  0.0223
  303loPI   C3A 4841   1.461  -0.105   9.117  0.0992 -0.0973 -0.0110
  303loPI   C4A 4842   1.495  -0.187   8.695 -0.0128 -0.4739  0.0223
  303loPI   C5A 4843   1.461  -0.236   8.228  0.0716 -0.1603 -0.0999
  303loPI   C6A 4844   1.692  -0.377   7.913  0.0881  0.0671 -0.0739
  303loPI   C1B 4845   1.929  -0.303   9.860 -0.1403 -0.1702 -0.0166
  303loPI   C2B 4846   1.911  -0.411   9.471 -0.0314  0.2086  0.0189
  303loPI   C3B 4847   1.916  -0.402   8.959 -0.1008  0.0009 -0.0860
  303loPI   C4B 4848   1.883  -0.448   8.573  0.2920  0.0345  0.1052
  304loPI    C1 4849   3.059   9.733  10.910 -0.0162  0.0504  0.0875
  304loPI    C2 4850   3.286  10.055  10.977  0.2355 -0.1214  0.0775
  304loPI    C3 4851   3.044   9.917  11.264 -0.1422  0.2815 -0.0357
  304loPI   PO4 4852   2.941   9.851  10.626  0.3757 -0.4573 -0.1342
  304loPI   GL1 4853   2.731   9.742  10.200 -0.1230 -0.0427  0.0064
  304loPI   GL2 4854   2.470   9.685  10.013  0.2210  0.0518 -0.0977
  304loPI   C1A 4855   2.896   9.853   9.779 -0.2962  0.1987 -0.0716
  304loPI   C2A 4856   2.875   9.958   9.395 -0.0106 -0.1180 -0.0203
  304loPI   C3A 4857   2.914   9.915   8.966 -0.0386  0.1793 -0.2735
  304loPI   C4A 4858   2.993   9.919   8.516  0.0332  0.0095 -0.0531
  304loPI   C5A 4859   3.086   9.962   8.124 -0.2066  0.3310  0.0715
  304loPI   C6A 4860   3.196   9.772   7.833  0.0731 -0.1422 -0.3047
  304loPI   C1B 4861   2.498   9.681   9.590  0.3287  0.0086 -0.0424
  304loPI   C2B 4862   2.475   9.684   9.089 -0.1163  0.3432 -0.0805
  304loPI   C3B 4863   2.559   9.720   8.650 -0.2163  0.0475 -0.0172
  304loPI   C4B 4864   2.551   9.784   8.216  0.0692 -0.0303  0.0299
  305loPI    C1 4865   3.563  14.682  10.915  0.1210 -0.0956 -0.1907
  305loPI    C2 4866   3.838  14.454  11.094  0.1222 -0.0504 -0.1345
  305loPI    C3 4867   3.621  14.711  11.310 -0.3152 -0.4413 -0.0946
  305loPI   PO4 4868   3.487  14.538  10.804  0.1838 -0.1586 -0.1944
  305loPI   GL1 4869   3.372  14.509  10.479  0.1366 -0.2649  0.2076
  305loPI   GL2 4870   3.484  14.283  10.311  0.1342  0.1437 -0.0167
  305loPI   C1A 4871   3.137  14.609  10.140 -0.1546 -0.2463 -0.0992
  305loPI   C2A 4872   3.106  14.630   9.716 -0.1463  0.2224 -0.1907
  305loPI   C3A 4873   3.105  14.537   9.297  0.1061  0.0064 -0.3138
  305loPI   C4A 4874   3.126  14.529   8.813  0.1065 -0.0061  0.1094
  305loPI   C5A 4875   2.955  14.464   8.390  0.3211  0.1125  0.0897
  305loPI   C6A 4876   2.934  14.353   7.954  0.1225  0.0120 -0.5617
  305loPI   C1B 4877   3.520  14.241   9.925  0.1265  0.0089  0.4096
  305loPI   C2B 4878   3.540  14.329   9.449 -0.2247 -0.2049 -0.1736
  305loPI   C3B 4879   3.507  14.340   9.007  0.2405 -0.0704 -0.0172
  305loPI   C4B 4880   3.425  14.253   8.578 -0.2824 -0.0513  0.0787
  306loPI    C1 4881   9.443   7.056  10.712  0.1409  0.0302 -0.2513
  306loPI    C2 4882   9.489   7.427  10.854  0.2060 -0.0015 -0.1894
  306loPI    C3 4883   9.570   7.113  11.087  0.3594 -0.0537 -0.3116
  306loPI   PO4 4884   9.342   7.065  10.471  0.2060 -0.1622  0.0169
  306loPI   GL1 4885   9.534   7.103  10.054  0.0810 -0.0343 -0.0236
  306loPI   GL2 4886   9.901   7.027  10.138  0.0398  0.0989 -0.2135
  306loPI   C1A 4887   9.423   7.247   9.768  0.0955  0.2643  0.0956
  306loPI   C2A 4888   9.432   7.262   9.286 -0.0524  0.2621  0.3688
  306loPI   C3A 4889   9.482   7.181   8.824 -0.0038 -0.1927 -0.0584
  306loPI   C4A 4890   9.567   7.164   8.424 -0.3663  0.0026 -0.1728
  306loPI   C5A 4891   9.395   7.412   8.104  0.2675 -0.2000 -0.1098
  306loPI   C6A 4892   9.342   7.583   7.725  0.1875  0.1646  0.0197
  306loPI   C1B 4893   9.817   6.992   9.708  0.2665 -0.0955 -0.0287
  306loPI   C2B 4894   9.838   6.978   9.274  0.0418 -0.3049 -0.0484
  306loPI   C3B 4895   9.984   6.917   8.793  0.1169  0.0354 -0.0108
  306loPI   C4B 4896   9.927   6.820   8.334  0.3476  0.1016 -0.0159
  307loPI    C1 4897   4.695  13.379  11.184 -0.0930  0.0078  0.2066
  307loPI    C2 4898   4.299  13.421  11.149 -0.0920  0.0584  0.2551
  307loPI    C3 4899   4.543  13.608  10.893 -0.1036 -0.0934  0.1322
  307loPI   PO4 4900   4.761  13.135  11.121  0.0064 -0.1451 -0.0565
  307loPI   GL1 4901   4.691  13.027  10.755 -0.0967 -0.0559  0.0589
  307loPI   GL2 4902   4.508  13.154  10.573  0.1467 -0.1723  0.4512
  307loPI   C1A 4903   4.893  12.874  10.337  0.0489 -0.2542  0.0862
  307loPI   C2A 4904   4.878  12.821   9.917 -0.3487 -0.1241 -0.1816
  307loPI   C3A 4905   4.787  12.955   9.469  0.2775 -0.1699  0.3985
  307loPI   C4A 4906   4.852  12.949   9.011 -0.1953  0.0175 -0.0595
  307loPI   C5A 4907   4.862  12.894   8.639  0.0078 -0.0790 -0.3794
  307loPI   C6A 4908   5.127  12.740   8.273  0.0458 -0.0911 -0.1689
  307loPI   C1B 4909   4.422  13.192  10.093 -0.1778  0.0632 -0.1303
  307loPI   C2B 4910   4.387  13.271   9.622 -0.0065  0.1968 -0.1786
  307loPI   C3B 4911   4.414  13.225   9.250 -0.2400  0.0330  0.1299
  307loPI   C4B 4912   4.396  13.168   8.805  0.1020  0.0481 -0.2390
  308loPI    C1 4913  13.138  15.205  10.862 -0.0861 -0.0538 -0.0602
  308loPI    C2 4914  12.808  15.070  11.042 -0.0891  0.1895  0.1211
  308loPI    C3 4915  13.143  15.126  11.254  0.0352  0.0573 -0.0384
  308loPI   PO4 4916  13.172  15.103  10.623  0.0968 -0.0424  0.3606
  308loPI   GL1 4917  13.299  15.309  10.204  0.1005  0.0776 -0.0553
  308loPI   GL2 4918  12.973  15.175  10.158  0.2321  0.0149 -0.0422
  308loPI   C1A 4919  13.493  15.297   9.840 -0.3353 -0.1462  0.2029
  308loPI   C2A 4920  13.522  15.364   9.418  0.2333  0.3118  0.1729
  308loPI   C3A 4921  13.486  15.412   9.000  0.1202 -0.1395 -0.0701
  308loPI   C4A 4922  13.523  15.378   8.594 -0.1306 -0.3494  0.0092
  308loPI   C5A 4923  13.435  15.300   8.150  0.0717 -0.0915 -0.2247
  308loPI   C6A 4924  13.499  15.377   7.717  0.1572  0.0839 -0.0596
  308loPI   C1B 4925  13.028  15.114   9.742  0.0453 -0.0006 -0.0784
  308loPI   C2B 4926  13.029  15.215   9.264  0.4474  0.1588  0.0382
  308loPI   C3B 4927  13.060  15.278   8.797 -0.2683  0.0732  0.2281
  308loPI   C4B 4928  12.956  15.189   8.356 -0.0842 -0.0231  0.2884
  309loPI    C1 4929   7.599   7.186  10.677 -0.1957  0.0936 -0.0119
  309loPI    C2 4930   7.579   7.451  10.377 -0.0146  0.1022 -0.0171
  309loPI    C3 4931   7.695   7.568  10.742  0.1055  0.0233 -0.0290
  309loPI   PO4 4932   7.652   6.992  10.498  0.1078 -0.0352  0.2616
  309loPI   GL1 4933   7.755   7.037  10.140  0.1440 -0.2564 -0.2329
  309loPI   GL2 4934   7.354   6.981  10.073 -0.0159  0.0354  0.4155
  309loPI   C1A 4935   7.669   7.305   9.697 -0.1638  0.2331 -0.1981
  309loPI   C2A 4936   7.735   7.340   9.294  0.0982  0.5933  0.0083
  309loPI   C3A 4937   7.732   7.287   8.853  0.1392 -0.1876  0.0910
  309loPI   C4A 4938   7.706   7.273   8.352  0.1267 -0.2703  0.3900
  309loPI   C5A 4939   7.730   7.242   7.890  0.2783 -0.2379  0.0341
  309loPI   C6A 4940   7.598   6.907   7.644  0.3071  0.1411  0.1615
  309loPI   C1B 4941   7.252   6.982   9.649  0.0006  0.1755  0.3582
  309loPI   C2B 4942   7.242   6.998   9.263 -0.1843  0.0800  0.1093
  309loPI   C3B 4943   7.252   7.026   8.808 -0.0782  0.1794 -0.0765
  309loPI   C4B 4944   7.250   7.038   8.353 -0.1329 -0.0304  0.1131
  310loPI    C1 4945  10.401  11.030  10.749  0.4390 -0.3357 -0.2910
  310loPI    C2 4946  10.128  10.784  10.908  0.2944 -0.1926 -0.3158
  310loPI    C3 4947  10.426  10.925  11.134  0.0688  0.0397 -0.1568
  310loPI   PO4 4948  10.428  10.892  10.549  0.2572 -0.1888  0.2454
  310loPI   GL1 4949  10.203  10.878  10.140  0.0966 -0.1784  0.1171
  310loPI   GL2 4950  10.437  10.712  10.071  0.0349 -0.0387 -0.0585
  310loPI   C1A 4951  10.167  11.112   9.653  0.2064  0.4287 -0.2735
  310loPI   C2A 4952  10.108  11.071   9.171  0.0569 -0.2156 -0.1622
  310loPI   C3A 4953  10.158  11.059   8.731  0.1090 -0.3665  0.4836
  310loPI   C4A 4954  10.258  11.314   8.295 -0.0432  0.1645  0.0066
  310loPI   C5A 4955  10.592  11.272   8.103  0.0917 -0.2116  0.0749
  310loPI   C6A 4956  10.776  10.811   7.957  0.0410  0.0779 -0.0641
  310loPI   C1B 4957  10.498  10.713   9.624 -0.1527 -0.2450 -0.0482
  310loPI   C2B 4958  10.497  10.807   9.298 -0.2467 -0.5723 -0.1503
  310loPI   C3B 4959  10.569  10.819   8.876 -0.1390  0.0809  0.0607
  310loPI   C4B 4960  10.571  10.849   8.380 -0.1212  0.3158 -0.0576
  311loPI    C1 4961   5.553  13.872  11.018 -0.2584 -0.2431  0.0887
  311loPI    C2 4962   5.467  13.552  11.242 -0.0392 -0.0953  0.3914
  311loPI    C3 4963   5.370  13.918  11.370 -0.0167 -0.0165  0.1879
  311loPI   PO4 4964   5.470  13.707  10.761  0.1823  0.1517  0.2583
  311loPI   GL1 4965   5.540  13.561  10.334  0.3184 -0.1699 -0.0445
  311loPI   GL2 4966   5.737  13.357  10.292 -0.0913  0.2453 -0.1751
  311loPI   C1A 4967   5.343  13.635  10.003  0.2887  0.3312 -0.2358
  311loPI   C2A 4968   5.333  13.636   9.588 -0.0086  0.2488  0.0472
  311loPI   C3A 4969   5.319  13.709   9.122  0.1059  0.0154  0.1081
  311loPI   C4A 4970   5.275  13.663   8.755  0.0095 -0.4592 -0.0098
  311loPI   C5A 4971   5.308  13.893   8.416  0.0177 -0.0714 -0.0685
  311loPI   C6A 4972   4.954  14.145   8.345  0.1381 -0.2497 -0.2783
  311loPI   C1B 4973   5.754  13.395   9.810  0.1635  0.2366  0.1833
  311loPI   C2B 4974   5.821  13.428   9.408  0.0427 -0.1423 -0.1793
  311loPI   C3B 4975   5.695  13.409   8.978 -0.0441 -0.3088  0.2093
  311loPI   C4B 4976   5.679  13.477   8.491 -0.0118 -0.2219 -0.1995
  312loPI    C1 4977  10.119  18.346  10.774  0.2580  0.0531 -0.2201
  312loPI    C2 4978  10.277  18.351  11.142  0.1099 -0.2126 -0.1500
  312loPI    C3 4979   9.884  18.405  11.092  0.1565  0.0122 -0.2871
  312loPI   PO4 4980  10.138  18.168  10.629  0.1341 -0.1537 -0.2096
  312loPI   GL1 4981  10.222  18.036  10.288 -0.0050  0.1755  0.1103
  312loPI   GL2 4982  10.434  17.760  10.336 -0.0060  0.0881 -0.0665
  312loPI   C1A 4983  10.083  18.211   9.929 -0.0094  0.0981 -0.2165
  312loPI   C2A 4984  10.105  18.181   9.412 -0.1877 -0.1717  0.2773
  312loPI   C3A 4985  10.116  18.177   8.909 -0.0098 -0.0930 -0.1091
  312loPI   C4A 4986  10.038  18.197   8.440 -0.0149  0.0387  0.0425
  312loPI   C5A 4987   9.745  18.129   8.083  0.0969  0.1579  0.0849
  312loPI   C6A 4988   9.502  18.126   7.662 -0.1228  0.1997  0.2682
  312loPI   C1B 4989  10.502  17.851   9.771 -0.1373  0.0314  0.1707
  312loPI   C2B 4990  10.526  17.914   9.358 -0.2201 -0.0912  0.1036
  312loPI   C3B 4991  10.536  17.974   8.924  0.1540  0.1360 -0.0960
  312loPI   C4B 4992  10.460  17.947   8.441  0.3825 -0.1875 -0.1109
  313loPI    C1 4993  10.380  11.634  11.078  0.1909  0.1510 -0.0572
  313loPI    C2 4994  10.638  11.358  11.208  0.0767  0.1691  0.2143
  313loPI    C3 4995  10.269  11.374  11.360 -0.0933  0.1327 -0.1829
  313loPI   PO4 4996  10.401  11.539  10.755 -0.2120 -0.1401 -0.0005
  313loPI   GL1 4997  10.228  11.356  10.332 -0.0701  0.1607 -0.1555
  313loPI   GL2 4998   9.833  11.443  10.246  0.1305  0.1569  0.0467
  313loPI   C1A 4999  10.217  11.598   9.988 -0.0916  0.0592  0.2871
  313loPI   C2A 5000  10.152  11.677   9.513  0.3290  0.0891 -0.0295
  313loPI   C3A 5001  10.225  11.622   9.111 -0.0395  0.1410 -0.2021
  313loPI   C4A 5002  10.202  11.624   8.707  0.3332  0.1418  0.0272
  313loPI   C5A 5003  10.149  11.769   8.246 -0.3426  0.0746  0.0431
  313loPI   C6A 5004  10.112  12.109   8.037 -0.0485  0.0258 -0.0299
  313loPI   C1B 5005   9.793  11.399   9.818  0.0832 -0.1118  0.0937
  313loPI   C2B 5006   9.723  11.364   9.390  0.0260 -0.1472  0.1740
  313loPI   C3B 5007   9.730  11.401   8.925 -0.3960  0.0438 -0.0297
  313loPI   C4B 5008   9.767  11.427   8.502 -0.2271  0.0529  0.0917
  314loPI    C1 5009  18.343  10.611  10.724  0.3807  0.0279  0.1114
  314loPI    C2 5010  18.117  10.803  10.992  0.2511 -0.0920  0.0893
  314loPI    C3 5011  18.339  10.490  11.106  0.1234 -0.2014  0.0394
  314loPI   PO4 5012  18.420  10.855  10.516  0.2703  0.2111 -0.2722
  314loPI   GL1 5013  18.309  10.870  10.122 -0.2886  0.3407  0.2814
  314loPI   GL2 5014  17.917  11.136  10.134  0.0023  0.2685  0.1084
  314loPI   C1A 5015  18.174  10.885   9.712 -0.0054  0.0210  0.1044
  314loPI   C2A 5016  18.250  10.857   9.354  0.1529  0.2211  0.2384
  314loPI   C3A 5017  18.197  10.761   8.857  0.3408 -0.0381 -0.0574
  314loPI   C4A 5018  18.193  10.884   8.450  0.5922 -0.0353 -0.2394
  314loPI   C5A 5019  18.203  11.065   8.042 -0.0019 -0.0132 -0.1110
  314loPI   C6A 5020  18.079  10.808   7.686  0.0439 -0.0709  0.0354
  314loPI   C1B 5021  17.741  11.159   9.758 -0.0076 -0.0507  0.2333
  314loPI   C2B 5022  17.731  11.152   9.288 -0.0206  0.2552 -0.3991
  314loPI   C3B 5023  17.783  11.019   8.867 -0.0566  0.0213 -0.0157
  314loPI   C4B 5024  17.773  11.146   8.485  0.0787 -0.1307  0.1233
  315loPI    C1 5025  17.698  13.951  10.859 -0.0092  0.1159 -0.2334
  315loPI    C2 5026  17.364  13.957  10.640 -0.1030 -0.1975 -0.1048
  315loPI    C3 5027  17.364  14.111  11.009 -0.1423 -0.3133 -0.0559
  315loPI   PO4 5028  17.906  13.731  10.733 -0.0326 -0.2813  0.0220
  315loPI   GL1 5029  17.944  13.702  10.318  0.0819 -0.2971  0.0246
  315loPI   GL2 5030  18.341  13.491  10.259 -0.0998  0.4641 -0.0450
  315loPI   C1A 5031  17.852  13.667   9.872 -0.3575  0.1486 -0.0962
  315loPI   C2A 5032  17.838  13.685   9.523 -0.0907 -0.2961 -0.1058
  315loPI   C3A 5033  17.869  13.545   9.136  0.2109  0.2585  0.1492
  315loPI   C4A 5034  17.910  13.647   8.712 -0.2624 -0.1621  0.1323
  315loPI   C5A 5035  17.737  13.775   8.327 -0.4406  0.0039  0.1429
  315loPI   C6A 5036  17.481  14.027   8.205  0.6082  0.1059 -0.0188
  315loPI   C1B 5037  18.346  13.494   9.900 -0.0681  0.4618 -0.3684
  315loPI   C2B 5038  18.263  13.460   9.454  0.2695  0.2405  0.1691
  315loPI   C3B 5039  18.270  13.336   9.055  0.2248  0.1669 -0.2539
  315loPI   C4B 5040  18.316  13.424   8.630  0.0251  0.0678 -0.1483
  316loPI    C1 5041  16.042  15.845  11.175  0.1599  0.0921 -0.0558
  316loPI    C2 5042  15.783  16.148  11.206 -0.0327 -0.0805  0.0508
  316loPI    C3 5043  15.968  16.009  11.532  0.0281 -0.1014  0.0077
  316loPI   PO4 5044  16.002  15.755  10.806  0.0015 -0.0472  0.0108
  316loPI   GL1 5045  16.005  15.745  10.371 -0.0981  0.1734  0.1343
  316loPI   GL2 5046  15.739  15.541  10.182  0.0759 -0.4005  0.0531
  316loPI   C1A 5047  16.179  15.880   9.978 -0.0131  0.2201  0.2768
  316loPI   C2A 5048  16.149  15.770   9.553  0.0124 -0.1200  0.1884
  316loPI   C3A 5049  16.168  15.771   9.194  0.0153  0.1046  0.1317
  316loPI   C4A 5050  16.175  15.840   8.731 -0.0271  0.0357  0.1772
  316loPI   C5A 5051  16.163  15.788   8.307  0.0377  0.0414  0.3927
  316loPI   C6A 5052  15.832  15.611   8.003  0.0810  0.1211  0.0315
  316loPI   C1B 5053  15.650  15.437   9.748 -0.1963  0.0279  0.1714
  316loPI   C2B 5054  15.660  15.597   9.286 -0.1802  0.1469  0.1091
  316loPI   C3B 5055  15.731  15.561   8.873  0.2985 -0.3473  0.1040
  316loPI   C4B 5056  15.615  15.582   8.463  0.0818  0.1595  0.0004
  317loPI    C1 5057   8.263   7.679  11.121  0.0720 -0.2184  0.0310
  317loPI    C2 5058   8.413   8.033  11.231 -0.2381 -0.0038 -0.2163
  317loPI    C3 5059   8.314   7.763  11.509 -0.0464  0.1208 -0.0234
  317loPI   PO4 5060   8.162   7.738  10.843  0.0639 -0.0340  0.0826
  317loPI   GL1 5061   8.073   7.746  10.414 -0.0179 -0.5161  0.0869
  317loPI   GL2 5062   8.037   7.492  10.131  0.2016 -0.1396 -0.0887
  317loPI   C1A 5063   8.160   8.094   9.958  0.1244 -0.1238 -0.0834
  317loPI   C2A 5064   8.140   8.060   9.578  0.1746 -0.0263  0.1828
  317loPI   C3A 5065   8.192   7.978   9.214  0.1853 -0.2116  0.2214
  317loPI   C4A 5066   8.115   8.110   8.823  0.0953 -0.1911 -0.0419
  317loPI   C5A 5067   8.334   8.079   8.431 -0.0622 -0.1807  0.0551
  317loPI   C6A 5068   8.514   7.801   8.231 -0.2087 -0.0381 -0.0165
  317loPI   C1B 5069   8.082   7.575   9.678 -0.1885 -0.0135 -0.1789
  317loPI   C2B 5070   8.178   7.482   9.265  0.0037  0.0648  0.0041
  317loPI   C3B 5071   8.180   7.629   8.873  0.3064  0.1345  0.0107
  317loPI   C4B 5072   8.188   7.522   8.550 -0.5241  0.0942 -0.1727
  318loPI    C1 5073  15.938  14.381  11.119  0.0862  0.0963  0.0806
  318loPI    C2 5074  16.133  14.720  11.202  0.1755 -0.0052  0.2932
  318loPI    C3 5075  15.983  14.498  11.499  0.0195 -0.0952  0.1487
  318loPI   PO4 5076  15.849  14.504  10.764  0.0059  0.0945 -0.1750
  318loPI   GL1 5077  15.833  14.350  10.338  0.0569  0.1157 -0.1626
  318loPI   GL2 5078  15.619  14.427  10.186 -0.0368 -0.1817 -0.1864
  318loPI   C1A 5079  16.105  14.203   9.929 -0.0839  0.1462 -0.1202
  318loPI   C2A 5080  16.094  14.256   9.523 -0.5251  0.2559  0.0229
  318loPI   C3A 5081  16.088  14.214   9.018  0.1929  0.1746 -0.1333
  318loPI   C4A 5082  16.145  14.271   8.597 -0.1071 -0.0243 -0.0660
  318loPI   C5A 5083  16.226  14.231   8.190  0.1750  0.1010  0.2258
  318loPI   C6A 5084  16.487  14.274   7.828  0.0488 -0.0164 -0.1446
  318loPI   C1B 5085  15.783  14.533   9.745 -0.2811  0.1253 -0.0965
  318loPI   C2B 5086  15.719  14.446   9.280  0.0864 -0.2622 -0.0630
  318loPI   C3B 5087  15.706  14.535   8.854 -0.3399  0.2982 -0.0906
  318loPI   C4B 5088  15.741  14.387   8.326  0.0701  0.2617 -0.1042
  319loPI    C1 5089  13.607   8.270  10.694  0.1353  0.0419 -0.0528
  319loPI    C2 5090  13.824   7.946  10.785  0.1479  0.0860  0.0755
  319loPI    C3 5091  13.691   8.187  11.076  0.0589  0.1450 -0.0132
  319loPI   PO4 5092  13.651   8.365  10.459 -0.0132 -0.2157  0.0994
  319loPI   GL1 5093  13.713   8.376  10.077  0.0277  0.0066  0.0449
  319loPI   GL2 5094  13.605   8.125   9.856  0.4084  0.0223 -0.1763
  319loPI   C1A 5095  13.697   8.735   9.659 -0.1971  0.0899 -0.1038
  319loPI   C2A 5096  13.693   8.794   9.213  0.2579  0.2482  0.2017
  319loPI   C3A 5097  13.669   8.714   8.772 -0.0680 -0.2009 -0.2241
  319loPI   C4A 5098  13.575   8.786   8.392 -0.1049  0.0291 -0.0468
  319loPI   C5A 5099  13.613   8.588   7.952  0.2449  0.1169 -0.1776
  319loPI   C6A 5100  13.681   8.518   7.524 -0.0354  0.2254  0.1127
  319loPI   C1B 5101  13.744   8.226   9.448 -0.0634 -0.0394  0.0255
  319loPI   C2B 5102  13.637   8.303   8.989  0.2544  0.0343  0.2987
  319loPI   C3B 5103  13.682   8.237   8.583 -0.2193  0.1386  0.0383
  319loPI   C4B 5104  13.493   8.172   8.196 -0.2605 -0.2245  0.1323
  320loPI    C1 5105  11.875   6.935  11.031  0.1295 -0.2943 -0.1244
  320loPI    C2 5106  12.115   7.227  11.163 -0.0060 -0.1634 -0.1653
  320loPI    C3 5107  12.035   6.913  11.397  0.0807 -0.1313 -0.0923
  320loPI   PO4 5108  11.972   6.972  10.628  0.0611 -0.2780  0.4223
  320loPI   GL1 5109  11.967   6.892  10.254 -0.1666  0.1034 -0.1379
  320loPI   GL2 5110  11.708   6.909   9.991  0.1493 -0.1694 -0.2778
  320loPI   C1A 5111  12.102   7.028   9.739  0.2178 -0.1017  0.0464
  320loPI   C2A 5112  12.149   7.138   9.315 -0.0081 -0.1065  0.0421
  320loPI   C3A 5113  12.186   7.018   8.815 -0.1885 -0.1974  0.0787
  320loPI   C4A 5114  12.112   7.074   8.348 -0.2259 -0.0044  0.0513
  320loPI   C5A 5115  12.208   7.143   7.908 -0.0623  0.2445 -0.2780
  320loPI   C6A 5116  12.403   7.099   7.579  0.0698  0.0916  0.1735
  320loPI   C1B 5117  11.662   6.848   9.608 -0.2283 -0.0608  0.0667
  320loPI   C2B 5118  11.821   6.773   9.139 -0.0168 -0.0814  0.2610
  320loPI   C3B 5119  11.711   6.835   8.720  0.0121 -0.6252  0.5170
  320loPI   C4B 5120  11.629   6.865   8.331  0.1284 -0.2809  0.1262
  321loPI    C1 5121   1.056   3.673   9.688 -0.0356 -0.0681  0.1156
  321loPI    C2 5122   1.225   4.003   9.538 -0.0369 -0.1124  0.0156
  321loPI    C3 5123   1.066   4.008   9.905  0.2153 -0.0809  0.1259
  321loPI   PO4 5124   1.068   3.516   9.429  0.2153 -0.3949  0.1969
  321loPI   GL1 5125   0.845   3.204   9.254  0.2187  0.1495  0.0658
  321loPI   GL2 5126   0.881   2.920   9.286  0.1760 -0.2512  0.1671
  321loPI   C1A 5127   0.911   3.313   8.752 -0.1487  0.1704  0.2782
  321loPI   C2A 5128   0.819   3.180   8.294  0.3629 -0.2691  0.0760
  321loPI   C3A 5129   0.736   2.965   8.031  0.4647 -0.0258 -0.1292
  321loPI   C4A 5130   0.518   2.744   7.716 -0.1766  0.0778 -0.0567
  321loPI   C5A 5131   0.168   2.665   7.460  0.1598 -0.1489  0.0282
  321loPI   C6A 5132  -0.036   3.007   7.212  0.0662 -0.3532  0.0005
  321loPI   C1B 5133   1.016   2.866   8.886 -0.3596 -0.0997  0.1534
  321loPI   C2B 5134   0.930   2.754   8.510 -0.0250  0.1089  0.1761
  321loPI   C3B 5135   0.793   2.400   8.099 -0.3615 -0.0586 -0.0369
  321loPI   C4B 5136   0.681   2.286   7.681  0.2567 -0.0273 -0.0648
  322loPI    C1 5137  17.160   0.237  10.660 -0.2264 -0.1386  0.0115
  322loPI    C2 5138  17.345  -0.091  10.525 -0.0613 -0.0766  0.0839
  322loPI    C3 5139  17.285  -0.043  10.918 -0.0986 -0.0265  0.0721
  322loPI   PO4 5140  17.274   0.419  10.427 -0.1154  0.4845  0.0626
  322loPI   GL1 5141  17.532   0.260  10.073 -0.0413  0.4254 -0.2486
  322loPI   GL2 5142  17.263   0.039  10.028  0.0344 -0.1835 -0.1983
  322loPI   C1A 5143  17.639   0.265   9.603  0.0561  0.5071 -0.0647
  322loPI   C2A 5144  17.624   0.241   9.140  0.2413  0.3699 -0.0667
  322loPI   C3A 5145  17.579   0.165   8.677  0.2912  0.0162 -0.2238
  322loPI   C4A 5146  17.654   0.174   8.212 -0.1025 -0.3484 -0.1663
  322loPI   C5A 5147  17.432   0.131   7.895  0.0477 -0.1816  0.0457
  322loPI   C6A 5148  17.524   0.320   7.457 -0.2701 -0.0809 -0.0949
  322loPI   C1B 5149  17.194  -0.036   9.591 -0.0137  0.0987 -0.0893
  322loPI   C2B 5150  17.197  -0.093   9.197  0.0204 -0.2214  0.2191
  322loPI   C3B 5151  17.149  -0.148   8.760 -0.2234 -0.0167 -0.0666
  322loPI   C4B 5152  17.141  -0.132   8.372  0.0949 -0.3756  0.2269
  323loPI    C1 5153  13.135  12.760  10.887  0.1865 -0.0094  0.1619
  323loPI    C2 5154  12.979  12.984  11.180 -0.1625 -0.0121 -0.0165
  323loPI    C3 5155  13.368  12.887  11.187 -0.0660  0.3709  0.2028
  323loPI   PO4 5156  12.936  12.675  10.799 -0.0098 -0.0755  0.2071
  323loPI   GL1 5157  12.718  12.680  10.482  0.3856 -0.4506  0.2191
  323loPI   GL2 5158  12.857  12.966  10.386  0.0232 -0.0257  0.2020
  323loPI   C1A 5159  12.911  12.455  10.139  0.2598  0.4504  0.5055
  323loPI   C2A 5160  12.920  12.477   9.819  0.2420 -0.4910 -0.0145
  323loPI   C3A 5161  12.940  12.554   9.423  0.2979 -0.1032 -0.1446
  323loPI   C4A 5162  12.976  12.667   9.040 -0.0585 -0.1443 -0.2083
  323loPI   C5A 5163  13.088  12.682   8.626  0.2625  0.1872 -0.0631
  323loPI   C6A 5164  13.209  12.292   8.338 -0.0013 -0.0541  0.0277
  323loPI   C1B 5165  12.834  12.960  10.018  0.0932 -0.0337  0.0181
  323loPI   C2B 5166  12.884  13.015   9.614  0.5943  0.0684 -0.0866
  323loPI   C3B 5167  12.906  13.088   9.328  0.0680 -0.2601 -0.0313
  323loPI   C4B 5168  12.919  13.104   8.816 -0.2139  0.2233  0.0896
  324loPI    C1 5169   0.988   6.169  10.270  0.1775 -0.0766  0.2992
  324loPI    C2 5170   1.081   6.508  10.460  0.2834  0.0068  0.1014
  324loPI    C3 5171   1.228   6.160  10.590  0.2167  0.0422  0.2738
  324loPI   PO4 5172   0.929   6.229  10.039 -0.0973  0.1360 -0.3457
  324loPI   GL1 5173   0.619   6.527   9.766  0.0269 -0.3207 -0.3787
  324loPI   GL2 5174   0.294   6.607   9.794  0.4413 -0.2572 -0.0595
  324loPI   C1A 5175   0.733   6.513   9.357  0.3921 -0.0095  0.0438
  324loPI   C2A 5176   0.760   6.548   8.985  0.1566 -0.1544  0.1281
  324loPI   C3A 5177   0.669   6.587   8.576  0.0896  0.2093  0.0903
  324loPI   C4A 5178   0.646   6.433   8.173 -0.1559  0.2428 -0.0188
  324loPI   C5A 5179   0.746   6.407   7.761 -0.1288  0.0578 -0.2293
  324loPI   C6A 5180   1.055   6.400   7.476  0.1793  0.1745 -0.0387
  324loPI   C1B 5181   0.203   6.764   9.357 -0.2816  0.1258 -0.0533
  324loPI   C2B 5182   0.378   6.851   8.894 -0.1759 -0.0534 -0.2414
  324loPI   C3B 5183   0.249   6.896   8.520 -0.0211 -0.2880  0.2034
  324loPI   C4B 5184   0.146   6.697   8.161 -0.2586 -0.2581 -0.3519
  325loPI    C1 5185  13.916  15.728  11.007 -0.0324  0.1767 -0.0234
  325loPI    C2 5186  13.854  16.086  11.173 -0.2839  0.0885  0.0796
  325loPI    C3 5187  13.700  15.759  11.343 -0.0676 -0.0679 -0.0214
  325loPI   PO4 5188  13.883  15.630  10.812  0.0586  0.0585 -0.3142
  325loPI   GL1 5189  13.943  15.564  10.455 -0.1164  0.1309 -0.2112
  325loPI   GL2 5190  13.793  15.318  10.329 -0.1485 -0.1703 -0.0128
  325loPI   C1A 5191  14.028  15.589   9.991 -0.0193  0.1560 -0.2822
  325loPI   C2A 5192  13.907  15.625   9.663 -0.1040 -0.0484  0.1625
  325loPI   C3A 5193  13.965  15.552   9.213  0.4026  0.1446 -0.3666
  325loPI   C4A 5194  13.949  15.658   8.839 -0.1070  0.3873  0.1268
  325loPI   C5A 5195  13.921  15.643   8.385 -0.0355  0.0621 -0.3271
  325loPI   C6A 5196  13.675  15.718   8.010 -0.1632 -0.2197 -0.0492
  325loPI   C1B 5197  13.966  15.086  10.006 -0.2430  0.1470 -0.1513
  325loPI   C2B 5198  13.997  15.072   9.616 -0.3788 -0.1210 -0.2692
  325loPI   C3B 5199  13.894  15.028   9.252  0.1437  0.1659  0.4238
  325loPI   C4B 5200  13.908  15.183   8.869  0.1748  0.0159  0.4166
  326loPI    C1 5201  12.675   2.675  10.655  0.2517  0.0420 -0.1451
  326loPI    C2 5202  12.923   2.988  10.680  0.0263  0.2088  0.0530
  326loPI    C3 5203  12.617   2.955  10.935 -0.2485  0.0876 -0.2844
  326loPI   PO4 5204  12.626   2.699  10.350  0.1713 -0.0389 -0.1722
  326loPI   GL1 5205  12.716   2.594   9.969 -0.4037  0.2557 -0.0271
  326loPI   GL2 5206  12.400   2.453   9.959  0.1088  0.1353 -0.1520
  326loPI   C1A 5207  12.843   2.739   9.462  0.3386 -0.1955  0.0237
  326loPI   C2A 5208  12.930   2.791   9.079  0.1120  0.1815  0.2294
  326loPI   C3A 5209  12.950   2.857   8.733 -0.2270 -0.2427  0.0031
  326loPI   C4A 5210  12.884   2.909   8.225  0.0407  0.1221  0.2295
  326loPI   C5A 5211  12.823   2.898   7.857  0.0010  0.2310  0.2712
  326loPI   C6A 5212  13.046   3.043   7.491  0.3838 -0.0488 -0.0169
  326loPI   C1B 5213  12.331   2.511   9.550  0.1982  0.0391  0.0957
  326loPI   C2B 5214  12.431   2.535   9.167 -0.0297  0.0010 -0.2288
  326loPI   C3B 5215  12.411   2.593   8.690 -0.1998  0.0284 -0.3411
  326loPI   C4B 5216  12.464   2.661   8.259 -0.0527  0.1302  0.1319
  327loPI    C1 5217   3.840   0.067  10.619  0.0946  0.1001  0.1524
  327loPI    C2 5218   3.821   0.126  11.014  0.0688  0.0817  0.1541
  327loPI    C3 5219   3.765  -0.240  10.864  0.3108  0.0442  0.1503
  327loPI   PO4 5220   4.026   0.255  10.415  0.3891  0.1431  0.0079
  327loPI   GL1 5221   4.028   0.305  10.020  0.4207  0.2046 -0.3370
  327loPI   GL2 5222   3.853   0.088   9.838 -0.1279  0.0340  0.0306
  327loPI   C1A 5223   4.189   0.345   9.538  0.1323  0.0924 -0.0586
  327loPI   C2A 5224   4.197   0.400   9.050  0.0083  0.0530 -0.0795
  327loPI   C3A 5225   4.284   0.353   8.657 -0.1026 -0.3760 -0.2793
  327loPI   C4A 5226   4.196   0.324   8.308  0.2335  0.0176  0.2134
  327loPI   C5A 5227   4.095   0.109   7.895 -0.1233  0.1867  0.0442
  327loPI   C6A 5228   4.387   0.059   7.496 -0.2052 -0.0726 -0.4432
  327loPI   C1B 5229   3.761   0.196   9.402 -0.1281  0.1155  0.1415
  327loPI   C2B 5230   3.692   0.107   8.979 -0.1554 -0.0601 -0.0662
  327loPI   C3B 5231   3.818   0.098   8.572  0.1244  0.1811  0.3955
  327loPI   C4B 5232   3.767  -0.040   8.196  0.3085 -0.0356  0.0631
  328loPI    C1 5233  14.101   5.642  10.466 -0.2735 -0.2178  0.0629
  328loPI    C2 5234  14.313   5.339  10.619  0.1784  0.0165 -0.0814
  328loPI    C3 5235  14.105   5.581  10.861  0.3097 -0.0424  0.0920
  328loPI   PO4 5236  13.994   5.534  10.237 -0.3122  0.1613 -0.1823
  328loPI   GL1 5237  13.899   5.571   9.846 -0.0538  0.3291  0.0843
  328loPI   GL2 5238  13.988   5.850   9.757 -0.0194 -0.0184 -0.1143
  328loPI   C1A 5239  13.911   5.352   9.465  0.1225 -0.4713 -0.3986
  328loPI   C2A 5240  13.955   5.384   9.013  0.0561  0.3795  0.0305
  328loPI   C3A 5241  13.975   5.414   8.597  0.2819 -0.1159  0.1390
  328loPI   C4A 5242  13.993   5.390   8.161  0.0253  0.0566 -0.0161
  328loPI   C5A 5243  13.751   5.404   7.756 -0.3030 -0.1169 -0.0909
  328loPI   C6A 5244  13.727   5.383   7.350  0.2692  0.5627 -0.1940
  328loPI   C1B 5245  13.939   5.957   9.363 -0.2914  0.1620  0.0533
  328loPI   C2B 5246  13.886   5.870   8.986 -0.0883 -0.1718  0.1644
  328loPI   C3B 5247  13.887   5.883   8.479  0.0100  0.4440 -0.2481
  328loPI   C4B 5248  13.874   5.897   7.939  0.1263  0.1692 -0.3945
  329loPI    C1 5249  14.949   9.240  10.411 -0.0693 -0.1109 -0.1574
  329loPI    C2 5250  14.726   9.219  10.742 -0.0035 -0.2749 -0.1223
  329loPI    C3 5251  14.957   8.910  10.637  0.2111 -0.1055 -0.1552
  329loPI   PO4 5252  14.876   9.333  10.259  0.1585 -0.0785  0.1527
  329loPI   GL1 5253  14.645   9.544  10.029 -0.1308 -0.3059 -0.1176
  329loPI   GL2 5254  14.685   9.889  10.087 -0.0678 -0.0666 -0.2091
  329loPI   C1A 5255  14.542   9.407   9.584 -0.0791  0.2272 -0.0735
  329loPI   C2A 5256  14.574   9.294   9.183 -0.2717  0.0578  0.0276
  329loPI   C3A 5257  14.529   9.281   8.688  0.0650 -0.1329  0.1926
  329loPI   C4A 5258  14.538   9.263   8.295  0.0590  0.0012  0.1697
  329loPI   C5A 5259  14.576   9.374   7.968 -0.2139 -0.0743  0.0203
  329loPI   C6A 5260  14.789   9.460   7.633 -0.1928  0.2469 -0.1154
  329loPI   C1B 5261  14.540   9.928   9.739 -0.0937 -0.1065 -0.3052
  329loPI   C2B 5262  14.566   9.832   9.323  0.0434 -0.1367  0.0542
  329loPI   C3B 5263  14.510   9.794   8.866  0.1817  0.2001 -0.1226
  329loPI   C4B 5264  14.662   9.781   8.479  0.2853 -0.1626 -0.3843
  330loPI    C1 5265   0.229  12.313  10.761 -0.1727  0.1002 -0.1570
  330loPI    C2 5266   0.439  12.037  10.960  0.1850  0.2818 -0.2739
  330loPI    C3 5267   0.054  12.099  11.050  0.2183  0.0469  0.0459
  330loPI   PO4 5268   0.285  12.303  10.542  0.3712 -0.1157 -0.2119
  330loPI   GL1 5269  -0.042  12.399  10.187  0.0809  0.3835  0.3607
  330loPI   GL2 5270  -0.485  12.410  10.235  0.2538 -0.1801 -0.4141
  330loPI   C1A 5271  -0.143  12.478   9.733  0.0441  0.0590 -0.0230
  330loPI   C2A 5272  -0.142  12.399   9.275 -0.0869  0.1290  0.2075
  330loPI   C3A 5273  -0.186  12.404   8.837  0.0896 -0.0809  0.2743
  330loPI   C4A 5274  -0.115  12.406   8.293  0.1951 -0.0384  0.2378
  330loPI   C5A 5275  -0.169  12.392   7.844 -0.2095  0.1467 -0.1752
  330loPI   C6A 5276  -0.222  12.334   7.341 -0.0930  0.0085  0.0793
  330loPI   C1B 5277  -0.575  12.146   9.969 -0.2309  0.2972 -0.0578
  330loPI   C2B 5278  -0.642  12.151   9.468 -0.0410 -0.1847 -0.0296
  330loPI   C3B 5279  -0.524  12.133   9.035  0.2628  0.1009 -0.1712
  330loPI   C4B 5280  -0.604  12.218   8.635 -0.0386 -0.0549 -0.0368
  331loPI    C1 5281  11.178  14.196  10.942  0.1122  0.3200 -0.0884
  331loPI    C2 5282  11.410  14.509  11.033 -0.0050  0.3793  0.0088
  331loPI    C3 5283  11.205  14.322  11.320  0.3212  0.0043  0.0057
  331loPI   PO4 5284  11.016  14.131  10.718  0.0209 -0.2405 -0.0162
  331loPI   GL1 5285  11.148  14.324  10.400  0.0955 -0.0599 -0.0762
  331loPI   GL2 5286  11.445  14.358  10.492  0.2386 -0.2538  0.2015
  331loPI   C1A 5287  11.285  14.143   9.936 -0.1106  0.0194  0.0461
  331loPI   C2A 5288  11.261  14.232   9.407  0.1791  0.0960 -0.2575
  331loPI   C3A 5289  11.255  14.239   8.950 -0.0422 -0.0152 -0.3002
  331loPI   C4A 5290  11.357  14.196   8.487 -0.0637 -0.0956  0.1605
  331loPI   C5A 5291  11.275  14.187   8.127  0.1130 -0.1299 -0.2384
  331loPI   C6A 5292  11.267  14.155   7.663 -0.2722 -0.0206  0.3454
  331loPI   C1B 5293  11.703  14.362  10.079 -0.3850  0.3249 -0.1382
  331loPI   C2B 5294  11.667  14.417   9.575  0.1743  0.0452 -0.2023
  331loPI   C3B 5295  11.735  14.436   9.125 -0.1359 -0.1265 -0.0679
  331loPI   C4B 5296  11.685  14.486   8.676 -0.0164  0.2635  0.0036
  332loPI    C1 5297  16.141   8.212  10.043  0.1279 -0.0877  0.0910
  332loPI    C2 5298  16.025   8.339  10.404 -0.1000 -0.0115 -0.0075
  332loPI    C3 5299  16.245   8.577  10.169 -0.1031  0.0080  0.0094
  332loPI   PO4 5300  15.933   8.166   9.949 -0.1921 -0.1703  0.1097
  332loPI   GL1 5301  15.714   8.039   9.629 -0.0684 -0.1475 -0.0838
  332loPI   GL2 5302  15.475   8.319   9.571  0.0341  0.0837 -0.0678
  332loPI   C1A 5303  15.850   7.849   9.260  0.0682 -0.2157  0.1118
  332loPI   C2A 5304  15.871   7.957   8.776  0.0656  0.0484 -0.3388
  332loPI   C3A 5305  15.865   7.825   8.307  0.0832  0.2123 -0.1124
  332loPI   C4A 5306  15.833   8.053   7.826 -0.0310  0.2270  0.0426
  332loPI   C5A 5307  15.645   8.222   7.495 -0.1940  0.2805 -0.0379
  332loPI   C6A 5308  15.477   8.324   7.177 -0.1024  0.1928  0.3324
  332loPI   C1B 5309  15.466   8.131   9.097 -0.0660  0.0329 -0.1847
  332loPI   C2B 5310  15.408   8.185   8.655 -0.1131 -0.1769  0.1931
  332loPI   C3B 5311  15.539   8.191   8.258  0.1290  0.1329 -0.1614
  332loPI   C4B 5312  15.348   8.395   7.953  0.1464  0.2263 -0.1880
  333loPI    C1 5313  13.704   0.525  10.366 -0.1123  0.2296 -0.2054
  333loPI    C2 5314  13.859   0.774  10.639  0.0866 -0.2697  0.1525
  333loPI    C3 5315  13.566   0.521  10.742 -0.0226 -0.2795 -0.1710
  333loPI   PO4 5316  13.664   0.690  10.184  0.0033  0.0025 -0.3087
  333loPI   GL1 5317  13.448   0.682   9.814  0.1431 -0.2604  0.1876
  333loPI   GL2 5318  13.193   0.837   9.662 -0.0611 -0.1702 -0.1481
  333loPI   C1A 5319  13.591   0.606   9.369  0.3670 -0.2150  0.2498
  333loPI   C2A 5320  13.700   0.571   8.875 -0.2109 -0.0332 -0.0793
  333loPI   C3A 5321  13.715   0.627   8.414  0.2078 -0.2410  0.2267
  333loPI   C4A 5322  13.421   0.579   7.964 -0.0375  0.0786  0.0903
  333loPI   C5A 5323  13.062   0.641   7.615 -0.2023 -0.0279 -0.0368
  333loPI   C6A 5324  12.751   0.609   7.309 -0.1030 -0.0717 -0.1728
  333loPI   C1B 5325  13.178   1.054   9.238  0.0694 -0.0624 -0.2510
  333loPI   C2B 5326  13.198   0.984   8.764 -0.3133 -0.1629  0.1398
  333loPI   C3B 5327  13.156   1.050   8.392 -0.2281 -0.2216 -0.0872
  333loPI   C4B 5328  12.975   1.004   7.908 -0.0380 -0.2379 -0.1164
  334loPI    C1 5329   5.996  15.535  11.178  0.2213 -0.0244 -0.1032
  334loPI    C2 5330   5.864  15.483  11.552  0.1900 -0.1072 -0.1257
  334loPI    C3 5331   6.242  15.392  11.460  0.2387  0.0472 -0.0818
  334loPI   PO4 5332   5.890  15.417  10.894 -0.0562  0.0020  0.2184
  334loPI   GL1 5333   5.886  15.487  10.472 -0.0132  0.2366  0.0151
  334loPI   GL2 5334   6.251  15.301  10.178 -0.0257 -0.0622 -0.2888
  334loPI   C1A 5335   5.676  15.595  10.208  0.1966  0.1208  0.3119
  334loPI   C2A 5336   5.736  15.518   9.800  0.1794  0.2186 -0.0839
  334loPI   C3A 5337   5.896  15.499   9.375  0.1532  0.2886  0.0784
  334loPI   C4A 5338   5.868  15.568   8.948  0.0429 -0.0292 -0.0065
  334loPI   C5A 5339   5.934  15.549   8.464  0.0858  0.1424  0.1420
  334loPI   C6A 5340   6.134  15.418   7.983 -0.0237 -0.0094 -0.0087
  334loPI   C1B 5341   6.303  15.202   9.773 -0.0291  0.0019 -0.3783
  334loPI   C2B 5342   6.353  15.156   9.345 -0.0893 -0.1007 -0.0996
  334loPI   C3B 5343   6.294  15.322   8.856 -0.1522 -0.3577 -0.1708
  334loPI   C4B 5344   6.259  15.193   8.410  0.1456  0.0673  0.0623
  335loPI    C1 5345  17.561   7.917  10.021 -0.1122 -0.0454  0.0987
  335loPI    C2 5346  17.895   7.730  10.138 -0.0501  0.1125  0.1779
  335loPI    C3 5347  17.538   7.593  10.255 -0.0262 -0.1849 -0.0834
  335loPI   PO4 5348  17.542   7.971   9.768 -0.1544  0.1880  0.0211
  335loPI   GL1 5349  17.275   7.813   9.416  0.2008 -0.0110  0.0248
  335loPI   GL2 5350  17.223   8.148   9.430 -0.0563 -0.1655  0.0665
  335loPI   C1A 5351  17.288   7.680   9.023 -0.0055 -0.0386  0.2295
  335loPI   C2A 5352  17.243   7.612   8.574  0.1832 -0.1919 -0.1875
  335loPI   C3A 5353  17.264   7.553   8.144 -0.1598 -0.0941 -0.1971
  335loPI   C4A 5354  17.408   7.634   7.701 -0.0062  0.1857 -0.0588
  335loPI   C5A 5355  17.451   7.916   7.399 -0.0836 -0.0648 -0.0735
  335loPI   C6A 5356  17.286   8.238   7.197  0.0867  0.1793  0.0103
  335loPI   C1B 5357  17.325   8.147   9.055  0.0993  0.1178 -0.0119
  335loPI   C2B 5358  17.345   8.090   8.627  0.5309  0.0783 -0.2222
  335loPI   C3B 5359  17.281   8.048   8.217  0.1693  0.1274 -0.1154
  335loPI   C4B 5360  17.471   8.184   7.822 -0.1483  0.0245  0.0331
  336loPI    C1 5361   6.649   5.941  10.288 -0.1584 -0.1603 -0.0782
  336loPI    C2 5362   6.339   5.761  10.466 -0.0552 -0.1138  0.1521
  336loPI    C3 5363   6.587   5.990  10.680  0.0324 -0.0013 -0.0665
  336loPI   PO4 5364   6.492   5.918   9.966  0.2290 -0.2580 -0.3201
  336loPI   GL1 5365   6.535   5.670   9.613 -0.2025 -0.1794 -0.5182
  336loPI   GL2 5366   6.206   5.515   9.654  0.0286  0.0675 -0.0705
  336loPI   C1A 5367   6.764   5.782   9.294  0.0304  0.1385  0.0846
  336loPI   C2A 5368   6.723   5.681   8.864 -0.2219 -0.3792  0.1974
  336loPI   C3A 5369   6.702   5.783   8.410  0.2186 -0.0796 -0.0454
  336loPI   C4A 5370   7.012   5.703   8.200  0.0332  0.2857 -0.1479
  336loPI   C5A 5371   7.257   5.653   7.917 -0.1618 -0.1053  0.0957
  336loPI   C6A 5372   7.328   5.282   7.553  0.2463 -0.2060 -0.0311
  336loPI   C1B 5373   6.200   5.427   9.198 -0.0829 -0.2328 -0.0134
  336loPI   C2B 5374   6.279   5.429   8.792 -0.0719 -0.1993  0.0224
  336loPI   C3B 5375   6.216   5.500   8.424 -0.0633 -0.1104 -0.1824
  336loPI   C4B 5376   6.048   5.413   8.012  0.1427 -0.3137  0.5887
  337loPI    C1 5377   9.061  12.992  11.333 -0.1431 -0.2529  0.1422
  337loPI    C2 5378   9.335  13.120  11.596 -0.0568  0.1147 -0.1196
  337loPI    C3 5379   8.955  13.071  11.710  0.0533 -0.0944  0.1665
  337loPI   PO4 5380   9.112  13.229  11.111 -0.0572  0.3410  0.3236
  337loPI   GL1 5381   9.084  13.195  10.700  0.2261  0.1554 -0.0519
  337loPI   GL2 5382   9.399  13.249  10.550  0.1853  0.2756  0.0027
  337loPI   C1A 5383   8.822  13.040  10.335 -0.0269 -0.0554 -0.2991
  337loPI   C2A 5384   8.937  13.020   9.886  0.0629 -0.1214 -0.1598
  337loPI   C3A 5385   8.853  12.867   9.459  0.0350  0.0166  0.1877
  337loPI   C4A 5386   8.903  12.928   9.016  0.3893  0.1258  0.4771
  337loPI   C5A 5387   8.988  12.948   8.616  0.2141 -0.0871 -0.3125
  337loPI   C6A 5388   9.227  13.219   8.312 -0.2068  0.1918  0.0730
  337loPI   C1B 5389   9.255  13.269  10.172  0.0268 -0.0107  0.1737
  337loPI   C2B 5390   9.360  13.237   9.747 -0.3554 -0.2887 -0.0246
  337loPI   C3B 5391   9.336  13.246   9.280  0.1767 -0.0856 -0.1801
  337loPI   C4B 5392   9.394  13.239   8.948 -0.0151  0.0558 -0.1651
  338loPI    C1 5393   2.367   9.044  10.724 -0.0947 -0.1488 -0.2919
  338loPI    C2 5394   2.470   8.887  11.077  0.2239  0.1383 -0.2521
  338loPI    C3 5395   2.116   8.798  10.914  0.1308 -0.1043  0.0729
  338loPI   PO4 5396   2.601   9.069  10.612  0.0042 -0.0714  0.1538
  338loPI   GL1 5397   2.689   9.244  10.283 -0.2223 -0.2644  0.1900
  338loPI   GL2 5398   2.434   9.186  10.079 -0.1469  0.4360 -0.0492
  338loPI   C1A 5399   2.834   9.347   9.864  0.1847 -0.0678 -0.1488
  338loPI   C2A 5400   2.885   9.386   9.397  0.0478 -0.2647  0.2138
  338loPI   C3A 5401   2.849   9.467   8.959 -0.0570 -0.0672  0.0636
  338loPI   C4A 5402   2.951   9.460   8.547 -0.0981  0.3743  0.0188
  338loPI   C5A 5403   2.851   9.354   8.052  0.1828  0.1872  0.1473
  338loPI   C6A 5404   2.994   8.889   7.742 -0.0259  0.2265 -0.0462
  338loPI   C1B 5405   2.404   9.167   9.635 -0.0864 -0.0955  0.0815
  338loPI   C2B 5406   2.451   9.197   9.257  0.1028  0.1127 -0.1629
  338loPI   C3B 5407   2.395   9.275   8.856  0.1135 -0.3794 -0.1780
  338loPI   C4B 5408   2.432   9.328   8.394  0.0699  0.1019 -0.0463
  339loPI    C1 5409   8.747  13.543  11.083  0.1601  0.0949  0.2815
  339loPI    C2 5410   8.490  13.723  11.332  0.0641  0.1830  0.1201
  339loPI    C3 5411   8.726  13.430  11.466  0.0789  0.2926  0.3370
  339loPI   PO4 5412   8.644  13.703  10.844 -0.0134  0.1633  0.0912
  339loPI   GL1 5413   8.448  13.586  10.438 -0.1816 -0.1579 -0.1063
  339loPI   GL2 5414   8.880  13.559  10.463 -0.0828 -0.0103  0.0352
  339loPI   C1A 5415   8.442  13.795  10.054 -0.1037 -0.1599  0.3594
  339loPI   C2A 5416   8.515  13.800   9.625  0.0092 -0.2419 -0.0990
  339loPI   C3A 5417   8.458  13.813   9.232  0.1266  0.0302 -0.2928
  339loPI   C4A 5418   8.331  13.780   8.811  0.3426  0.1322  0.3642
  339loPI   C5A 5419   8.413  13.762   8.341  0.0616  0.2587  0.0805
  339loPI   C6A 5420   8.808  13.567   8.145 -0.2357 -0.2840  0.0310
  339loPI   C1B 5421   8.861  13.487   9.996  0.2517 -0.2744  0.4225
  339loPI   C2B 5422   8.898  13.412   9.541 -0.3902 -0.0110 -0.0756
  339loPI   C3B 5423   8.864  13.536   9.081  0.1240  0.0525  0.2334
  339loPI   C4B 5424   8.811  13.503   8.636  0.0337  0.1950 -0.1521
  340loPI    C1 5425  12.492   0.278  10.526  0.0539 -0.2193  0.0087
  340loPI    C2 5426  12.659   0.346  10.883  0.0567  0.0656 -0.0443
  340loPI    C3 5427  12.263   0.381  10.837  0.0344 -0.1515 -0.0279
  340loPI   PO4 5428  12.723   0.332  10.390 -0.3225  0.2572  0.2058
  340loPI   GL1 5429  12.870   0.189   9.930  0.0933 -0.0639  0.1693
  340loPI   GL2 5430  13.060   0.329   9.820 -0.1303  0.1172  0.0218
  340loPI   C1A 5431  12.706   0.118   9.466 -0.0945 -0.6057  0.0895
  340loPI   C2A 5432  12.754   0.230   9.053  0.1315 -0.0469  0.2989
  340loPI   C3A 5433  12.764   0.281   8.564  0.0664  0.1450  0.2653
  340loPI   C4A 5434  12.597   0.130   8.232 -0.0984 -0.1481  0.1793
  340loPI   C5A 5435  12.387   0.395   7.905 -0.0781 -0.0474 -0.1624
  340loPI   C6A 5436  12.375   0.274   7.504  0.0307  0.0003  0.0907
  340loPI   C1B 5437  13.177   0.426   9.342  0.1555  0.2230 -0.2536
  340loPI   C2B 5438  13.194   0.496   8.901  0.0545  0.0663  0.3765
  340loPI   C3B 5439  13.146   0.519   8.390  0.1384  0.0499  0.1594
  340loPI   C4B 5440  12.892   0.521   8.065 -0.0912  0.1018  0.1889
  341loPI    C1 5441  10.333   2.250  10.469  0.1782  0.0747 -0.2399
  341loPI    C2 5442  10.275   2.499  10.777  0.1049 -0.1168 -0.0970
  341loPI    C3 5443  10.646   2.393  10.672  0.1289 -0.0710 -0.0587
  341loPI   PO4 5444  10.204   2.329  10.302  0.1433  0.1987 -0.2089
  341loPI   GL1 5445   9.937   2.418  10.110  0.3749 -0.0537 -0.1615
  341loPI   GL2 5446   9.578   2.244  10.336 -0.1157  0.5333 -0.1701
  341loPI   C1A 5447  10.159   2.381   9.656  0.0937 -0.0155  0.0532
  341loPI   C2A 5448  10.146   2.365   9.136  0.1065 -0.1040 -0.2091
  341loPI   C3A 5449  10.167   2.459   8.772  0.0041  0.0114 -0.2276
  341loPI   C4A 5450  10.182   2.512   8.309 -0.2876  0.2715 -0.1598
  341loPI   C5A 5451   9.916   2.279   8.055 -0.3200 -0.1163  0.1264
  341loPI   C6A 5452   9.621   1.996   8.074  0.1476  0.1373 -0.3609
  341loPI   C1B 5453   9.555   2.133   9.912  0.0584  0.2761 -0.1063
  341loPI   C2B 5454   9.649   2.202   9.424 -0.0751  0.0851  0.0186
  341loPI   C3B 5455   9.671   2.232   8.979  0.1574  0.1537  0.1177
  341loPI   C4B 5456   9.749   2.205   8.597 -0.1028 -0.0856 -0.0348
  342loPI    C1 5457  11.278  17.759  10.887  0.0148  0.0329 -0.0276
  342loPI    C2 5458  11.071  17.842  11.219  0.0063 -0.0204 -0.0195
  342loPI    C3 5459  11.199  17.470  11.151  0.0881  0.0095 -0.0310
  342loPI   PO4 5460  11.117  17.799  10.711 -0.1596 -0.2928  0.3021
  342loPI   GL1 5461  11.133  17.709  10.355 -0.0131  0.0284 -0.1400
  342loPI   GL2 5462  11.481  17.806  10.257  0.0867 -0.0218  0.0829
  342loPI   C1A 5463  10.943  17.532  10.000  0.2264 -0.1844 -0.1408
  342loPI   C2A 5464  11.021  17.664   9.553  0.3000 -0.2506  0.2444
  342loPI   C3A 5465  10.954  17.676   9.185  0.2750 -0.1174  0.3187
  342loPI   C4A 5466  10.950  17.679   8.748  0.1347 -0.0682  0.1828
  342loPI   C5A 5467  10.967  17.753   8.295 -0.1596  0.0156  0.1123
  342loPI   C6A 5468  10.864  17.981   7.988 -0.0482  0.0324  0.0658
  342loPI   C1B 5469  11.510  17.811   9.822 -0.0909  0.1788 -0.0863
  342loPI   C2B 5470  11.442  17.889   9.402 -0.0355 -0.3371  0.2078
  342loPI   C3B 5471  11.392  17.894   9.000 -0.1129 -0.0129  0.2247
  342loPI   C4B 5472  11.345  17.880   8.571 -0.1510 -0.1709  0.0920
  343loPI    C1 5473   0.940   4.566   9.786 -0.1128  0.2253 -0.1854
  343loPI    C2 5474   1.173   4.474  10.099 -0.1441 -0.1340 -0.2636
  343loPI    C3 5475   0.889   4.754  10.136 -0.0019 -0.0170 -0.0361
  343loPI   PO4 5476   1.106   4.516   9.473 -0.0716  0.2066 -0.3720
  343loPI   GL1 5477   1.122   4.648   9.146 -0.3029 -0.1088  0.1078
  343loPI   GL2 5478   0.902   4.503   9.003 -0.4034 -0.1362  0.0441
  343loPI   C1A 5479   1.237   4.792   8.714  0.0596  0.1416 -0.0144
  343loPI   C2A 5480   1.155   4.722   8.328  0.0419 -0.1025 -0.1331
  343loPI   C3A 5481   0.904   4.495   7.909  0.1657  0.0323 -0.0645
  343loPI   C4A 5482   0.779   4.397   7.496 -0.2618 -0.3179  0.3756
  343loPI   C5A 5483   0.736   4.830   7.221  0.1955  0.1452 -0.0917
  343loPI   C6A 5484   1.033   5.140   7.195  0.3147  0.0186  0.0305
  343loPI   C1B 5485   0.857   4.361   8.502  0.0559  0.1175 -0.2202
  343loPI   C2B 5486   1.052   4.111   8.189 -0.2177  0.0320  0.0250
  343loPI   C3B 5487   1.015   3.946   7.722 -0.0553  0.0144 -0.1727
  343loPI   C4B 5488   1.099   3.967   7.273 -0.0877 -0.0250 -0.0840
  344loPI    C1 5489  16.103  16.851  11.033  0.0019  0.0145 -0.2322
  344loPI    C2 5490  15.794  16.600  10.994  0.1006 -0.1296 -0.1006
  344loPI    C3 5491  15.735  16.970  11.136  0.0360 -0.2710  0.2507
  344loPI   PO4 5492  16.187  16.855  10.766 -0.0042 -0.1877  0.4093
  344loPI   GL1 5493  16.278  16.828  10.339  0.2318 -0.1223 -0.1663
  344loPI   GL2 5494  16.210  17.161  10.349 -0.4244  0.1120  0.4641
  344loPI   C1A 5495  16.163  16.767   9.971  0.1676 -0.0017  0.2274
  344loPI   C2A 5496  16.228  16.801   9.543  0.0929 -0.2341 -0.1238
  344loPI   C3A 5497  16.267  16.890   9.147  0.1309 -0.0066 -0.0137
  344loPI   C4A 5498  16.276  16.829   8.698  0.0718  0.2136 -0.3787
  344loPI   C5A 5499  16.251  16.931   8.294 -0.0333  0.0004 -0.0811
  344loPI   C6A 5500  16.070  17.037   7.879  0.0353 -0.0694 -0.0561
  344loPI   C1B 5501  16.210  17.273   9.935  0.1859  0.1047 -0.0281
  344loPI   C2B 5502  16.194  17.336   9.472  0.0412 -0.0694 -0.1729
  344loPI   C3B 5503  16.272  17.378   8.983 -0.0877 -0.1265 -0.1487
  344loPI   C4B 5504  16.169  17.338   8.643 -0.0666  0.3437 -0.0953
  345loPI    C1 5505   4.608  11.835  11.111 -0.0588  0.1870  0.0378
  345loPI    C2 5506   4.816  12.006  11.406  0.0060  0.1183  0.0321
  345loPI    C3 5507   4.513  11.760  11.492  0.0861  0.0226  0.0424
  345loPI   PO4 5508   4.556  12.081  10.905 -0.5785  0.2040  0.1207
  345loPI   GL1 5509   4.453  12.172  10.402 -0.1880 -0.0869 -0.0461
  345loPI   GL2 5510   4.735  11.930  10.405 -0.0183 -0.2677 -0.0777
  345loPI   C1A 5511   4.349  12.171   9.994  0.2071 -0.0502 -0.2030
  345loPI   C2A 5512   4.387  12.129   9.602  0.0323 -0.1767  0.2152
  345loPI   C3A 5513   4.401  12.190   9.090 -0.0793 -0.1194 -0.1083
  345loPI   C4A 5514   4.443  12.177   8.637 -0.4090 -0.2965 -0.0079
  345loPI   C5A 5515   4.460  12.529   8.351 -0.1813 -0.1048  0.2922
  345loPI   C6A 5516   4.364  12.847   8.303 -0.2446 -0.0304 -0.2989
  345loPI   C1B 5517   4.867  11.871   9.999  0.0412 -0.0746  0.1940
  345loPI   C2B 5518   4.814  11.913   9.499 -0.0451 -0.0574  0.1960
  345loPI   C3B 5519   4.857  11.874   9.067  0.2566 -0.3321 -0.0686
  345loPI   C4B 5520   4.872  11.882   8.625  0.0980  0.1806  0.2356
  346loPI    C1 5521   9.539   0.856  10.390  0.0059  0.1370 -0.1672
  346loPI    C2 5522   9.469   1.210  10.563  0.0366 -0.0781  0.3011
  346loPI    C3 5523   9.247   0.893  10.662  0.0175 -0.1972 -0.1060
  346loPI   PO4 5524   9.810   0.728  10.495 -0.4680 -0.1929 -0.1199
  346loPI   GL1 5525   9.939   0.363  10.232 -0.3005 -0.0242  0.1145
  346loPI   GL2 5526  10.140   0.636  10.125  0.0977 -0.1179  0.3235
  346loPI   C1A 5527  10.047   0.266   9.707  0.3984  0.0406 -0.1219
  346loPI   C2A 5528   9.964   0.203   9.347  0.1627  0.3275 -0.2910
  346loPI   C3A 5529  10.106   0.375   9.059 -0.0673 -0.1167 -0.1658
  346loPI   C4A 5530  10.037   0.198   8.630 -0.2631  0.0922 -0.2872
  346loPI   C5A 5531  10.051   0.302   8.184 -0.0331  0.1285 -0.0350
  346loPI   C6A 5532   9.902   0.143   7.928 -0.3386  0.1482  0.0973
  346loPI   C1B 5533  10.129   0.781   9.810 -0.0113  0.1755  0.1949
  346loPI   C2B 5534  10.021   0.778   9.374 -0.1792  0.1453 -0.0840
  346loPI   C3B 5535  10.089   0.810   8.827 -0.0494 -0.4304  0.2416
  346loPI   C4B 5536  10.069   0.673   8.476 -0.2822 -0.1287  0.0428
  347loPI    C1 5537  12.709  15.608  11.072 -0.0069 -0.3251  0.0475
  347loPI    C2 5538  12.868  15.927  11.254  0.1554 -0.2897 -0.1532
  347loPI    C3 5539  12.779  15.600  11.466 -0.0702 -0.0908  0.0646
  347loPI   PO4 5540  12.850  15.608  10.781  0.1785  0.1926  0.3297
  347loPI   GL1 5541  12.748  15.594  10.380  0.0558  0.2922  0.3231
  347loPI   GL2 5542  12.531  15.843  10.309 -0.1365 -0.0722  0.1354
  347loPI   C1A 5543  12.537  15.410   9.928  0.2009  0.0619  0.0200
  347loPI   C2A 5544  12.601  15.467   9.448 -0.0810 -0.0404  0.2198
  347loPI   C3A 5545  12.674  15.483   9.000  0.1232  0.0816  0.3222
  347loPI   C4A 5546  12.668  15.583   8.545 -0.1332 -0.0968 -0.2020
  347loPI   C5A 5547  12.648  15.584   8.118 -0.0305 -0.1268  0.0181
  347loPI   C6A 5548  12.709  15.155   7.893  0.3284  0.1323  0.1208
  347loPI   C1B 5549  12.601  15.923   9.905  0.2765  0.3535 -0.2264
  347loPI   C2B 5550  12.590  15.924   9.447  0.0280  0.2725 -0.0689
  347loPI   C3B 5551  12.725  16.015   9.123  0.1375  0.2846  0.1212
  347loPI   C4B 5552  12.662  16.026   8.715  0.1585 -0.0415 -0.0833
  348loPI    C1 5553  15.877   3.598  10.451 -0.1307 -0.0868 -0.1212
  348loPI    C2 5554  16.200   3.702  10.664 -0.2102  0.1683 -0.1224
  348loPI    C3 5555  16.136   3.318  10.572 -0.0138  0.0928  0.0499
  348loPI   PO4 5556  15.797   3.887  10.321  0.1824 -0.0183 -0.1679
  348loPI   GL1 5557  15.698   3.959   9.897  0.0603 -0.0128  0.0452
  348loPI   GL2 5558  15.775   3.582   9.817 -0.0180 -0.1033  0.1538
  348loPI   C1A 5559  15.582   4.144   9.442  0.0770 -0.1601  0.0042
  348loPI   C2A 5560  15.716   4.237   8.998 -0.1140  0.3089 -0.3290
  348loPI   C3A 5561  15.702   4.271   8.544 -0.0783  0.0957 -0.1476
  348loPI   C4A 5562  15.714   4.206   8.122  0.2153 -0.0104 -0.0043
  348loPI   C5A 5563  15.677   3.935   7.827  0.1909  0.1632 -0.0328
  348loPI   C6A 5564  15.801   3.829   7.420 -0.2065 -0.0112 -0.0089
  348loPI   C1B 5565  15.571   3.594   9.462  0.2528  0.0167  0.1321
  348loPI   C2B 5566  15.558   3.677   9.151 -0.2814  0.0321  0.1954
  348loPI   C3B 5567  15.633   3.705   8.717  0.0974  0.0652  0.2625
  348loPI   C4B 5568  15.726   3.711   8.274 -0.0956 -0.0092  0.0426
  349loPI    C1 5569  10.539   1.359  10.687  0.0944  0.1903  0.1551
  349loPI    C2 5570  10.783   1.354  11.004  0.1370 -0.1132  0.1205
  349loPI    C3 5571  10.466   1.110  10.992  0.1101 -0.0706 -0.0511
  349loPI   PO4 5572  10.718   1.331  10.455 -0.2001 -0.1396 -0.2196
  349loPI   GL1 5573  11.017   1.679  10.142 -0.2408 -0.2588 -0.3731
  349loPI   GL2 5574  10.849   1.415   9.985 -0.1426 -0.0119 -0.1232
  349loPI   C1A 5575  11.023   1.847   9.727  0.1743 -0.0829  0.2765
  349loPI   C2A 5576  11.059   1.945   9.364  0.0842 -0.0607 -0.5182
  349loPI   C3A 5577  11.074   1.833   8.948  0.0901 -0.2937  0.3365
  349loPI   C4A 5578  10.989   1.926   8.586 -0.0299 -0.0388 -0.0758
  349loPI   C5A 5579  10.888   1.868   8.194 -0.1142  0.2382  0.2581
  349loPI   C6A 5580  10.722   1.684   7.826 -0.1989 -0.2159  0.2530
  349loPI   C1B 5581  11.003   1.294   9.565 -0.0423  0.2486  0.0009
  349loPI   C2B 5582  11.126   1.378   9.098  0.4329 -0.1741 -0.0296
  349loPI   C3B 5583  10.910   1.375   8.722 -0.3381  0.0657  0.3239
  349loPI   C4B 5584  10.921   1.412   8.312  0.0053 -0.1861  0.0590
  350loPI    C1 5585   1.640  16.756  10.722  0.0781 -0.1726 -0.1368
  350loPI    C2 5586   1.319  16.606  10.907 -0.0771  0.4017  0.0840
  350loPI    C3 5587   1.641  16.711  11.119  0.2289 -0.0770 -0.1256
  350loPI   PO4 5588   1.538  17.039  10.631 -0.2541  0.3853  0.0602
  350loPI   GL1 5589   1.353  17.213  10.283 -0.1736  0.2182 -0.2711
  350loPI   GL2 5590   1.456  17.309   9.951  0.3382  0.2814 -0.0001
  350loPI   C1A 5591   0.984  17.145  10.201 -0.3390 -0.1558 -0.0065
  350loPI   C2A 5592   0.907  17.032   9.806 -0.0249 -0.4062 -0.1768
  350loPI   C3A 5593   0.946  17.122   9.402 -0.0417  0.1011 -0.0616
  350loPI   C4A 5594   0.994  17.041   8.892 -0.0449  0.0411  0.3362
  350loPI   C5A 5595   0.979  17.140   8.442 -0.5426  0.2558 -0.0969
  350loPI   C6A 5596   1.188  17.351   8.164  0.0689 -0.0314 -0.0627
  350loPI   C1B 5597   1.324  17.437   9.587 -0.0015  0.0819 -0.1032
  350loPI   C2B 5598   1.436  17.258   9.193  0.0258  0.0619  0.1967
  350loPI   C3B 5599   1.475  17.194   8.797 -0.1384 -0.3430  0.1207
  350loPI   C4B 5600   1.649  17.180   8.336  0.0015 -0.1420 -0.1477
  351loPI    C1 5601  18.290  16.957  11.346  0.1389 -0.0529 -0.2156
  351loPI    C2 5602  18.572  16.674  11.345  0.2397  0.0457 -0.4468
  351loPI    C3 5603  18.638  17.022  11.531  0.1433 -0.0529 -0.2241
  351loPI   PO4 5604  18.238  16.961  10.990 -0.3209 -0.2674 -0.2116
  351loPI   GL1 5605  18.372  17.098  10.584  0.2721 -0.1287 -0.1648
  351loPI   GL2 5606  18.443  16.734  10.418  0.0029 -0.2618  0.0784
  351loPI   C1A 5607  18.515  17.137  10.096 -0.0849  0.0334 -0.1835
  351loPI   C2A 5608  18.421  17.139   9.715  0.0180  0.1872 -0.1247
  351loPI   C3A 5609  18.483  17.078   9.357 -0.0835  0.0011 -0.0750
  351loPI   C4A 5610  18.548  17.029   8.928 -0.0492  0.2351 -0.4620
  351loPI   C5A 5611  18.629  16.948   8.476  0.1106  0.0046  0.1866
  351loPI   C6A 5612  18.665  16.592   8.229  0.0923 -0.1407 -0.0558
  351loPI   C1B 5613  18.387  16.604   9.997 -0.0339  0.0730  0.0849
  351loPI   C2B 5614  18.427  16.654   9.556  0.1508 -0.1442  0.1388
  351loPI   C3B 5615  18.462  16.593   9.153  0.3140  0.0918 -0.1391
  351loPI   C4B 5616  18.616  16.526   8.800  0.2355  0.3429 -0.0528
  352loPI    C1 5617   0.398   3.725  10.047 -0.0376 -0.1805  0.1993
  352loPI    C2 5618   0.293   3.945  10.364  0.3840 -0.0805  0.2747
  352loPI    C3 5619   0.452   3.582  10.416  0.2840 -0.1400  0.1702
  352loPI   PO4 5620   0.580   3.914   9.887 -0.0094  0.3061 -0.0455
  352loPI   GL1 5621   0.743   4.118   9.499 -0.0214  0.1121  0.0946
  352loPI   GL2 5622   0.508   4.208   9.135 -0.0711  0.2315  0.0445
  352loPI   C1A 5623   1.022   4.039   9.050  0.1524  0.2946  0.2245
  352loPI   C2A 5624   1.073   3.818   8.640 -0.0533  0.0827  0.1477
  352loPI   C3A 5625   0.983   3.640   8.274  0.0674  0.1711 -0.0655
  352loPI   C4A 5626   0.934   3.503   7.907  0.1203 -0.2723 -0.0631
  352loPI   C5A 5627   0.867   3.550   7.450 -0.4634 -0.0006  0.1754
  352loPI   C6A 5628   0.815   3.405   7.032 -0.3410 -0.0531 -0.3020
  352loPI   C1B 5629   0.390   4.309   8.755  0.1403  0.0028  0.0098
  352loPI   C2B 5630   0.309   4.210   8.405  0.1914  0.3199  0.2648
  352loPI   C3B 5631   0.478   4.225   7.997  0.0387  0.1513  0.0184
  352loPI   C4B 5632   0.304   4.332   7.618 -0.0733  0.3141  0.1660
  353loPI    C1 5633   0.541   9.888  11.036 -0.0101 -0.1797  0.0126
  353loPI    C2 5634   0.495   9.569  11.273  0.0066 -0.0163  0.2395
  353loPI    C3 5635   0.684   9.894  11.410  0.1790  0.0138 -0.0606
  353loPI   PO4 5636   0.374   9.786  10.745  0.2918  0.0735  0.1645
  353loPI   GL1 5637   0.319   9.891  10.306 -0.2053 -0.2372 -0.1400
  353loPI   GL2 5638   0.291   9.529  10.154  0.0106 -0.5407 -0.1421
  353loPI   C1A 5639   0.093   9.949   9.952 -0.1738  0.1345 -0.3195
  353loPI   C2A 5640   0.215  10.095   9.488  0.0084  0.1082  0.0843
  353loPI   C3A 5641   0.305  10.067   9.021 -0.2911  0.0164  0.0610
  353loPI   C4A 5642   0.259   9.948   8.594 -0.0091  0.2198  0.0870
  353loPI   C5A 5643   0.291   9.851   8.179  0.0306  0.1974 -0.1400
  353loPI   C6A 5644   0.713   9.977   7.970  0.0496 -0.1452  0.3659
  353loPI   C1B 5645   0.525   9.763   9.744  0.4224  0.2668  0.0416
  353loPI   C2B 5646   0.610   9.778   9.197 -0.2016  0.1192 -0.0004
  353loPI   C3B 5647   0.722   9.831   8.747  0.0500  0.1284 -0.3792
  353loPI   C4B 5648   0.726   9.649   8.404  0.1050  0.0480 -0.0895
  354loPI    C1 5649  16.016   1.710  10.265 -0.0260 -0.0177 -0.1024
  354loPI    C2 5650  16.324   1.902  10.095 -0.0122  0.0835  0.0354
  354loPI    C3 5651  16.164   2.041  10.434 -0.0683 -0.0920  0.0821
  354loPI   PO4 5652  15.835   1.612  10.024 -0.3921 -0.0191 -0.0045
  354loPI   GL1 5653  16.007   1.693   9.772 -0.2755 -0.2148 -0.1544
  354loPI   GL2 5654  15.823   1.917   9.647 -0.0990  0.0874 -0.0034
  354loPI   C1A 5655  16.025   1.367   9.439  0.2173 -0.3454 -0.2698
  354loPI   C2A 5656  16.012   1.284   8.979 -0.2320  0.1261 -0.4042
  354loPI   C3A 5657  15.965   1.291   8.566  0.1327 -0.2737  0.3589
  354loPI   C4A 5658  15.941   1.324   8.178  0.1204  0.1398  0.2187
  354loPI   C5A 5659  15.933   1.278   7.761 -0.1012 -0.0296  0.0755
  354loPI   C6A 5660  16.224   1.572   7.543 -0.1435 -0.2378  0.0383
  354loPI   C1B 5661  15.958   1.882   9.239  0.2241  0.0701 -0.0863
  354loPI   C2B 5662  15.902   1.862   8.752 -0.1075  0.2843  0.1034
  354loPI   C3B 5663  16.009   1.781   8.284  0.0260 -0.1658  0.1901
  354loPI   C4B 5664  15.929   1.758   7.919 -0.0012  0.0173  0.1743
  355loPI    C1 5665   4.299  18.069  10.797 -0.0617 -0.2795  0.0247
  355loPI    C2 5666   4.313  18.368  11.062  0.0841 -0.2264 -0.0418
  355loPI    C3 5667   4.170  18.011  11.171  0.0026 -0.1617  0.0656
  355loPI   PO4 5668   4.159  18.107  10.584 -0.1570  0.1276 -0.0446
  355loPI   GL1 5669   4.229  18.293  10.205  0.1753  0.0194  0.3037
  355loPI   GL2 5670   3.844  18.196  10.194  0.0163 -0.1075  0.0277
  355loPI   C1A 5671   4.230  18.263   9.710 -0.2773 -0.0804  0.2855
  355loPI   C2A 5672   4.183  18.225   9.321 -0.0525  0.1406  0.1399
  355loPI   C3A 5673   4.132  18.246   8.903  0.0384 -0.1635  0.1006
  355loPI   C4A 5674   4.220  18.200   8.504 -0.0533 -0.2146 -0.1276
  355loPI   C5A 5675   4.345  18.019   8.073 -0.0855 -0.2396  0.1678
  355loPI   C6A 5676   4.656  18.103   7.709 -0.0650 -0.0270 -0.0665
  355loPI   C1B 5677   3.786  17.910   9.791 -0.2380 -0.1244  0.2752
  355loPI   C2B 5678   3.726  17.975   9.318 -0.2351  0.0460 -0.2143
  355loPI   C3B 5679   3.741  17.889   8.928 -0.0417  0.3084  0.2661
  355loPI   C4B 5680   3.725  18.020   8.486 -0.0376  0.1709 -0.4025
  356loPI    C1 5681  16.805  10.783  10.839  0.3839 -0.0623  0.0130
  356loPI    C2 5682  17.019  11.096  10.967  0.2034  0.0216  0.1132
  356loPI    C3 5683  16.847  10.849  11.231  0.1342 -0.0158  0.0339
  356loPI   PO4 5684  16.753  10.947  10.536  0.1716 -0.0243 -0.0035
  356loPI   GL1 5685  16.835  11.053  10.109 -0.0645 -0.0324  0.2221
  356loPI   GL2 5686  16.677  11.268  10.076 -0.0969 -0.1254 -0.0069
  356loPI   C1A 5687  16.904  11.108   9.682 -0.0129 -0.1139  0.0549
  356loPI   C2A 5688  16.927  11.067   9.282 -0.2057 -0.2853  0.3545
  356loPI   C3A 5689  16.886  11.065   8.850 -0.2063 -0.0101 -0.0770
  356loPI   C4A 5690  16.847  11.039   8.401 -0.1231  0.0433 -0.1782
  356loPI   C5A 5691  16.795  11.059   7.996  0.0920  0.1273  0.1202
  356loPI   C6A 5692  16.582  11.409   7.693 -0.1957  0.0088  0.0389
  356loPI   C1B 5693  16.507  11.368   9.649  0.0805  0.1077 -0.2654
  356loPI   C2B 5694  16.443  11.394   9.183  0.1218  0.1972 -0.0404
  356loPI   C3B 5695  16.408  11.361   8.713 -0.0678 -0.0665 -0.1616
  356loPI   C4B 5696  16.459  11.367   8.345 -0.2314  0.1566  0.2986
  357loPI    C1 5697   2.254   5.277  10.205 -0.1951  0.1266 -0.1745
  357loPI    C2 5698   2.274   4.878  10.197  0.0381  0.1301  0.0766
  357loPI    C3 5699   2.447   5.080  10.495  0.0010  0.4246 -0.0981
  357loPI   PO4 5700   2.207   5.282   9.915 -0.1135  0.0554 -0.0680
  357loPI   GL1 5701   2.247   4.984   9.556  0.0030 -0.1392  0.0723
  357loPI   GL2 5702   2.359   4.748   9.374  0.0722  0.0283 -0.0259
  357loPI   C1A 5703   1.989   5.041   9.156 -0.0855  0.0620  0.2761
  357loPI   C2A 5704   2.041   5.004   8.799 -0.1110 -0.0399  0.0846
  357loPI   C3A 5705   2.112   4.966   8.415 -0.2246 -0.0111  0.4067
  357loPI   C4A 5706   2.135   5.035   8.000 -0.1859 -0.1444  0.1171
  357loPI   C5A 5707   1.978   4.780   7.725 -0.0404 -0.3563  0.0814
  357loPI   C6A 5708   1.631   4.596   7.535  0.0212  0.5210  0.4143
  357loPI   C1B 5709   2.448   4.719   9.016 -0.1476  0.0846 -0.2117
  357loPI   C2B 5710   2.491   4.717   8.542  0.0122 -0.0520 -0.0517
  357loPI   C3B 5711   2.535   4.525   8.135  0.2566 -0.0587 -0.0636
  357loPI   C4B 5712   2.510   4.768   7.680 -0.1663  0.3609 -0.1049
  358loPI    C1 5713  11.677  15.636  10.694  0.1184 -0.1684  0.0031
  358loPI    C2 5714  11.317  15.690  10.860  0.1706  0.0331  0.0535
  358loPI    C3 5715  11.629  15.587  11.088  0.1739 -0.0077  0.0306
  358loPI   PO4 5716  11.746  15.773  10.523  0.0693 -0.0236 -0.4850
  358loPI   GL1 5717  11.649  16.029  10.196  0.1746  0.0848 -0.1883
  358loPI   GL2 5718  12.019  16.145  10.136 -0.0946  0.0257 -0.2351
  358loPI   C1A 5719  11.697  15.956   9.749  0.2333  0.0084 -0.2965
  358loPI   C2A 5720  11.709  15.995   9.340  0.0730  0.1947  0.1014
  358loPI   C3A 5721  11.661  16.003   8.890  0.0194 -0.0224  0.3277
  358loPI   C4A 5722  11.723  16.091   8.448  0.3667  0.3521  0.0461
  358loPI   C5A 5723  11.716  16.202   8.010  0.2073  0.2831 -0.1012
  358loPI   C6A 5724  11.745  16.008   7.643  0.2362 -0.1730  0.0291
  358loPI   C1B 5725  12.289  16.226   9.777 -0.1612 -0.0988  0.1269
  358loPI   C2B 5726  12.192  16.274   9.415 -0.0309  0.4119  0.1491
  358loPI   C3B 5727  12.206  16.228   9.026 -0.0053  0.1147 -0.0342
  358loPI   C4B 5728  12.214  16.314   8.676 -0.0329 -0.2054 -0.1696
  359loPI    C1 5729   1.902  14.011  11.193 -0.0020 -0.0347 -0.0387
  359loPI    C2 5730   2.232  13.885  11.380 -0.0822 -0.0688  0.0811
  359loPI    C3 5731   1.900  13.962  11.590 -0.0982  0.1369 -0.0170
  359loPI   PO4 5732   1.995  14.115  10.978  0.1506 -0.2236  0.0598
  359loPI   GL1 5733   2.059  14.172  10.534  0.1537  0.3807  0.1755
  359loPI   GL2 5734   2.281  13.999  10.430  0.1028 -0.1858 -0.2770
  359loPI   C1A 5735   1.816  13.967  10.276  0.1010 -0.0204  0.1221
  359loPI   C2A 5736   1.734  13.821   9.934 -0.2212 -0.0296 -0.0162
  359loPI   C3A 5737   1.781  13.895   9.599  0.2761  0.1060 -0.0280
  359loPI   C4A 5738   1.668  13.914   9.111 -0.2038  0.0484 -0.4119
  359loPI   C5A 5739   1.545  13.911   8.655  0.1091 -0.0074 -0.0602
  359loPI   C6A 5740   1.455  14.078   8.243 -0.3115 -0.1061 -0.2405
  359loPI   C1B 5741   2.230  14.132   9.967 -0.1215 -0.0806 -0.1513
  359loPI   C2B 5742   2.170  14.144   9.565 -0.3105 -0.1911 -0.1583
  359loPI   C3B 5743   2.188  14.183   9.170  0.0757  0.0960  0.0050
  359loPI   C4B 5744   2.044  14.125   8.737  0.2660  0.2410  0.0239
  360loPI    C1 5745  12.994  17.546  10.965  0.2591  0.2954  0.0606
  360loPI    C2 5746  13.246  17.856  10.968  0.3215  0.2454  0.0039
  360loPI    C3 5747  13.371  17.496  11.089  0.2436  0.2465  0.0882
  360loPI   PO4 5748  12.827  17.626  10.782 -0.2375 -0.2333  0.1053
  360loPI   GL1 5749  12.774  17.524  10.328 -0.0864 -0.3495 -0.5730
  360loPI   GL2 5750  12.868  17.240  10.326 -0.0936  0.2103 -0.0836
  360loPI   C1A 5751  12.674  17.471   9.806 -0.1557 -0.1626  0.4430
  360loPI   C2A 5752  12.691  17.518   9.359  0.0179  0.1694  0.2785
  360loPI   C3A 5753  12.704  17.506   8.999 -0.1822  0.2263 -0.4547
  360loPI   C4A 5754  12.742  17.599   8.620  0.0311 -0.2082 -0.0619
  360loPI   C5A 5755  12.542  17.739   8.201 -0.1647 -0.0200  0.1772
  360loPI   C6A 5756  12.576  17.676   7.776 -0.1787 -0.0891  0.0155
  360loPI   C1B 5757  13.190  17.293  10.019  0.0591  0.3936  0.0424
  360loPI   C2B 5758  13.108  17.206   9.572 -0.2419 -0.2437 -0.1713
  360loPI   C3B 5759  13.134  17.291   9.207  0.2711  0.3881 -0.2497
  360loPI   C4B 5760  13.131  17.374   8.753 -0.0915 -0.0680 -0.1513
  361loPI    C1 5761  16.881  17.660  11.047 -0.0566 -0.0073 -0.1294
  361loPI    C2 5762  17.084  17.978  11.180 -0.2689  0.1569 -0.1928
  361loPI    C3 5763  16.791  17.821  11.402  0.1586 -0.3051  0.0649
  361loPI   PO4 5764  16.759  17.659  10.826 -0.0790 -0.3287 -0.0171
  361loPI   GL1 5765  16.710  17.581  10.441 -0.3420  0.1606  0.1281
  361loPI   GL2 5766  16.654  17.321  10.440  0.0152 -0.1311 -0.1047
  361loPI   C1A 5767  16.750  17.683  10.073  0.0595  0.1953 -0.0566
  361loPI   C2A 5768  16.779  17.612   9.522 -0.0388  0.0354 -0.0821
  361loPI   C3A 5769  16.813  17.527   9.020 -0.3303 -0.1170 -0.2363
  361loPI   C4A 5770  16.605  17.606   8.690  0.2418  0.1296  0.0552
  361loPI   C5A 5771  16.531  17.426   8.292  0.2107  0.0883  0.3079
  361loPI   C6A 5772  16.525  17.261   7.900  0.0489  0.1929 -0.0736
  361loPI   C1B 5773  16.685  17.173  10.056 -0.1456 -0.1969  0.1483
  361loPI   C2B 5774  16.653  17.131   9.583 -0.0234 -0.1815 -0.0151
  361loPI   C3B 5775  16.755  17.077   9.206 -0.1029 -0.0846  0.5720
  361loPI   C4B 5776  16.683  17.059   8.769 -0.2934 -0.1157  0.1057
  362loPI    C1 5777   6.103  16.323  10.941 -0.0198  0.0226  0.2604
  362loPI    C2 5778   6.099  16.497  11.301  0.0601  0.0036  0.2706
  362loPI    C3 5779   6.447  16.424  11.119  0.0139  0.1813  0.1078
  362loPI   PO4 5780   5.929  16.387  10.766 -0.1232  0.2276 -0.0497
  362loPI   GL1 5781   5.793  16.329  10.267  0.0075 -0.1845 -0.0862
  362loPI   GL2 5782   5.902  16.660  10.250  0.1536 -0.1627  0.0338
  362loPI   C1A 5783   5.724  16.036   9.957 -0.1096  0.1827  0.0126
  362loPI   C2A 5784   5.864  15.903   9.534  0.0016  0.2402  0.0125
  362loPI   C3A 5785   5.932  16.072   9.131  0.1238 -0.1316  0.2062
  362loPI   C4A 5786   5.895  16.073   8.645  0.2006 -0.4575  0.1007
  362loPI   C5A 5787   5.877  16.273   8.296 -0.2939 -0.1315  0.0992
  362loPI   C6A 5788   6.196  16.376   7.907 -0.0974 -0.0178 -0.2116
  362loPI   C1B 5789   5.906  16.611   9.796  0.4124  0.1163  0.1004
  362loPI   C2B 5790   5.926  16.568   9.280 -0.0157 -0.0349  0.3138
  362loPI   C3B 5791   5.945  16.581   8.799  0.1244 -0.1178  0.0880
  362loPI   C4B 5792   5.905  16.738   8.363  0.0541 -0.0807 -0.0420
  363loPI    C1 5793   9.611  10.757  11.048 -0.0187  0.0543  0.1022
  363loPI    C2 5794   9.821  10.600  11.350  0.1925  0.0338 -0.0528
  363loPI    C3 5795   9.433  10.684  11.398  0.1365 -0.3016  0.1117
  363loPI   PO4 5796   9.660  10.622  10.815 -0.2805  0.0260 -0.4154
  363loPI   GL1 5797   9.513  10.584  10.393  0.0639 -0.0291  0.0541
  363loPI   GL2 5798   9.817  10.470  10.203 -0.2727  0.2268 -0.1460
  363loPI   C1A 5799   9.327  10.659  10.110 -0.1336  0.1607  0.1182
  363loPI   C2A 5800   9.261  10.507   9.669 -0.2023  0.2069 -0.0684
  363loPI   C3A 5801   9.217  10.505   9.313  0.1122  0.0670  0.1025
  363loPI   C4A 5802   9.247  10.698   8.946 -0.0232 -0.2471 -0.2382
  363loPI   C5A 5803   9.209  10.672   8.472 -0.0887  0.1839 -0.0640
  363loPI   C6A 5804   9.437  10.620   8.106  0.0513  0.0712  0.0961
  363loPI   C1B 5805  10.022  10.550   9.808  0.1489  0.0730 -0.0346
  363loPI   C2B 5806  10.017  10.611   9.295 -0.2702  0.0017  0.1640
  363loPI   C3B 5807  10.175  10.554   8.988 -0.0007  0.0646  0.1018
  363loPI   C4B 5808  10.153  10.600   8.494  0.3866 -0.1786 -0.2165
  364loPI    C1 5809   2.443   2.422  10.512 -0.0798 -0.2813  0.1406
  364loPI    C2 5810   2.459   2.621  10.859 -0.0236 -0.1535  0.0655
  364loPI    C3 5811   2.200   2.319  10.813 -0.1511 -0.0597  0.1604
  364loPI   PO4 5812   2.628   2.311  10.398  0.2208  0.0552  0.2585
  364loPI   GL1 5813   2.872   2.146  10.106 -0.3254 -0.0394 -0.1055
  364loPI   GL2 5814   3.086   1.811  10.011 -0.0342  0.0744 -0.1655
  364loPI   C1A 5815   2.931   2.246   9.681 -0.1747  0.1107 -0.1013
  364loPI   C2A 5816   2.843   2.280   9.289  0.2968  0.0706 -0.0663
  364loPI   C3A 5817   2.942   2.249   8.832 -0.2767  0.1320 -0.0926
  364loPI   C4A 5818   2.838   2.169   8.402  0.0564 -0.0045  0.3701
  364loPI   C5A 5819   2.848   1.930   8.003 -0.1273  0.0796 -0.0542
  364loPI   C6A 5820   2.960   1.482   7.893  0.2300  0.0320  0.2759
  364loPI   C1B 5821   3.356   2.021   9.852  0.0924 -0.1782 -0.0863
  364loPI   C2B 5822   3.444   1.898   9.519 -0.0533 -0.0339  0.1089
  364loPI   C3B 5823   3.502   1.857   9.130  0.0874 -0.1561 -0.2111
  364loPI   C4B 5824   3.446   1.999   8.667  0.0195  0.0752 -0.1957
  365loPI    C1 5825   3.714   3.695  10.589  0.1076  0.1310  0.2152
  365loPI    C2 5826   3.642   3.535  10.948 -0.0063  0.3914  0.3107
  365loPI    C3 5827   3.698   3.929  10.913  0.0110  0.3666  0.0429
  365loPI   PO4 5828   3.822   3.408  10.416 -0.2777  0.0070 -0.5951
  365loPI   GL1 5829   4.061   3.241  10.096 -0.3871 -0.1183 -0.1772
  365loPI   GL2 5830   3.905   3.283   9.962 -0.3051 -0.0332  0.3517
  365loPI   C1A 5831   4.233   3.046   9.643  0.1179  0.0526  0.1931
  365loPI   C2A 5832   4.416   2.902   9.209  0.1256  0.1870 -0.2751
  365loPI   C3A 5833   4.312   2.973   8.738 -0.1547  0.1240 -0.0480
  365loPI   C4A 5834   4.226   3.005   8.343  0.1121  0.1182  0.1506
  365loPI   C5A 5835   4.254   2.747   8.049 -0.2659  0.1773 -0.1501
  365loPI   C6A 5836   4.321   2.384   7.726 -0.1822 -0.1300 -0.1096
  365loPI   C1B 5837   4.162   3.597   9.579  0.3254 -0.0862 -0.0158
  365loPI   C2B 5838   4.326   3.455   9.291  0.3039  0.0989  0.2490
  365loPI   C3B 5839   4.389   3.423   8.816  0.0781  0.4261  0.2313
  365loPI   C4B 5840   4.350   3.463   8.354 -0.3074 -0.0154 -0.2011
  366loPI    C1 5841   7.442   2.562  10.781  0.0804  0.0083  0.0174
  366loPI    C2 5842   7.745   2.503  11.036  0.0513  0.1312  0.0813
  366loPI    C3 5843   7.382   2.598  11.175 -0.1086 -0.3719  0.0276
  366loPI   PO4 5844   7.663   2.712  10.483  0.0786 -0.4809 -0.3109
  366loPI   GL1 5845   7.600   3.034  10.084 -0.0158 -0.1964 -0.0732
  366loPI   GL2 5846   7.766   2.803   9.946  0.1012 -0.0320  0.5702
  366loPI   C1A 5847   7.415   3.196   9.730 -0.1643  0.2791  0.2180
  366loPI   C2A 5848   7.417   3.053   9.236 -0.0097 -0.1990 -0.3598
  366loPI   C3A 5849   7.394   3.108   8.839  0.3668 -0.3336  0.0574
  366loPI   C4A 5850   7.503   3.025   8.412 -0.1262  0.0697 -0.0334
  366loPI   C5A 5851   7.427   3.475   8.171 -0.0794 -0.1301  0.1591
  366loPI   C6A 5852   7.503   3.714   7.798  0.0719 -0.1710 -0.2833
  366loPI   C1B 5853   7.844   2.808   9.457  0.0403  0.1849  0.0504
  366loPI   C2B 5854   7.884   2.801   9.099  0.2338 -0.1295  0.2013
  366loPI   C3B 5855   7.877   2.791   8.663 -0.1785 -0.3253 -0.2372
  366loPI   C4B 5856   8.025   2.580   8.253 -0.0862 -0.2598  0.2343
  367loPI    C1 5857   3.833   5.656  10.528 -0.1152 -0.2220 -0.0699
  367loPI    C2 5858   3.924   5.786  10.895  0.3054  0.1823 -0.3070
  367loPI    C3 5859   4.074   5.440  10.764 -0.0569 -0.0949 -0.0117
  367loPI   PO4 5860   3.877   5.855  10.344  0.0518 -0.1676 -0.3017
  367loPI   GL1 5861   3.878   6.029   9.944 -0.2703 -0.0159  0.0328
  367loPI   GL2 5862   3.743   6.281   9.887 -0.1925 -0.0308  0.3197
  367loPI   C1A 5863   3.853   5.870   9.513  0.2787 -0.1580 -0.0430
  367loPI   C2A 5864   3.826   5.913   9.103 -0.0764 -0.0316 -0.1978
  367loPI   C3A 5865   3.834   5.808   8.587 -0.0203  0.2094  0.2610
  367loPI   C4A 5866   3.871   5.954   8.167 -0.1413 -0.2230 -0.1790
  367loPI   C5A 5867   3.856   5.725   7.724  0.3414 -0.2414 -0.2155
  367loPI   C6A 5868   4.045   5.499   7.360  0.1338  0.3003 -0.1218
  367loPI   C1B 5869   3.869   6.332   9.428  0.0309 -0.3071 -0.1307
  367loPI   C2B 5870   3.837   6.461   9.039 -0.2036  0.0806  0.4310
  367loPI   C3B 5871   3.896   6.428   8.640  0.4302  0.0821  0.0096
  367loPI   C4B 5872   3.986   6.439   8.224  0.1727 -0.1950 -0.3634
  368loPI    C1 5873  15.089   7.000  10.348  0.0025 -0.0166  0.1545
  368loPI    C2 5874  14.823   6.727  10.467 -0.1067 -0.0057 -0.0597
  368loPI    C3 5875  14.756   7.115  10.538 -0.0823 -0.0133  0.0054
  368loPI   PO4 5876  15.115   6.919  10.050  0.4121  0.0691  0.1749
  368loPI   GL1 5877  15.227   7.157   9.695  0.1129 -0.1223 -0.1495
  368loPI   GL2 5878  14.851   7.048   9.675 -0.0067 -0.1076 -0.0611
  368loPI   C1A 5879  15.356   7.145   9.327 -0.0598  0.1242  0.1524
  368loPI   C2A 5880  15.309   7.075   8.911  0.0243 -0.5138 -0.0368
  368loPI   C3A 5881  15.427   7.006   8.475  0.1773  0.1778 -0.2153
  368loPI   C4A 5882  15.401   7.227   8.111 -0.1445  0.3701  0.2268
  368loPI   C5A 5883  15.338   7.275   7.681 -0.0080 -0.2660  0.0668
  368loPI   C6A 5884  15.205   7.066   7.304 -0.0029 -0.0875 -0.1099
  368loPI   C1B 5885  14.891   6.989   9.245  0.1027 -0.2173 -0.2087
  368loPI   C2B 5886  14.844   6.891   8.697  0.1117 -0.0805 -0.1415
  368loPI   C3B 5887  14.917   6.878   8.308  0.1967 -0.0567 -0.0171
  368loPI   C4B 5888  15.002   7.015   7.908 -0.0424 -0.0895 -0.0144
  369loPI    C1 5889   0.054   6.203   9.898 -0.0274 -0.1246 -0.1334
  369loPI    C2 5890  -0.019   6.057  10.263  0.1741 -0.0879 -0.0773
  369loPI    C3 5891  -0.008   6.453  10.204 -0.0034 -0.0937 -0.1536
  369loPI   PO4 5892  -0.121   6.109   9.737  0.4001  0.3113 -0.1255
  369loPI   GL1 5893  -0.409   5.846   9.495  0.3423  0.0059 -0.0430
  369loPI   GL2 5894  -0.454   5.547   9.606  0.1370 -0.2065 -0.1802
  369loPI   C1A 5895  -0.308   6.055   9.087 -0.0861 -0.0162  0.1817
  369loPI   C2A 5896  -0.357   6.027   8.730  0.0008 -0.1347 -0.1074
  369loPI   C3A 5897  -0.285   5.967   8.293 -0.0277  0.0430  0.0260
  369loPI   C4A 5898  -0.473   5.970   8.018 -0.0823 -0.3111 -0.0797
  369loPI   C5A 5899  -0.425   5.845   7.717  0.1701 -0.1649  0.0116
  369loPI   C6A 5900  -0.478   5.725   7.352  0.0838  0.3150  0.1679
  369loPI   C1B 5901  -0.295   5.522   9.105  0.2387 -0.2169  0.0815
  369loPI   C2B 5902  -0.372   5.437   8.633 -0.1189 -0.1590  0.0448
  369loPI   C3B 5903  -0.349   5.483   8.146  0.1005 -0.1120  0.0779
  369loPI   C4B 5904  -0.463   5.354   7.793 -0.1521  0.4490  0.0700
  370loPI    C1 5905   3.738   8.856  10.882 -0.0277 -0.0345  0.0851
  370loPI    C2 5906   3.720   8.658  10.534  0.2321 -0.1188  0.1173
  370loPI    C3 5907   3.916   8.499  10.845  0.0182 -0.0348  0.2979
  370loPI   PO4 5908   3.447   9.030  10.762 -0.2682  0.0561  0.4131
  370loPI   GL1 5909   3.458   9.173  10.446  0.1187 -0.0237 -0.2432
  370loPI   GL2 5910   3.711   9.291  10.211 -0.0566 -0.2141 -0.0782
  370loPI   C1A 5911   3.233   9.069  10.153 -0.0569  0.0536  0.2825
  370loPI   C2A 5912   3.239   9.046   9.646  0.2227 -0.2829  0.1084
  370loPI   C3A 5913   3.304   8.995   9.195  0.2582 -0.1605 -0.0622
  370loPI   C4A 5914   3.193   9.115   8.795 -0.0077 -0.2306 -0.0011
  370loPI   C5A 5915   3.182   9.085   8.304  0.1282 -0.2345 -0.4204
  370loPI   C6A 5916   3.311   9.219   7.858 -0.1672 -0.3223  0.0653
  370loPI   C1B 5917   3.797   9.208   9.833  0.0529  0.1764 -0.0324
  370loPI   C2B 5918   3.651   9.277   9.334 -0.1257 -0.3084  0.0008
  370loPI   C3B 5919   3.767   9.335   8.955 -0.0934  0.2999  0.1093
  370loPI   C4B 5920   3.738   9.373   8.541 -0.2249  0.0904  0.2507
  371loPI    C1 5921   7.757   5.497  10.923  0.2611 -0.0616  0.3079
  371loPI    C2 5922   7.757   5.884  11.022  0.0687  0.0576 -0.1340
  371loPI    C3 5923   7.471   5.643  11.162  0.0252  0.1372 -0.0850
  371loPI   PO4 5924   7.811   5.484  10.707  0.0482  0.2012  0.3967
  371loPI   GL1 5925   7.760   5.445  10.308  0.1616  0.1237  0.1050
  371loPI   GL2 5926   7.425   5.341  10.224  0.2280 -0.0485  0.0808
  371loPI   C1A 5927   8.066   5.445   9.922 -0.0116  0.1861  0.0697
  371loPI   C2A 5928   8.121   5.480   9.490 -0.1190  0.1616  0.1221
  371loPI   C3A 5929   8.113   5.404   9.012  0.3904 -0.1093 -0.1507
  371loPI   C4A 5930   8.110   5.448   8.601  0.1411 -0.0970  0.1132
  371loPI   C5A 5931   8.026   5.163   8.277 -0.1997 -0.0366  0.0913
  371loPI   C6A 5932   8.120   4.863   7.927  0.3409  0.0042  0.5996
  371loPI   C1B 5933   7.617   5.266   9.797 -0.2527  0.0071  0.1618
  371loPI   C2B 5934   7.629   5.237   9.310  0.1046 -0.4381  0.0687
  371loPI   C3B 5935   7.583   5.275   8.880 -0.1690  0.0268  0.1909
  371loPI   C4B 5936   7.498   5.024   8.443 -0.2170  0.1895 -0.1380
  372loPI    C1 5937   5.064   3.938  10.565  0.0542  0.1472 -0.0121
  372loPI    C2 5938   4.889   4.261  10.722 -0.1030  0.0389  0.0382
  372loPI    C3 5939   5.122   4.029  10.950 -0.1441  0.0107  0.0517
  372loPI   PO4 5940   5.093   4.024  10.341 -0.1335 -0.0403  0.1406
  372loPI   GL1 5941   5.149   3.881   9.854  0.2506  0.1140 -0.3368
  372loPI   GL2 5942   5.267   4.244   9.796 -0.0105 -0.1905 -0.2362
  372loPI   C1A 5943   5.185   3.913   9.361 -0.0528 -0.3401  0.2227
  372loPI   C2A 5944   5.247   3.849   8.924  0.0295 -0.2012  0.0201
  372loPI   C3A 5945   5.249   3.976   8.463  0.0477 -0.1622 -0.0755
  372loPI   C4A 5946   5.262   3.838   8.011 -0.0445 -0.0877  0.2075
  372loPI   C5A 5947   5.482   3.543   7.702 -0.0031 -0.0952  0.0445
  372loPI   C6A 5948   5.402   3.159   7.359  0.3356 -0.1738  0.2285
  372loPI   C1B 5949   5.578   4.133   9.609  0.0382  0.4733  0.0469
  372loPI   C2B 5950   5.679   4.159   9.214  0.1436  0.4143 -0.3632
  372loPI   C3B 5951   5.752   3.999   8.787 -0.0480  0.0773  0.0882
  372loPI   C4B 5952   5.775   4.157   8.319 -0.0189 -0.1075  0.0748
  373loPI    C1 5953  10.817   3.141  10.732  0.2981 -0.1073  0.1403
  373loPI    C2 5954  10.512   2.899  10.638  0.1893  0.1348 -0.1433
  373loPI    C3 5955  10.450   3.217  10.873  0.2415  0.1338 -0.1282
  373loPI   PO4 5956  10.872   3.270  10.498  0.0739  0.0810 -0.0975
  373loPI   GL1 5957  11.085   3.219  10.133  0.1078  0.1103  0.0418
  373loPI   GL2 5958  11.121   2.862   9.934  0.1036  0.1560  0.1495
  373loPI   C1A 5959  11.108   3.401   9.763 -0.0398 -0.0888  0.0549
  373loPI   C2A 5960  11.117   3.409   9.251 -0.0972  0.1384 -0.2545
  373loPI   C3A 5961  11.097   3.441   8.823  0.0928  0.3717  0.2292
  373loPI   C4A 5962  11.057   3.348   8.360 -0.0560 -0.1605  0.0576
  373loPI   C5A 5963  11.035   3.734   8.040 -0.1565  0.1368  0.1702
  373loPI   C6A 5964  10.754   3.743   7.652  0.0354 -0.2410  0.0177
  373loPI   C1B 5965  11.103   2.920   9.509 -0.0473  0.0211 -0.2420
  373loPI   C2B 5966  11.116   2.870   9.056 -0.1418  0.2125 -0.0840
  373loPI   C3B 5967  11.063   2.909   8.636  0.2792  0.2629 -0.2094
  373loPI   C4B 5968  11.153   2.853   8.200  0.1775  0.1659 -0.3051
  374loPI    C1 5969   9.742   6.071  10.964 -0.0160 -0.0114  0.1683
  374loPI    C2 5970   9.806   5.677  10.977  0.1564  0.0088 -0.0159
  374loPI    C3 5971   9.947   5.912  11.268  0.1539 -0.0512  0.0340
  374loPI   PO4 5972   9.767   6.098  10.687  0.1144  0.1413  0.0219
  374loPI   GL1 5973   9.897   5.894  10.269  0.2368  0.4834  0.3010
  374loPI   GL2 5974   9.581   5.760  10.421 -0.0892 -0.0411 -0.0498
  374loPI   C1A 5975   9.835   5.983   9.889 -0.2162 -0.1383 -0.1749
  374loPI   C2A 5976   9.859   5.877   9.441 -0.1639  0.0105  0.1796
  374loPI   C3A 5977   9.889   5.909   8.985 -0.1545  0.0015 -0.3029
  374loPI   C4A 5978   9.914   5.816   8.566  0.2228  0.0196 -0.0655
  374loPI   C5A 5979   9.949   5.690   8.051  0.0185 -0.4765  0.4938
  374loPI   C6A 5980   9.953   5.361   7.817  0.1641  0.0361  0.0499
  374loPI   C1B 5981   9.389   5.698   9.989 -0.0402  0.1525  0.0939
  374loPI   C2B 5982   9.370   5.624   9.590  0.1899 -0.1983 -0.2505
  374loPI   C3B 5983   9.481   5.682   9.138  0.0446 -0.1363 -0.1261
  374loPI   C4B 5984   9.456   5.572   8.650 -0.0105 -0.0978 -0.0989
  375loPI    C1 5985   9.668   6.603  11.067 -0.1851 -0.1673 -0.0613
  375loPI    C2 5986  10.029   6.773  11.094 -0.1761 -0.1861 -0.0623
  375loPI    C3 5987   9.978   6.393  11.208 -0.1693 -0.2213 -0.1756
  375loPI   PO4 5988   9.585   6.554  10.817 -0.1338  0.1208  0.0110
  375loPI   GL1 5989   9.583   6.654  10.375  0.0256  0.0259  0.2777
  375loPI   GL2 5990   9.745   6.385  10.300 -0.1420  0.0059 -0.0090
  375loPI   C1A 5991   9.415   6.679   9.916  0.0761 -0.1425  0.1171
  375loPI   C2A 5992   9.382   6.697   9.561 -0.1136  0.2203  0.3743
  375loPI   C3A 5993   9.423   6.697   9.104 -0.0254  0.2750 -0.0122
  375loPI   C4A 5994   9.578   6.664   8.697  0.1260  0.3957  0.5831
  375loPI   C5A 5995   9.471   6.646   8.248 -0.3039 -0.1135  0.0425
  375loPI   C6A 5996   9.750   6.808   7.871  0.0944 -0.1438  0.0996
  375loPI   C1B 5997   9.909   6.508   9.915  0.0012  0.5443 -0.0813
  375loPI   C2B 5998   9.811   6.426   9.519 -0.2224 -0.1823  0.1897
  375loPI   C3B 5999   9.842   6.414   9.064 -0.0075 -0.1131 -0.0953
  375loPI   C4B 6000   9.919   6.325   8.623  0.1258 -0.1198  0.2134
  376loPI    C1 6001  16.160  12.599  10.964 -0.0443  0.1236 -0.0202
  376loPI    C2 6002  15.880  12.432  11.196 -0.1368  0.2659 -0.0282
  376loPI    C3 6003  16.164  12.662  11.359  0.0911 -0.0330  0.0045
  376loPI   PO4 6004  16.111  12.598  10.749 -0.0111  0.2754 -0.1813
  376loPI   GL1 6005  15.942  12.815  10.368  0.1890 -0.0572  0.0884
  376loPI   GL2 6006  16.185  12.837  10.315  0.3401  0.2637 -0.1216
  376loPI   C1A 6007  15.676  12.964  10.088 -0.0086 -0.1040 -0.0757
  376loPI   C2A 6008  15.546  13.031   9.664 -0.1569 -0.0334 -0.0708
  376loPI   C3A 6009  15.592  12.965   9.268 -0.1355 -0.1184  0.0642
  376loPI   C4A 6010  15.693  12.889   8.849  0.0869  0.1149  0.0539
  376loPI   C5A 6011  15.719  12.862   8.449 -0.0422  0.0666  0.4819
  376loPI   C6A 6012  15.517  12.887   8.042 -0.2248  0.1367 -0.0490
  376loPI   C1B 6013  16.058  12.742   9.888 -0.1656  0.3207 -0.3252
  376loPI   C2B 6014  16.082  12.699   9.387  0.0869  0.4913  0.1039
  376loPI   C3B 6015  16.120  12.673   9.008 -0.1187 -0.1485 -0.3066
  376loPI   C4B 6016  16.039  12.555   8.636  0.3860 -0.0550 -0.3226
  377loPI    C1 6017  14.952   3.128  10.411 -0.2595  0.0109  0.2104
  377loPI    C2 6018  15.164   3.312  10.697 -0.0531  0.3445 -0.1478
  377loPI    C3 6019  14.801   3.448  10.598 -0.0774  0.2983 -0.1223
  377loPI   PO4 6020  15.069   3.167  10.204 -0.0725 -0.0701 -0.1413
  377loPI   GL1 6021  15.157   3.388   9.696 -0.0976 -0.1475  0.1358
  377loPI   GL2 6022  14.829   3.282   9.735 -0.0522  0.1402 -0.3381
  377loPI   C1A 6023  15.136   3.448   9.215 -0.1576  0.0656 -0.2732
  377loPI   C2A 6024  15.220   3.448   8.845 -0.1341 -0.1750  0.0876
  377loPI   C3A 6025  15.209   3.435   8.373 -0.0452  0.0189  0.2802
  377loPI   C4A 6026  15.241   3.406   7.908 -0.1319 -0.1304 -0.0775
  377loPI   C5A 6027  15.308   3.278   7.546 -0.0084  0.1277 -0.0269
  377loPI   C6A 6028  15.488   3.302   7.190 -0.1344 -0.1788  0.0088
  377loPI   C1B 6029  14.752   3.197   9.366  0.1799  0.1622 -0.0076
  377loPI   C2B 6030  14.723   3.103   8.894 -0.0539 -0.3233  0.1538
  377loPI   C3B 6031  14.786   3.248   8.521 -0.0770 -0.0680 -0.1454
  377loPI   C4B 6032  14.813   3.117   8.101 -0.1667 -0.1911 -0.1714
  378loPI    C1 6033   1.589  11.883  10.968 -0.1976  0.0706  0.0661
  378loPI    C2 6034   1.882  12.082  11.154 -0.0806 -0.1917  0.1664
  378loPI    C3 6035   1.513  12.078  11.309 -0.1355  0.1207  0.0516
  378loPI   PO4 6036   1.572  11.990  10.731 -0.1554 -0.0366 -0.1056
  378loPI   GL1 6037   1.697  11.940  10.294  0.3396  0.1808 -0.1779
  378loPI   GL2 6038   1.628  12.205  10.177  0.0148 -0.2271 -0.0006
  378loPI   C1A 6039   1.521  11.831   9.854 -0.2739  0.4205  0.4120
  378loPI   C2A 6040   1.633  11.709   9.380  0.2503 -0.3619  0.1016
  378loPI   C3A 6041   1.632  11.817   8.942 -0.0374 -0.4445 -0.0963
  378loPI   C4A 6042   1.672  11.779   8.562  0.0476  0.1682  0.3511
  378loPI   C5A 6043   1.818  11.807   8.189  0.0002 -0.2930 -0.1253
  378loPI   C6A 6044   1.833  12.045   7.825 -0.0955  0.0614  0.1051
  378loPI   C1B 6045   1.672  12.237   9.676 -0.2420  0.0766  0.1088
  378loPI   C2B 6046   1.612  12.240   9.212 -0.1124  0.2038  0.2266
  378loPI   C3B 6047   1.644  12.354   8.723 -0.0865  0.2411  0.2463
  378loPI   C4B 6048   1.862  12.341   8.355 -0.0684  0.0037 -0.0157
  379loPI    C1 6049  10.099  14.300  11.215  0.0776  0.0124 -0.3560
  379loPI    C2 6050  10.389  14.552  11.328 -0.2561  0.2819 -0.0777
  379loPI    C3 6051  10.352  14.196  11.507  0.1138  0.0961 -0.3573
  379loPI   PO4 6052   9.919  14.470  11.022  0.0642  0.1706 -0.0725
  379loPI   GL1 6053  10.067  14.485  10.610  0.0520  0.0964 -0.1097
  379loPI   GL2 6054  10.231  14.759  10.365 -0.3035  0.1331 -0.0006
  379loPI   C1A 6055  10.207  14.281  10.203  0.0295 -0.3397 -0.0597
  379loPI   C2A 6056  10.320  14.200   9.801 -0.0051  0.0765  0.1692
  379loPI   C3A 6057  10.251  14.230   9.412  0.1280 -0.0202 -0.4318
  379loPI   C4A 6058  10.336  14.273   9.016  0.0290  0.2627 -0.1774
  379loPI   C5A 6059  10.263  14.173   8.535  0.1765  0.0656 -0.0234
  379loPI   C6A 6060  10.492  13.850   8.259  0.1833  0.2004 -0.1349
  379loPI   C1B 6061  10.395  14.722   9.985  0.0900  0.1613 -0.1113
  379loPI   C2B 6062  10.423  14.679   9.563 -0.1813  0.4057  0.0802
  379loPI   C3B 6063  10.296  14.717   9.215  0.3334  0.1230  0.0358
  379loPI   C4B 6064  10.184  14.700   8.700  0.4004  0.1293  0.2659
  380loPI    C1 6065   0.318  13.116  10.977  0.1061  0.1641 -0.0294
  380loPI    C2 6066   0.206  12.732  10.975  0.0127  0.1911 -0.1252
  380loPI    C3 6067   0.187  12.944  11.313 -0.0249  0.1372 -0.0932
  380loPI   PO4 6068   0.439  13.191  10.804 -0.1154 -0.2956 -0.2041
  380loPI   GL1 6069   0.503  13.497  10.480  0.4555  0.1016 -0.1443
  380loPI   GL2 6070   0.507  13.254  10.259  0.1334 -0.3610 -0.0013
  380loPI   C1A 6071   0.365  13.702  10.111 -0.2280 -0.0736 -0.1370
  380loPI   C2A 6072   0.346  13.739   9.572 -0.3536 -0.0266 -0.3248
  380loPI   C3A 6073   0.286  13.609   9.165  0.1340 -0.0060 -0.2023
  380loPI   C4A 6074   0.261  13.723   8.799  0.3546  0.4449  0.1515
  380loPI   C5A 6075   0.452  13.694   8.393  0.0084 -0.1285  0.0921
  380loPI   C6A 6076   0.527  13.593   8.084  0.3997 -0.1514  0.0447
  380loPI   C1B 6077   0.389  13.278   9.823 -0.1302 -0.0490 -0.3699
  380loPI   C2B 6078   0.294  13.159   9.385 -0.0690  0.0353  0.0799
  380loPI   C3B 6079   0.308  13.169   8.944  0.2103 -0.0835 -0.0898
  380loPI   C4B 6080   0.372  13.209   8.511  0.0981  0.0907 -0.3245
  381loPI    C1 6081   3.987   1.503  10.410 -0.1060  0.1658 -0.2142
  381loPI    C2 6082   3.754   1.184  10.470 -0.0004  0.1251 -0.0101
  381loPI    C3 6083   3.662   1.448  10.184 -0.1317 -0.0459 -0.1278
  381loPI   PO4 6084   4.199   1.414  10.370  0.2324 -0.1218  0.1676
  381loPI   GL1 6085   4.275   1.092  10.064 -0.0165 -0.0974  0.1064
  381loPI   GL2 6086   4.254   0.862   9.860 -0.3318  0.0729 -0.3030
  381loPI   C1A 6087   4.311   1.313   9.736  0.0013  0.2538  0.0962
  381loPI   C2A 6088   4.347   1.377   9.269 -0.1925  0.1580  0.3147
  381loPI   C3A 6089   4.287   1.388   8.758 -0.0275  0.3067 -0.0635
  381loPI   C4A 6090   4.315   1.467   8.333 -0.0261  0.2192 -0.0110
  381loPI   C5A 6091   4.189   1.534   7.978 -0.6867 -0.1972 -0.0688
  381loPI   C6A 6092   4.160   1.399   7.529 -0.2034 -0.0136  0.1477
  381loPI   C1B 6093   4.310   0.883   9.399 -0.2430 -0.1599  0.1867
  381loPI   C2B 6094   4.333   0.931   8.997 -0.1203 -0.0831  0.3421
  381loPI   C3B 6095   4.223   0.890   8.571 -0.1052  0.0586 -0.3851
  381loPI   C4B 6096   4.229   0.951   8.213 -0.1980 -0.1426  0.0534
  382loPI    C1 6097   0.091  15.577  11.043  0.0278  0.1595 -0.1300
  382loPI    C2 6098   0.053  15.787  10.705 -0.1819  0.1093 -0.1390
  382loPI    C3 6099  -0.268  15.714  10.932 -0.0723 -0.0101 -0.0209
  382loPI   PO4 6100   0.252  15.311  10.978  0.0516 -0.1933 -0.3150
  382loPI   GL1 6101   0.341  15.293  10.518  0.2939 -0.1036  0.0602
  382loPI   GL2 6102   0.725  15.286  10.523  0.2137 -0.1155 -0.2724
  382loPI   C1A 6103   0.446  15.284  10.054 -0.0572  0.0239 -0.2176
  382loPI   C2A 6104   0.486  15.156   9.703  0.0488 -0.0653  0.1971
  382loPI   C3A 6105   0.362  15.154   9.251 -0.0097  0.0454  0.1553
  382loPI   C4A 6106   0.481  15.259   8.837 -0.2844 -0.1097  0.1135
  382loPI   C5A 6107   0.679  15.116   8.480 -0.2872 -0.3232  0.1036
  382loPI   C6A 6108   0.801  15.469   8.301  0.0236  0.1770  0.0495
  382loPI   C1B 6109   0.847  15.018  10.153  0.0333  0.2535 -0.1200
  382loPI   C2B 6110   0.944  15.108   9.826  0.0208  0.1225  0.1906
  382loPI   C3B 6111   0.909  14.975   9.395  0.1613 -0.0621  0.0605
  382loPI   C4B 6112   0.857  14.887   8.901 -0.0065  0.2982 -0.3462
  383loPI    C1 6113  17.095   5.790  10.084  0.1192 -0.5005 -0.1579
  383loPI    C2 6114  17.488   5.730  10.122  0.1697 -0.0323  0.1390
  383loPI    C3 6115  17.266   5.814  10.444 -0.0682  0.2895 -0.1026
  383loPI   PO4 6116  17.040   5.691   9.853  0.0116 -0.2664 -0.0972
  383loPI   GL1 6117  17.017   5.714   9.417 -0.3392 -0.0300 -0.0036
  383loPI   GL2 6118  17.062   6.003   9.386 -0.1198  0.0842 -0.1599
  383loPI   C1A 6119  17.139   5.538   9.097  0.0671  0.1828 -0.0960
  383loPI   C2A 6120  17.116   5.468   8.632  0.0876 -0.1434  0.2419
  383loPI   C3A 6121  17.207   5.507   8.194  0.1127  0.0849  0.0301
  383loPI   C4A 6122  17.088   5.499   7.750 -0.1265  0.0484  0.0876
  383loPI   C5A 6123  16.866   5.658   7.409 -0.2086 -0.2272  0.4071
  383loPI   C6A 6124  16.823   6.009   7.216  0.2017  0.0941  0.2313
  383loPI   C1B 6125  17.107   6.008   8.930 -0.0735 -0.0422 -0.1248
  383loPI   C2B 6126  17.088   6.071   8.494  0.1473  0.1804 -0.0523
  383loPI   C3B 6127  16.982   6.009   8.130 -0.1716  0.3080  0.4737
  383loPI   C4B 6128  16.989   6.078   7.652 -0.4618  0.2680 -0.0020
  384loPI    C1 6129  14.112   6.504  10.478 -0.1786  0.2067  0.0532
  384loPI    C2 6130  13.749   6.371  10.581 -0.0374 -0.1729  0.0769
  384loPI    C3 6131  14.073   6.151  10.662  0.1834  0.0763 -0.1109
  384loPI   PO4 6132  14.122   6.605  10.224  0.1930  0.1768 -0.0053
  384loPI   GL1 6133  14.137   6.558   9.870 -0.0904 -0.1466 -0.3622
  384loPI   GL2 6134  13.977   6.357   9.716 -0.2017  0.1862  0.1349
  384loPI   C1A 6135  14.350   6.740   9.587 -0.3997  0.2554  0.0541
  384loPI   C2A 6136  14.422   6.667   9.120 -0.0605  0.0640 -0.2016
  384loPI   C3A 6137  14.360   6.652   8.673  0.2143  0.0528  0.2028
  384loPI   C4A 6138  14.453   6.750   8.220 -0.2533  0.0998 -0.0412
  384loPI   C5A 6139  14.512   6.825   7.740  0.0144 -0.0994  0.0878
  384loPI   C6A 6140  14.704   7.067   7.420  0.0453 -0.1115 -0.2493
  384loPI   C1B 6141  13.902   6.432   9.257  0.2150 -0.0519  0.2688
  384loPI   C2B 6142  13.846   6.374   8.841 -0.3699  0.0342  0.3410
  384loPI   C3B 6143  13.967   6.373   8.378  0.0918  0.0282 -0.2351
  384loPI   C4B 6144  13.710   6.415   8.056 -0.0414  0.1774 -0.1099
  385loPI    C1 6145  16.749   0.603  10.563 -0.2743  0.2470 -0.0838
  385loPI    C2 6146  17.028   0.737  10.816 -0.0444 -0.1590 -0.1142
  385loPI    C3 6147  16.643   0.823  10.880  0.0450  0.0470  0.1682
  385loPI   PO4 6148  16.851   0.696  10.354 -0.0024 -0.0233  0.0068
  385loPI   GL1 6149  16.701   0.827   9.961 -0.0819 -0.0201 -0.0250
  385loPI   GL2 6150  16.820   1.143   9.799  0.0026  0.0915  0.1934
  385loPI   C1A 6151  16.722   0.716   9.533 -0.1352 -0.0808  0.1171
  385loPI   C2A 6152  16.873   0.774   9.087  0.1303 -0.1638  0.0899
  385loPI   C3A 6153  16.809   0.743   8.721 -0.0854  0.0978 -0.0072
  385loPI   C4A 6154  16.759   0.821   8.289 -0.2429 -0.0837  0.0130
  385loPI   C5A 6155  16.928   0.893   7.816 -0.0372 -0.3160 -0.2063
  385loPI   C6A 6156  17.303   0.766   7.621  0.1788  0.1413  0.2086
  385loPI   C1B 6157  16.836   1.324   9.333 -0.1002 -0.1597  0.0635
  385loPI   C2B 6158  16.778   1.216   8.937 -0.0805 -0.2049  0.0458
  385loPI   C3B 6159  16.788   1.298   8.491 -0.0726  0.2789  0.1129
  385loPI   C4B 6160  16.825   1.352   8.131  0.0990  0.2122  0.2746
  386loPI    C1 6161  12.946   6.649  10.361  0.0491 -0.0524  0.0601
  386loPI    C2 6162  12.691   6.753  10.651  0.2170 -0.0233  0.1990
  386loPI    C3 6163  12.943   6.447  10.706  0.2312 -0.0347  0.0731
  386loPI   PO4 6164  12.811   6.582  10.161 -0.0908  0.0512  0.0117
  386loPI   GL1 6165  12.674   6.642   9.769 -0.1168 -0.0756  0.1340
  386loPI   GL2 6166  12.565   6.852   9.756  0.1803  0.1155  0.4237
  386loPI   C1A 6167  12.569   6.279   9.451  0.2220 -0.3605 -0.1940
  386loPI   C2A 6168  12.632   6.177   9.092 -0.0344  0.1178  0.2776
  386loPI   C3A 6169  12.439   6.182   8.665  0.0370 -0.1374  0.1745
  386loPI   C4A 6170  12.468   6.323   8.269  0.1519 -0.0016 -0.0515
  386loPI   C5A 6171  12.428   6.236   7.881  0.0144  0.2427  0.2010
  386loPI   C6A 6172  12.636   5.978   7.528 -0.0375  0.0646  0.0106
  386loPI   C1B 6173  12.676   6.745   9.262 -0.0846 -0.1995 -0.0449
  386loPI   C2B 6174  12.597   6.712   8.776  0.0274 -0.3031  0.3838
  386loPI   C3B 6175  12.533   6.821   8.361  0.5863  0.0167  0.1152
  386loPI   C4B 6176  12.650   6.803   7.938 -0.1088  0.3143 -0.1222
  387loPI    C1 6177   5.169  10.963  11.170 -0.0199 -0.0517 -0.0472
  387loPI    C2 6178   5.282  10.742  11.484 -0.0582 -0.0428 -0.0271
  387loPI    C3 6179   5.201  11.131  11.532  0.2126  0.0246 -0.1016
  387loPI   PO4 6180   5.279  10.854  10.955  0.0395  0.2176 -0.0775
  387loPI   GL1 6181   5.356  10.778  10.598 -0.2122  0.2111  0.1801
  387loPI   GL2 6182   5.027  10.668  10.567 -0.0664 -0.3171  0.0866
  387loPI   C1A 6183   5.267  10.987  10.213 -0.1433  0.2904  0.0578
  387loPI   C2A 6184   5.195  10.955   9.808 -0.4640 -0.0624 -0.0580
  387loPI   C3A 6185   5.249  11.030   9.452 -0.0861 -0.2431  0.1797
  387loPI   C4A 6186   5.306  11.026   8.951  0.0157  0.0736  0.2682
  387loPI   C5A 6187   5.461  10.996   8.622 -0.0787 -0.2458 -0.2163
  387loPI   C6A 6188   5.533  10.614   8.471 -0.0721  0.0691  0.0529
  387loPI   C1B 6189   5.142  10.504  10.055 -0.0428  0.1669  0.1952
  387loPI   C2B 6190   5.159  10.424   9.591  0.0950 -0.0564 -0.0000
  387loPI   C3B 6191   5.156  10.491   9.219  0.0220  0.2284  0.5985
  387loPI   C4B 6192   5.269  10.463   8.836 -0.0233  0.0525  0.0593
  388loPI    C1 6193   7.143   1.284  10.954  0.0242  0.2078  0.3721
  388loPI    C2 6194   7.120   0.885  10.985  0.2954  0.1814  0.2536
  388loPI    C3 6195   6.989   1.116  11.284 -0.0610  0.0104  0.2342
  388loPI   PO4 6196   7.044   1.255  10.650  0.1293 -0.0965  0.2210
  388loPI   GL1 6197   6.911   1.346  10.228 -0.0932  0.0888  0.0644
  388loPI   GL2 6198   7.003   1.045  10.195  0.1056 -0.1840 -0.1937
  388loPI   C1A 6199   6.864   1.279   9.833 -0.1439  0.0393 -0.1790
  388loPI   C2A 6200   6.990   1.197   9.393 -0.2105 -0.3283 -0.1603
  388loPI   C3A 6201   6.951   1.169   8.962 -0.0043 -0.1686  0.2107
  388loPI   C4A 6202   7.050   1.134   8.505  0.0191  0.2114  0.0874
  388loPI   C5A 6203   6.972   1.299   8.070  0.0327  0.4616 -0.2712
  388loPI   C6A 6204   7.047   1.419   7.666  0.2663 -0.1146  0.1251
  388loPI   C1B 6205   7.341   1.100   9.930 -0.1839  0.0543  0.1547
  388loPI   C2B 6206   7.448   0.990   9.465  0.0147  0.1257  0.6181
  388loPI   C3B 6207   7.430   0.801   9.081 -0.0701  0.1674  0.1871
  388loPI   C4B 6208   7.447   0.864   8.671 -0.3427  0.1047 -0.4676
  389loPI    C1 6209  11.198  15.173  10.965  0.0770 -0.5052 -0.2843
  389loPI    C2 6210  11.492  14.994  11.169 -0.0543 -0.1930  0.1941
  389loPI    C3 6211  11.115  14.864  11.205 -0.0488 -0.2737 -0.0238
  389loPI   PO4 6212  11.420  15.225  10.703  0.1544  0.2527  0.3159
  389loPI   GL1 6213  11.372  15.433  10.297  0.2795 -0.0319  0.1456
  389loPI   GL2 6214  11.242  15.671  10.361 -0.2971 -0.2177  0.3005
  389loPI   C1A 6215  11.263  15.199   9.885 -0.0992  0.1434 -0.3617
  389loPI   C2A 6216  11.252  15.295   9.388  0.2326 -0.0597  0.3934
  389loPI   C3A 6217  11.276  15.233   8.948 -0.0986 -0.0186 -0.0546
  389loPI   C4A 6218  11.153  15.198   8.557  0.1065 -0.0002 -0.1849
  389loPI   C5A 6219  11.369  15.583   8.384 -0.0831  0.0122  0.0206
  389loPI   C6A 6220  11.764  15.651   8.200 -0.0203  0.0859  0.3845
  389loPI   C1B 6221  11.295  15.719   9.911 -0.1090 -0.0928 -0.0528
  389loPI   C2B 6222  11.280  15.818   9.456  0.2576  0.2017  0.1485
  389loPI   C3B 6223  11.234  15.758   9.055 -0.3219  0.1563  0.1418
  389loPI   C4B 6224  11.247  15.906   8.731 -0.0502  0.1587  0.0573
  390loPI    C1 6225   6.499   1.586  10.578  0.0181 -0.0085  0.4352
  390loPI    C2 6226   6.542   1.967  10.695  0.4018  0.0431  0.1452
  390loPI    C3 6227   6.837   1.704  10.757  0.3502 -0.0814 -0.1219
  390loPI   PO4 6228   6.451   1.572  10.371  0.0983 -0.4230 -0.1687
  390loPI   GL1 6229   6.470   1.487   9.979 -0.1802 -0.0220 -0.1724
  390loPI   GL2 6230   6.191   1.724   9.913 -0.0823 -0.2154 -0.1151
  390loPI   C1A 6231   6.528   1.545   9.527  0.0992 -0.3159 -0.0717
  390loPI   C2A 6232   6.565   1.393   9.153  0.3076  0.0507 -0.0300
  390loPI   C3A 6233   6.554   1.429   8.753  0.1607  0.4863 -0.1554
  390loPI   C4A 6234   6.644   1.454   8.434 -0.1560  0.0697  0.3449
  390loPI   C5A 6235   6.488   1.572   8.017  0.0068  0.5433 -0.2239
  390loPI   C6A 6236   6.153   1.724   7.749 -0.1029 -0.1803  0.1943
  390loPI   C1B 6237   6.049   1.855   9.569 -0.1082  0.2101 -0.1778
  390loPI   C2B 6238   6.104   1.754   9.171  0.0115  0.0936 -0.0401
  390loPI   C3B 6239   6.195   1.763   8.717  0.1284  0.0888 -0.0428
  390loPI   C4B 6240   6.137   1.781   8.256  0.1448  0.0617  0.2203
  391loPI    C1 6241  14.565   3.250  10.179  0.1743  0.0221 -0.0200
  391loPI    C2 6242  14.189   3.356  10.090  0.1042 -0.1675  0.0449
  391loPI    C3 6243  14.369   3.509  10.413  0.0835 -0.0760  0.0135
  391loPI   PO4 6244  14.502   2.960  10.144  0.0663 -0.2486 -0.2509
  391loPI   GL1 6245  14.453   2.922   9.750  0.0402 -0.2015 -0.0070
  391loPI   GL2 6246  14.719   2.776   9.746  0.0857 -0.2610  0.2158
  391loPI   C1A 6247  14.261   3.029   9.379 -0.2430  0.2507  0.1216
  391loPI   C2A 6248  14.293   2.911   8.997 -0.1712  0.2560  0.0220
  391loPI   C3A 6249  14.289   3.040   8.512  0.0729  0.0977  0.2469
  391loPI   C4A 6250  14.319   2.879   7.996 -0.0592  0.1975 -0.3949
  391loPI   C5A 6251  14.484   2.646   7.653  0.0392  0.0310 -0.0418
  391loPI   C6A 6252  14.908   2.461   7.542  0.0453 -0.0818  0.1182
  391loPI   C1B 6253  14.649   2.663   9.369 -0.1689 -0.0981  0.2227
  391loPI   C2B 6254  14.635   2.613   8.869  0.1750 -0.0802  0.2846
  391loPI   C3B 6255  14.654   2.705   8.424  0.2274 -0.0742 -0.0717
  391loPI   C4B 6256  14.751   2.556   8.049 -0.1891  0.2542 -0.1785
  392loPI    C1 6257   7.264  18.218  10.440 -0.0847 -0.1443 -0.1356
  392loPI    C2 6258   7.191  18.603  10.360 -0.1482 -0.2177 -0.4438
  392loPI    C3 6259   6.980  18.414  10.642  0.2618  0.1178  0.1094
  392loPI   PO4 6260   7.431  18.220  10.494  0.1615 -0.0907  0.0406
  392loPI   GL1 6261   7.637  18.278  10.134 -0.2311  0.3744 -0.1706
  392loPI   GL2 6262   7.837  17.983  10.283  0.0764  0.1721  0.2380
  392loPI   C1A 6263   7.753  18.540   9.764  0.2847 -0.3497 -0.1105
  392loPI   C2A 6264   7.924  18.552   9.357  0.2122  0.0027  0.1475
  392loPI   C3A 6265   7.820  18.449   8.971 -0.2809 -0.3429  0.2041
  392loPI   C4A 6266   7.785  18.507   8.590  0.0552  0.2672 -0.1027
  392loPI   C5A 6267   7.922  18.558   8.175 -0.0610  0.1056  0.0227
  392loPI   C6A 6268   8.278  18.593   7.872 -0.1845  0.2431  0.1123
  392loPI   C1B 6269   7.892  18.027   9.778  0.1987 -0.0375 -0.2384
  392loPI   C2B 6270   7.844  18.084   9.411  0.1049  0.0224 -0.2671
  392loPI   C3B 6271   7.867  18.006   9.036  0.3997  0.1860  0.3785
  392loPI   C4B 6272   7.637  18.014   8.755  0.1615  0.0238  0.0966
  393loPI    C1 6273  13.671  17.073  10.530 -0.0774 -0.1384  0.0245
  393loPI    C2 6274  13.929  16.861  10.750  0.3124  0.1682 -0.1243
  393loPI    C3 6275  13.818  17.226  10.870 -0.1395  0.0006 -0.0104
  393loPI   PO4 6276  13.737  17.028  10.372 -0.1315  0.0012 -0.0595
  393loPI   GL1 6277  13.677  16.803  10.072 -0.0803 -0.2506  0.1643
  393loPI   GL2 6278  13.302  16.739  10.131  0.2687  0.0832  0.2642
  393loPI   C1A 6279  13.608  16.928   9.620  0.1672 -0.0307 -0.0358
  393loPI   C2A 6280  13.563  17.032   9.276  0.2412 -0.1317  0.0308
  393loPI   C3A 6281  13.661  17.027   8.856 -0.0378  0.0583  0.2164
  393loPI   C4A 6282  13.466  17.051   8.469 -0.0331  0.1486  0.0430
  393loPI   C5A 6283  13.206  17.136   8.030  0.1996 -0.2659 -0.0385
  393loPI   C6A 6284  13.025  17.503   7.888  0.1811  0.2973 -0.0993
  393loPI   C1B 6285  13.089  16.749   9.758  0.1935  0.0802 -0.1407
  393loPI   C2B 6286  13.249  16.702   9.357  0.0544  0.3261 -0.2218
  393loPI   C3B 6287  13.125  16.805   8.888  0.4058 -0.0140  0.1046
  393loPI   C4B 6288  13.001  16.856   8.419 -0.1029  0.1475 -0.0738
  394loPI    C1 6289   5.086  17.025  11.057 -0.0072  0.0323  0.0364
  394loPI    C2 6290   5.325  16.908  11.355 -0.1605 -0.3278  0.0224
  394loPI    C3 6291   4.951  16.768  11.332 -0.2347 -0.0998 -0.1942
  394loPI   PO4 6292   5.178  17.011  10.853 -0.0978  0.0758 -0.1307
  394loPI   GL1 6293   5.021  16.967  10.485  0.2025  0.1745  0.1432
  394loPI   GL2 6294   5.235  17.214  10.433 -0.0720  0.0879 -0.0760
  394loPI   C1A 6295   4.833  16.787  10.208  0.3083  0.0307  0.1011
  394loPI   C2A 6296   4.979  16.689   9.828 -0.0128  0.1332 -0.1369
  394loPI   C3A 6297   5.047  16.635   9.378  0.0700  0.0602 -0.4110
  394loPI   C4A 6298   5.004  16.520   8.986  0.0261  0.0051 -0.0736
  394loPI   C5A 6299   5.000  16.562   8.512  0.0057 -0.0630  0.0349
  394loPI   C6A 6300   4.836  16.804   8.089  0.2341 -0.2624 -0.2976
  394loPI   C1B 6301   5.372  16.936   9.963 -0.1838 -0.0754 -0.1702
  394loPI   C2B 6302   5.478  16.859   9.580 -0.2163  0.1569  0.2090
  394loPI   C3B 6303   5.537  16.781   9.138 -0.2621  0.0097  0.0325
  394loPI   C4B 6304   5.493  16.768   8.659  0.0922  0.0132 -0.0689
  395loPI    C1 6305   3.283   1.813  10.539  0.1543  0.2830 -0.0917
  395loPI    C2 6306   3.340   2.118  10.287  0.0080  0.1870 -0.2430
  395loPI    C3 6307   3.095   2.160  10.601 -0.0888  0.1948 -0.3192
  395loPI   PO4 6308   3.249   1.573  10.433 -0.1617 -0.1331 -0.2166
  395loPI   GL1 6309   3.250   1.235  10.028  0.0995 -0.2545  0.0145
  395loPI   GL2 6310   3.254   0.984   9.967  0.0896  0.2016  0.1840
  395loPI   C1A 6311   3.334   1.458   9.756 -0.0152 -0.3685  0.1695
  395loPI   C2A 6312   3.260   1.454   9.328 -0.1814 -0.3180 -0.1611
  395loPI   C3A 6313   3.281   1.440   8.907  0.2228 -0.1014  0.1140
  395loPI   C4A 6314   3.347   1.471   8.397  0.0532 -0.0554  0.2127
  395loPI   C5A 6315   3.595   1.573   8.069  0.1361 -0.3682 -0.0911
  395loPI   C6A 6316   3.780   1.988   7.870  0.1151 -0.1115 -0.0369
  395loPI   C1B 6317   3.255   0.996   9.561  0.1614  0.2317 -0.2968
  395loPI   C2B 6318   3.330   0.888   9.106 -0.2387  0.0525 -0.0939
  395loPI   C3B 6319   3.289   0.871   8.685  0.6478  0.3394  0.0904
  395loPI   C4B 6320   3.432   0.954   8.349 -0.0037  0.0097  0.2239
  396loPI    C1 6321  14.356   2.684  10.608 -0.1453 -0.1698 -0.0514
  396loPI    C2 6322  14.199   3.046  10.544 -0.1287 -0.1483  0.0283
  396loPI    C3 6323  14.572   3.012  10.685 -0.0832 -0.1984 -0.1022
  396loPI   PO4 6324  14.369   2.550  10.328  0.1647 -0.3279 -0.2993
  396loPI   GL1 6325  14.379   2.455   9.940 -0.2966  0.1411 -0.2900
  396loPI   GL2 6326  14.665   2.300   9.917 -0.3093  0.0050  0.0394
  396loPI   C1A 6327  14.142   2.519   9.553  0.1529 -0.1168  0.2408
  396loPI   C2A 6328  14.177   2.454   9.141  0.1970  0.1628 -0.1209
  396loPI   C3A 6329  14.227   2.472   8.685  0.0097 -0.3800 -0.3468
  396loPI   C4A 6330  14.266   2.427   8.229  0.0125 -0.0635  0.1376
  396loPI   C5A 6331  14.055   2.416   7.760  0.0442 -0.1741  0.2409
  396loPI   C6A 6332  13.758   2.551   7.479  0.1952  0.2190 -0.1273
  396loPI   C1B 6333  14.724   2.240   9.593  0.3445  0.0750  0.2600
  396loPI   C2B 6334  14.632   2.130   9.256 -0.2689  0.2207  0.1159
  396loPI   C3B 6335  14.584   2.150   8.847  0.0367  0.3133 -0.0864
  396loPI   C4B 6336  14.665   2.215   8.451  0.1872 -0.0723 -0.1794
  397loPI    C1 6337  14.587   8.531  10.246 -0.0073  0.2041 -0.1192
  397loPI    C2 6338  14.929   8.369  10.376 -0.0719  0.0234 -0.1709
  397loPI    C3 6339  14.671   8.528  10.637  0.0109  0.0819 -0.1238
  397loPI   PO4 6340  14.440   8.345  10.059  0.1982 -0.0339 -0.1049
  397loPI   GL1 6341  14.158   8.345   9.743 -0.1431 -0.0116  0.1054
  397loPI   GL2 6342  14.194   8.015   9.721 -0.0131  0.2332  0.0427
  397loPI   C1A 6343  14.250   8.450   9.424  0.1090 -0.2113  0.1912
  397loPI   C2A 6344  14.141   8.511   8.975 -0.1471  0.0356  0.5285
  397loPI   C3A 6345  14.129   8.483   8.502  0.2326 -0.1300  0.0566
  397loPI   C4A 6346  14.053   8.543   8.158  0.1387 -0.0516  0.0749
  397loPI   C5A 6347  14.131   8.563   7.706 -0.1441 -0.2207 -0.1909
  397loPI   C6A 6348  14.072   8.614   7.208 -0.0977  0.0789  0.0540
  397loPI   C1B 6349  14.101   7.985   9.253 -0.2692 -0.1051  0.1266
  397loPI   C2B 6350  14.127   8.016   8.801  0.0319 -0.0311  0.2002
  397loPI   C3B 6351  14.025   8.027   8.323  0.3124  0.1301 -0.1211
  397loPI   C4B 6352  13.875   8.150   7.867 -0.1514  0.0125 -0.2503
  398loPI    C1 6353  11.046   5.605  10.763  0.2250  0.2158 -0.0522
  398loPI    C2 6354  11.027   5.463  11.137 -0.0196 -0.0133 -0.1481
  398loPI    C3 6355  11.133   5.844  11.072  0.1275 -0.0014  0.1460
  398loPI   PO4 6356  10.786   5.526  10.652  0.0992 -0.2447 -0.2701
  398loPI   GL1 6357  10.869   5.442  10.138  0.0459  0.1013 -0.2200
  398loPI   GL2 6358  11.172   5.553  10.242 -0.1668  0.0459 -0.1432
  398loPI   C1A 6359  10.745   5.390   9.694  0.0422  0.1706 -0.0449
  398loPI   C2A 6360  10.728   5.260   9.291 -0.4654  0.1297 -0.0739
  398loPI   C3A 6361  10.708   5.229   8.895  0.1567 -0.0771  0.0561
  398loPI   C4A 6362  10.796   5.425   8.417  0.0429  0.1410  0.2715
  398loPI   C5A 6363  10.976   5.144   8.106 -0.1634  0.1280 -0.1950
  398loPI   C6A 6364  10.932   5.005   7.647 -0.1174  0.1004 -0.2509
  398loPI   C1B 6365  11.239   5.564   9.797 -0.2375 -0.0681  0.1624
  398loPI   C2B 6366  11.121   5.590   9.424  0.1879 -0.1737  0.1836
  398loPI   C3B 6367  11.086   5.544   9.048  0.2972 -0.0216 -0.1170
  398loPI   C4B 6368  11.182   5.429   8.719  0.2868  0.1222 -0.0184
  399loPI    C1 6369   1.132   1.785  10.380  0.1895 -0.1226  0.1561
  399loPI    C2 6370   1.216   2.058  10.660 -0.2560 -0.0494  0.2272
  399loPI    C3 6371   1.141   1.680  10.766  0.2271 -0.1767  0.1406
  399loPI   PO4 6372   1.278   1.758  10.158  0.0387 -0.0262 -0.4745
  399loPI   GL1 6373   1.341   1.393   9.960 -0.1209 -0.1493 -0.2217
  399loPI   GL2 6374   1.518   1.152  10.016  0.0100  0.1514  0.1861
  399loPI   C1A 6375   0.966   1.389   9.594  0.0821  0.0613 -0.2141
  399loPI   C2A 6376   0.930   1.296   9.138  0.3457  0.0177 -0.4941
  399loPI   C3A 6377   1.049   1.233   8.695 -0.1537 -0.0577  0.0104
  399loPI   C4A 6378   1.069   1.132   8.268  0.2114  0.0021 -0.1327
  399loPI   C5A 6379   1.302   1.044   7.900 -0.1775 -0.0705 -0.2773
  399loPI   C6A 6380   1.469   0.810   7.737  0.2607  0.4233  0.2806
  399loPI   C1B 6381   1.421   1.130   9.551  0.0005  0.0798  0.3504
  399loPI   C2B 6382   1.409   1.013   9.162  0.0648  0.1376  0.0445
  399loPI   C3B 6383   1.406   0.923   8.661 -0.1614  0.2638  0.3146
  399loPI   C4B 6384   1.438   0.693   8.262 -0.1026  0.1696 -0.0261
  400loPI    C1 6385  15.077  12.113  11.058 -0.1663 -0.0807 -0.1275
  400loPI    C2 6386  15.119  12.494  10.945 -0.0717 -0.1169 -0.2163
  400loPI    C3 6387  15.341  12.349  11.244  0.0457 -0.1598 -0.3235
  400loPI   PO4 6388  14.960  12.020  10.874 -0.1847  0.0332 -0.1333
  400loPI   GL1 6389  14.832  12.322  10.538 -0.0166 -0.0059 -0.0428
  400loPI   GL2 6390  14.712  12.014  10.419 -0.0402  0.0021  0.0180
  400loPI   C1A 6391  14.709  12.474  10.068 -0.1775  0.3046  0.1589
  400loPI   C2A 6392  14.617  12.430   9.645 -0.1923 -0.0132  0.0962
  400loPI   C3A 6393  14.764  12.379   9.296 -0.0245 -0.0682  0.1891
  400loPI   C4A 6394  14.781  12.333   8.858 -0.0001  0.3479 -0.2699
  400loPI   C5A 6395  14.762  12.590   8.450 -0.0767  0.1584 -0.0633
  400loPI   C6A 6396  14.615  13.007   8.357  0.1604 -0.2966 -0.1110
  400loPI   C1B 6397  14.721  11.936   9.963 -0.4296  0.1258 -0.0664
  400loPI   C2B 6398  14.713  11.890   9.492  0.3166  0.2503 -0.3020
  400loPI   C3B 6399  14.622  11.920   9.062  0.1354  0.0300 -0.0529
  400loPI   C4B 6400  14.628  11.894   8.643 -0.0078  0.1651 -0.0930
  401loPI    C1 6401  12.773   5.956  10.504  0.1251 -0.0842  0.2135
  401loPI    C2 6402  13.025   5.733  10.288  0.0513 -0.1204  0.1641
  401loPI    C3 6403  13.132   5.862  10.651  0.0214 -0.3981  0.2743
  401loPI   PO4 6404  12.677   6.125  10.288  0.2056  0.0402 -0.0598
  401loPI   GL1 6405  12.787   6.177   9.904  0.2187 -0.1576  0.3598
  401loPI   GL2 6406  13.092   6.032   9.744 -0.1042 -0.3652  0.1276
  401loPI   C1A 6407  12.609   5.819   9.568  0.0052  0.1082 -0.0272
  401loPI   C2A 6408  12.560   5.672   9.230  0.1619 -0.1790  0.1734
  401loPI   C3A 6409  12.567   5.695   8.756  0.0779  0.0318 -0.1220
  401loPI   C4A 6410  12.484   5.674   8.308  0.1833 -0.1450  0.2932
  401loPI   C5A 6411  12.668   5.563   7.865  0.0187 -0.0495 -0.0283
  401loPI   C6A 6412  12.727   5.273   7.570  0.1655  0.0044 -0.1435
  401loPI   C1B 6413  13.040   5.907   9.328 -0.1495  0.0402 -0.0744
  401loPI   C2B 6414  13.016   5.965   8.950 -0.1897  0.1912 -0.0809
  401loPI   C3B 6415  13.043   5.814   8.568  0.1591  0.0318  0.2062
  401loPI   C4B 6416  12.835   6.006   8.170 -0.0579 -0.1627  0.0777
  402loPI    C1 6417  10.265   4.183  10.789  0.0340 -0.1659 -0.1058
  402loPI    C2 6418  10.433   4.187  11.152  0.2856 -0.0379 -0.2213
  402loPI    C3 6419  10.043   4.107  11.114  0.2337  0.0531  0.0861
  402loPI   PO4 6420  10.394   3.996  10.641 -0.0918  0.0366  0.0952
  402loPI   GL1 6421  10.438   3.998  10.255  0.2648 -0.0139 -0.0753
  402loPI   GL2 6422  10.746   4.208  10.276 -0.2096 -0.0177 -0.2119
  402loPI   C1A 6423  10.288   3.992   9.945 -0.4052 -0.3251 -0.2686
  402loPI   C2A 6424  10.147   4.059   9.584 -0.2285  0.1190  0.2553
  402loPI   C3A 6425  10.179   3.981   9.246 -0.1718  0.0093 -0.0214
  402loPI   C4A 6426  10.106   4.011   8.783 -0.2577 -0.1648 -0.2837
  402loPI   C5A 6427  10.236   3.936   8.407 -0.1002  0.1125 -0.0231
  402loPI   C6A 6428  10.344   3.756   7.963 -0.1918 -0.0433 -0.1676
  402loPI   C1B 6429  10.658   4.276   9.871  0.1877 -0.1659 -0.0524
  402loPI   C2B 6430  10.647   4.261   9.389 -0.0010 -0.1147  0.3464
  402loPI   C3B 6431  10.600   4.151   9.115  0.2076 -0.0728 -0.1138
  402loPI   C4B 6432  10.603   4.266   8.731 -0.0108 -0.0831 -0.2129
  403loPI    C1 6433   7.532  16.835  11.207  0.1648 -0.2750  0.2666
  403loPI    C2 6434   7.299  16.973  11.501  0.0401 -0.0733  0.0766
  403loPI    C3 6435   7.671  16.850  11.581  0.0570  0.1145  0.2948
  403loPI   PO4 6436   7.428  16.987  10.976 -0.1134  0.3177 -0.1244
  403loPI   GL1 6437   7.621  17.303  10.650 -0.4898 -0.1244 -0.1360
  403loPI   GL2 6438   7.843  17.085  10.729 -0.1269  0.0764  0.1951
  403loPI   C1A 6439   7.528  17.291  10.187 -0.1505 -0.0499  0.1590
  403loPI   C2A 6440   7.444  17.294   9.813 -0.1937 -0.2156 -0.0553
  403loPI   C3A 6441   7.254  17.269   9.374  0.1513 -0.0655 -0.2699
  403loPI   C4A 6442   7.331  17.258   8.988  0.0828  0.2916 -0.0166
  403loPI   C5A 6443   7.398  17.243   8.571  0.0485 -0.1339  0.0929
  403loPI   C6A 6444   7.209  17.315   8.276  0.0961 -0.0913 -0.2718
  403loPI   C1B 6445   7.848  16.931  10.309 -0.2019  0.1200 -0.1449
  403loPI   C2B 6446   7.848  17.023   9.834 -0.1269 -0.1215 -0.3064
  403loPI   C3B 6447   7.710  17.042   9.360  0.0121 -0.1044 -0.1664
  403loPI   C4B 6448   7.739  16.973   8.958 -0.0453 -0.0848  0.0214
  404loPI    C1 6449   9.279   8.265  10.864 -0.1471 -0.0193  0.0487
  404loPI    C2 6450   9.642   8.256  11.032 -0.0177  0.0972 -0.2198
  404loPI    C3 6451   9.428   7.920  11.001  0.1832 -0.0247 -0.3074
  404loPI   PO4 6452   9.339   8.303  10.640  0.1595  0.1829 -0.0087
  404loPI   GL1 6453   9.152   8.515  10.264  0.0241  0.0888 -0.1913
  404loPI   GL2 6454   9.375   8.256  10.167  0.0161 -0.2266  0.0202
  404loPI   C1A 6455   9.112   8.524   9.844 -0.1374  0.0344 -0.1902
  404loPI   C2A 6456   9.054   8.529   9.347 -0.0098 -0.0006  0.2376
  404loPI   C3A 6457   9.123   8.517   8.967  0.0402 -0.1764 -0.1331
  404loPI   C4A 6458   9.179   8.542   8.475  0.1856 -0.0364 -0.1879
  404loPI   C5A 6459   9.095   8.714   8.156  0.1114 -0.1635 -0.1386
  404loPI   C6A 6460   9.232   9.125   8.058  0.0468 -0.3181  0.1094
  404loPI   C1B 6461   9.528   8.256   9.783  0.4305  0.1961 -0.2003
  404loPI   C2B 6462   9.556   8.247   9.344 -0.0225 -0.1197  0.0324
  404loPI   C3B 6463   9.573   8.281   8.910 -0.0097 -0.1483  0.0826
  404loPI   C4B 6464   9.578   8.190   8.474  0.1221  0.0564 -0.2700
  405loPI    C1 6465   0.015  13.030  10.625  0.1815 -0.0998 -0.0799
  405loPI    C2 6466  -0.146  12.665  10.645 -0.0679 -0.0082 -0.3457
  405loPI    C3 6467  -0.238  12.939  10.921  0.0593 -0.1203 -0.1900
  405loPI   PO4 6468   0.017  13.071  10.424 -0.1447 -0.1612  0.1235
  405loPI   GL1 6469   0.186  12.820  10.073  0.0569 -0.1662 -0.1647
  405loPI   GL2 6470  -0.066  12.942   9.834 -0.0707  0.0734 -0.0480
  405loPI   C1A 6471   0.395  12.740   9.795  0.0918  0.0757 -0.2646
  405loPI   C2A 6472   0.346  12.667   9.350  0.0442 -0.1433  0.2355
  405loPI   C3A 6473   0.301  12.704   8.948 -0.1494  0.3178 -0.1338
  405loPI   C4A 6474   0.272  12.705   8.437 -0.1826  0.0440 -0.3836
  405loPI   C5A 6475   0.497  12.949   8.129 -0.1486 -0.0991  0.0578
  405loPI   C6A 6476   0.880  13.291   8.244  0.1110 -0.1539  0.0767
  405loPI   C1B 6477  -0.105  12.891   9.410  0.0291 -0.1617  0.0826
  405loPI   C2B 6478  -0.201  12.860   8.973 -0.1433 -0.2173 -0.0343
  405loPI   C3B 6479  -0.175  12.850   8.581  0.5294 -0.0934 -0.0035
  405loPI   C4B 6480  -0.002  13.085   8.228  0.0795  0.4550  0.0802
  406loPI    C1 6481   4.842   9.773  10.883 -0.0010  0.0217  0.3289
  406loPI    C2 6482   4.652   9.461  11.044 -0.1170 -0.0317  0.0937
  406loPI    C3 6483   4.939   9.649  11.250 -0.0399 -0.2978  0.2344
  406loPI   PO4 6484   4.633   9.893  10.712  0.1937 -0.2589  0.1044
  406loPI   GL1 6485   4.621   9.617  10.393 -0.1582  0.3070 -0.0996
  406loPI   GL2 6486   4.653   9.235  10.249 -0.0753  0.1940  0.0414
  406loPI   C1A 6487   4.705   9.671   9.912 -0.1512  0.1320 -0.3099
  406loPI   C2A 6488   4.734   9.696   9.508  0.0334  0.1127 -0.0273
  406loPI   C3A 6489   4.657   9.776   9.167  0.3384  0.0044 -0.0228
  406loPI   C4A 6490   4.707   9.870   8.716 -0.0463  0.0977  0.0026
  406loPI   C5A 6491   4.662   9.899   8.317  0.0791  0.0416  0.0565
  406loPI   C6A 6492   4.757   9.803   8.033 -0.4115 -0.0782 -0.0511
  406loPI   C1B 6493   4.719   9.182   9.806 -0.1300 -0.1352  0.2059
  406loPI   C2B 6494   4.699   9.218   9.366 -0.2080  0.3636 -0.2050
  406loPI   C3B 6495   4.683   9.291   8.949  0.0555 -0.2892 -0.0824
  406loPI   C4B 6496   4.670   9.367   8.409  0.0898 -0.0512 -0.0812
  407loPI    C1 6497   3.534   6.964  10.372  0.1722  0.0115 -0.0523
  407loPI    C2 6498   3.721   7.020  10.721  0.0925 -0.2236  0.0300
  407loPI    C3 6499   3.842   6.731  10.473  0.0048 -0.2051 -0.0348
  407loPI   PO4 6500   3.489   7.316  10.271  0.3634 -0.3237 -0.3366
  407loPI   GL1 6501   3.517   7.249   9.918  0.0490 -0.0680  0.1649
  407loPI   GL2 6502   3.832   7.373   9.913 -0.0449  0.0691 -0.0188
  407loPI   C1A 6503   3.433   7.220   9.467  0.1098  0.1600  0.0892
  407loPI   C2A 6504   3.455   7.322   8.946  0.1374  0.1373 -0.1326
  407loPI   C3A 6505   3.436   7.278   8.544  0.2361  0.0210  0.0086
  407loPI   C4A 6506   3.649   7.320   8.184 -0.1514 -0.1483  0.0978
  407loPI   C5A 6507   4.007   7.248   7.809 -0.4081 -0.0897 -0.1126
  407loPI   C6A 6508   4.335   7.350   7.587  0.1226  0.1632  0.0452
  407loPI   C1B 6509   3.858   7.469   9.443  0.0659 -0.3237 -0.1691
  407loPI   C2B 6510   3.934   7.501   9.036  0.2360  0.0834 -0.1003
  407loPI   C3B 6511   3.978   7.517   8.603 -0.0799  0.2912 -0.1448
  407loPI   C4B 6512   4.137   7.389   8.253 -0.5488  0.0696 -0.2669
  408loPI    C1 6513  10.399   8.580  10.638  0.2190 -0.1896 -0.2138
  408loPI    C2 6514  10.195   8.334  10.878  0.0226  0.2618  0.0941
  408loPI    C3 6515  10.584   8.398  10.943  0.1030 -0.0528 -0.0602
  408loPI   PO4 6516  10.223   8.571  10.423  0.0022 -0.0584  0.1305
  408loPI   GL1 6517  10.067   8.386  10.039  0.0348  0.1663 -0.1504
  408loPI   GL2 6518  10.361   8.156   9.958 -0.1834  0.0294  0.0154
  408loPI   C1A 6519  10.038   8.460   9.539  0.1655  0.2256  0.3139
  408loPI   C2A 6520   9.983   8.431   9.064  0.0195 -0.0524  0.0345
  408loPI   C3A 6521  10.090   8.449   8.574 -0.0937  0.1693  0.2942
  408loPI   C4A 6522   9.897   8.331   8.155 -0.2934 -0.0795 -0.0055
  408loPI   C5A 6523   9.429   8.398   8.050 -0.3603 -0.1930  0.0433
  408loPI   C6A 6524   9.042   8.211   8.041 -0.0139 -0.0703  0.0314
  408loPI   C1B 6525  10.370   8.127   9.393  0.0295 -0.0117 -0.3847
  408loPI   C2B 6526  10.395   8.191   9.051  0.0307  0.0487  0.1333
  408loPI   C3B 6527  10.515   8.244   8.566  0.2466 -0.2759  0.0102
  408loPI   C4B 6528  10.446   8.227   8.147  0.0548  0.2085  0.1039
  409loPI    C1 6529  11.009   7.270  10.693 -0.0135  0.0686 -0.1690
  409loPI    C2 6530  10.925   7.650  10.787  0.1170 -0.0286  0.3721
  409loPI    C3 6531  11.171   7.436  11.018  0.2081 -0.3845 -0.0403
  409loPI   PO4 6532  10.723   7.242  10.553 -0.0623  0.0329  0.2842
  409loPI   GL1 6533  10.631   7.254  10.069 -0.0506 -0.0260 -0.0782
  409loPI   GL2 6534  10.813   7.248   9.880  0.1162 -0.0744  0.0239
  409loPI   C1A 6535  10.350   7.178   9.687  0.3460  0.0930  0.3128
  409loPI   C2A 6536  10.354   7.108   9.261 -0.2509 -0.1580 -0.0883
  409loPI   C3A 6537  10.437   7.174   8.791  0.2080  0.1015 -0.0398
  409loPI   C4A 6538  10.412   7.026   8.333  0.1730 -0.0132  0.4411
  409loPI   C5A 6539  10.288   6.812   7.973 -0.0896  0.1541  0.2320
  409loPI   C6A 6540  10.600   6.611   7.664 -0.0159 -0.4251  0.1853
  409loPI   C1B 6541  10.765   7.345   9.440 -0.2442  0.1961  0.0595
  409loPI   C2B 6542  10.784   7.338   9.106  0.1323  0.3053 -0.2682
  409loPI   C3B 6543  10.873   7.384   8.645  0.1108 -0.0641 -0.4578
  409loPI   C4B 6544  10.826   7.380   8.292  0.1586 -0.0909 -0.1849
  410loPI    C1 6545   1.550   5.360   9.848 -0.0483 -0.1365  0.0483
  410loPI    C2 6546   1.775   5.423  10.173 -0.5238  0.3533  0.3000
  410loPI    C3 6547   1.459   5.178  10.193 -0.3125  0.0544  0.0823
  410loPI   PO4 6548   1.739   5.275   9.648  0.0103  0.1028  0.0451
  410loPI   GL1 6549   2.124   5.480   9.464 -0.2404 -0.2419 -0.2327
  410loPI   GL2 6550   2.385   5.436   9.403 -0.1136  0.0644 -0.1701
  410loPI   C1A 6551   2.321   5.810   9.151 -0.1521  0.3274 -0.2026
  410loPI   C2A 6552   2.427   5.775   8.800 -0.1995  0.1817  0.0608
  410loPI   C3A 6553   2.536   5.661   8.361  0.0143  0.0010  0.3042
  410loPI   C4A 6554   2.551   5.680   7.986 -0.3397 -0.1595 -0.1163
  410loPI   C5A 6555   2.367   5.760   7.573 -0.1618  0.1621 -0.1211
  410loPI   C6A 6556   2.281   6.038   7.117  0.2002  0.1304 -0.0465
  410loPI   C1B 6557   2.451   5.240   9.067 -0.1806  0.1693  0.2531
  410loPI   C2B 6558   2.533   5.183   8.683 -0.1104  0.1097  0.1702
  410loPI   C3B 6559   2.596   5.092   8.200 -0.0223 -0.0849 -0.1343
  410loPI   C4B 6560   2.665   5.221   7.794  0.0127 -0.1658 -0.0321
  411loPI    C1 6561   4.136  16.648  11.175  0.0352 -0.1395 -0.2068
  411loPI    C2 6562   4.095  16.342  11.429  0.0197 -0.1327 -0.2011
  411loPI    C3 6563   4.352  16.637  11.512 -0.3984  0.1607  0.0926
  411loPI   PO4 6564   4.256  16.482  10.820  0.0915 -0.0354  0.0542
  411loPI   GL1 6565   4.183  16.606  10.390 -0.3256  0.2671 -0.3176
  411loPI   GL2 6566   4.492  16.497  10.368  0.0275 -0.3440 -0.0171
  411loPI   C1A 6567   4.088  16.831  10.053 -0.0069  0.3115 -0.1113
  411loPI   C2A 6568   4.077  16.721   9.701  0.1137  0.0638 -0.3076
  411loPI   C3A 6569   4.161  16.688   9.267 -0.0644 -0.0462 -0.0669
  411loPI   C4A 6570   4.156  16.691   8.865  0.1081  0.0421 -0.0723
  411loPI   C5A 6571   4.096  16.644   8.511  0.4158  0.5283  0.0627
  411loPI   C6A 6572   4.215  16.529   8.141  0.0440  0.3434 -0.1548
  411loPI   C1B 6573   4.492  16.515   9.987 -0.0014  0.1565 -0.1277
  411loPI   C2B 6574   4.560  16.467   9.594  0.0821 -0.0347  0.0990
  411loPI   C3B 6575   4.558  16.368   9.083  0.1509 -0.2356 -0.1100
  411loPI   C4B 6576   4.568  16.326   8.652  0.4258 -0.0871  0.0978
  412loPI    C1 6577   8.852   8.321  11.224  0.0604  0.2245  0.0620
  412loPI    C2 6578   8.968   7.941  11.174 -0.2713  0.1083  0.1473
  412loPI    C3 6579   9.220   8.208  11.334  0.0110 -0.0421 -0.0376
  412loPI   PO4 6580   8.733   8.349  10.911  0.3659  0.0211 -0.0863
  412loPI   GL1 6581   8.782   8.196  10.526 -0.1843  0.5358 -0.2876
  412loPI   GL2 6582   8.972   8.030  10.314 -0.3223  0.0436 -0.4963
  412loPI   C1A 6583   8.681   8.245  10.012  0.1778  0.4121  0.4397
  412loPI   C2A 6584   8.628   8.265   9.568 -0.0271  0.0764  0.0435
  412loPI   C3A 6585   8.588   8.309   9.162 -0.1307  0.0745 -0.3778
  412loPI   C4A 6586   8.685   8.249   8.746 -0.3427 -0.0138  0.0753
  412loPI   C5A 6587   8.708   8.378   8.365  0.0853 -0.1891  0.1478
  412loPI   C6A 6588   8.513   8.397   7.995 -0.2227  0.2705 -0.0271
  412loPI   C1B 6589   9.090   8.015   9.866 -0.4323 -0.1481  0.0414
  412loPI   C2B 6590   9.066   8.010   9.419  0.0431 -0.1444  0.2065
  412loPI   C3B 6591   9.185   8.052   9.053  0.0576  0.0635  0.1834
  412loPI   C4B 6592   9.116   8.079   8.644  0.0709  0.1670  0.1453
  413loPI    C1 6593   7.821  13.532  11.180  0.0027  0.2225 -0.1567
  413loPI    C2 6594   7.649  13.777  11.446 -0.0673  0.0320 -0.0245
  413loPI    C3 6595   7.745  13.403  11.550 -0.2124 -0.0865 -0.3043
  413loPI   PO4 6596   7.561  13.617  10.942 -0.0708  0.0066  0.0810
  413loPI   GL1 6597   7.444  13.872  10.650  0.0353  0.1172  0.1315
  413loPI   GL2 6598   7.178  13.980  10.636  0.2972 -0.3336 -0.1407
  413loPI   C1A 6599   7.494  13.861  10.237  0.3616  0.0967 -0.1623
  413loPI   C2A 6600   7.574  13.888   9.810  0.0360 -0.2230 -0.1452
  413loPI   C3A 6601   7.524  13.819   9.422 -0.0475 -0.0548 -0.1159
  413loPI   C4A 6602   7.535  13.805   9.106 -0.1138 -0.1689 -0.2414
  413loPI   C5A 6603   7.341  13.965   8.770 -0.0666  0.3122  0.0160
  413loPI   C6A 6604   7.067  14.199   8.493 -0.3771  0.0887 -0.5553
  413loPI   C1B 6605   7.055  13.977  10.329  0.2937 -0.3831  0.0269
  413loPI   C2B 6606   7.136  14.126   9.975  0.0066 -0.0485 -0.2093
  413loPI   C3B 6607   7.159  14.052   9.613 -0.4032 -0.2494 -0.3321
  413loPI   C4B 6608   7.107  14.091   9.225 -0.1727  0.2146  0.3790
  414loPI    C1 6609   2.105  11.750  10.802  0.0409  0.0701 -0.0551
  414loPI    C2 6610   2.440  11.546  10.879 -0.0483 -0.0260  0.0836
  414loPI    C3 6611   2.085  11.392  10.979 -0.1463  0.0028 -0.2093
  414loPI   PO4 6612   2.099  11.790  10.523  0.2577  0.2865  0.2295
  414loPI   GL1 6613   2.222  11.868  10.186 -0.2205  0.0322  0.1272
  414loPI   GL2 6614   1.999  11.915   9.931 -0.2643  0.1191 -0.1414
  414loPI   C1A 6615   2.477  11.694   9.851  0.2121 -0.4506 -0.1055
  414loPI   C2A 6616   2.499  11.758   9.406 -0.0827 -0.1725 -0.1180
  414loPI   C3A 6617   2.598  11.726   9.036  0.2512 -0.1360 -0.2820
  414loPI   C4A 6618   2.551  11.745   8.643  0.2311  0.0343 -0.0301
  414loPI   C5A 6619   2.677  11.773   8.242 -0.1712  0.2223 -0.0505
  414loPI   C6A 6620   2.395  11.697   7.772  0.5352  0.0984 -0.0389
  414loPI   C1B 6621   2.130  12.051   9.560 -0.2941 -0.1245 -0.1889
  414loPI   C2B 6622   2.083  12.035   9.096 -0.1152  0.3607  0.1485
  414loPI   C3B 6623   2.141  12.038   8.680  0.0768  0.2888  0.1542
  414loPI   C4B 6624   2.215  12.047   8.229 -0.0799 -0.0876 -0.1179
  415loPI    C1 6625  11.779  16.358  10.819 -0.0802 -0.0642 -0.2414
  415loPI    C2 6626  11.836  16.005  10.998  0.1189  0.1440  0.1168
  415loPI    C3 6627  11.504  16.215  11.073  0.0399  0.0737 -0.0314
  415loPI   PO4 6628  11.765  16.342  10.583  0.2635  0.2083 -0.0617
  415loPI   GL1 6629  11.606  16.514  10.202 -0.0910 -0.0323  0.1187
  415loPI   GL2 6630  11.276  16.465  10.274 -0.3969 -0.0373  0.4525
  415loPI   C1A 6631  11.790  16.439   9.793 -0.2027 -0.0246  0.0516
  415loPI   C2A 6632  11.708  16.525   9.369 -0.2848  0.0226 -0.0827
  415loPI   C3A 6633  11.801  16.493   8.938  0.2809  0.0693 -0.2544
  415loPI   C4A 6634  11.818  16.593   8.582  0.1252 -0.0655  0.2860
  415loPI   C5A 6635  11.963  16.576   8.188 -0.2236  0.1681 -0.0562
  415loPI   C6A 6636  12.095  16.833   7.910 -0.2675  0.0292  0.1965
  415loPI   C1B 6637  11.308  16.268   9.916  0.1663 -0.1142  0.3098
  415loPI   C2B 6638  11.316  16.312   9.540  0.1420 -0.0161 -0.0440
  415loPI   C3B 6639  11.249  16.333   9.086 -0.1208  0.0415 -0.0605
  415loPI   C4B 6640  11.368  16.387   8.767  0.0940  0.2233  0.1532
  416loPI    C1 6641   0.677  17.787  10.995  0.1097 -0.0102  0.1063
  416loPI    C2 6642   0.280  17.751  11.017  0.1164 -0.0773  0.1221
  416loPI    C3 6643   0.470  18.018  11.246  0.0580  0.1134 -0.0483
  416loPI   PO4 6644   0.729  17.471  11.012  0.0641 -0.0930  0.0732
  416loPI   GL1 6645   0.602  17.180  10.615 -0.1572  0.0918  0.0549
  416loPI   GL2 6646   0.504  17.545  10.544  0.2995  0.2131 -0.0020
  416loPI   C1A 6647   0.463  16.948  10.299  0.4575 -0.1223  0.1009
  416loPI   C2A 6648   0.404  16.791   9.833  0.2208 -0.0659  0.2091
  416loPI   C3A 6649   0.465  16.798   9.317  0.2129 -0.4509  0.0960
  416loPI   C4A 6650   0.631  16.743   8.968 -0.4758  0.1356 -0.0375
  416loPI   C5A 6651   0.693  16.757   8.535 -0.0726 -0.2258  0.4293
  416loPI   C6A 6652   0.577  16.900   8.155  0.1360  0.1484  0.2493
  416loPI   C1B 6653   0.523  17.388  10.073  0.0139  0.0846  0.2381
  416loPI   C2B 6654   0.471  17.236   9.630  0.1534  0.0870 -0.0059
  416loPI   C3B 6655   0.567  17.323   9.181  0.2913 -0.1312  0.1099
  416loPI   C4B 6656   0.569  17.280   8.762  0.1068  0.0085 -0.3252
  417loPI    C1 6657  16.169   9.086  10.256  0.2158  0.1632 -0.0216
  417loPI    C2 6658  15.893   9.208  10.519 -0.1006  0.0026 -0.2707
  417loPI    C3 6659  16.143   8.910  10.614  0.1723  0.3257  0.0556
  417loPI   PO4 6660  15.939   9.097   9.995 -0.0981 -0.1383 -0.1693
  417loPI   GL1 6661  15.878   8.914   9.571 -0.4221  0.1076  0.0800
  417loPI   GL2 6662  15.950   8.542   9.521  0.0569 -0.1053  0.0415
  417loPI   C1A 6663  15.843   8.996   9.150  0.0185  0.0418 -0.0259
  417loPI   C2A 6664  16.076   8.928   8.773  0.2464 -0.2301  0.2536
  417loPI   C3A 6665  15.887   8.983   8.305 -0.3435 -0.0646 -0.3406
  417loPI   C4A 6666  15.778   9.143   7.882  0.1255 -0.0649 -0.0785
  417loPI   C5A 6667  15.439   9.136   7.686  0.0354  0.1078  0.0712
  417loPI   C6A 6668  15.059   8.840   7.606 -0.0435 -0.4303 -0.1882
  417loPI   C1B 6669  15.994   8.541   9.033  0.0067 -0.0342 -0.5702
  417loPI   C2B 6670  15.899   8.478   8.579 -0.1227 -0.0928  0.1039
  417loPI   C3B 6671  15.818   8.549   8.111  0.0307 -0.3086  0.1659
  417loPI   C4B 6672  15.646   8.680   7.680  0.2284  0.1645 -0.0968
  418loPI    C1 6673  16.782   3.280  10.248 -0.0623  0.2362 -0.1650
  418loPI    C2 6674  16.632   3.510  10.538 -0.1680 -0.1506  0.0952
  418loPI    C3 6675  16.756   3.139  10.621  0.1795 -0.1253 -0.2793
  418loPI   PO4 6676  16.553   3.300  10.096 -0.0691  0.2253  0.1217
  418loPI   GL1 6677  16.547   3.144   9.680  0.0100 -0.0162  0.1500
  418loPI   GL2 6678  16.397   2.850   9.795  0.1641 -0.0323  0.3152
  418loPI   C1A 6679  16.612   3.162   9.203 -0.2071 -0.1589  0.2735
  418loPI   C2A 6680  16.624   3.135   8.815  0.3733  0.0950  0.0499
  418loPI   C3A 6681  16.535   3.116   8.331  0.3153 -0.0188 -0.0328
  418loPI   C4A 6682  16.606   3.157   7.922 -0.0860 -0.3781 -0.0802
  418loPI   C5A 6683  16.951   3.247   7.615  0.0536 -0.1833  0.1502
  418loPI   C6A 6684  17.171   3.133   7.318  0.2899 -0.0474  0.5152
  418loPI   C1B 6685  16.535   2.639   9.488 -0.2379  0.0745 -0.1027
  418loPI   C2B 6686  16.454   2.750   9.048  0.1921 -0.0916 -0.1417
  418loPI   C3B 6687  16.484   2.643   8.643  0.1504 -0.2536  0.2507
  418loPI   C4B 6688  16.393   2.592   8.158 -0.1268  0.1446 -0.0390
  419loPI    C1 6689  17.208  11.578  10.868  0.2352 -0.0624 -0.1538
  419loPI    C2 6690  17.586  11.613  10.994  0.2367  0.1833 -0.2219
  419loPI    C3 6691  17.291  11.564  11.259  0.3148 -0.0023 -0.1682
  419loPI   PO4 6692  17.174  11.751  10.637  0.1389  0.4166 -0.1146
  419loPI   GL1 6693  17.258  11.758  10.329  0.1320 -0.1916 -0.0549
  419loPI   GL2 6694  16.918  11.667  10.227 -0.0831  0.3024  0.0955
  419loPI   C1A 6695  17.332  11.992   9.935  0.1503 -0.0140  0.2043
  419loPI   C2A 6696  17.368  11.943   9.552 -0.3182  0.1336  0.1560
  419loPI   C3A 6697  17.453  11.994   9.070 -0.1313 -0.1096 -0.4864
  419loPI   C4A 6698  17.464  11.911   8.688  0.2279  0.3902 -0.1300
  419loPI   C5A 6699  17.294  11.971   8.256 -0.1853 -0.2275  0.0968
  419loPI   C6A 6700  17.379  12.003   7.802  0.0941  0.0857  0.0411
  419loPI   C1B 6701  16.956  11.651   9.754 -0.1739  0.0698  0.2222
  419loPI   C2B 6702  16.861  11.687   9.323  0.0052  0.0838  0.0241
  419loPI   C3B 6703  16.917  11.685   8.777  0.2186  0.3832  0.0682
  419loPI   C4B 6704  16.912  11.613   8.370 -0.3318  0.0751  0.0502
  420loPI    C1 6705   7.800  17.504  11.050  0.2268 -0.1495  0.0767
  420loPI    C2 6706   7.938  17.594  11.414 -0.0071  0.2347  0.0753
  420loPI    C3 6707   7.621  17.354  11.375 -0.0616  0.2967  0.1321
  420loPI   PO4 6708   8.072  17.507  10.871  0.2168  0.2264 -0.2405
  420loPI   GL1 6709   8.230  17.360  10.531 -0.0358 -0.1989  0.1930
  420loPI   GL2 6710   7.957  17.513  10.341  0.1194 -0.0330  0.2782
  420loPI   C1A 6711   8.293  17.246  10.128  0.0257  0.1030  0.1326
  420loPI   C2A 6712   8.317  17.315   9.748 -0.0175 -0.0799 -0.2659
  420loPI   C3A 6713   8.226  17.202   9.429 -0.2223  0.2138 -0.1748
  420loPI   C4A 6714   8.135  17.233   9.003 -0.1473 -0.0129  0.2888
  420loPI   C5A 6715   8.120  17.147   8.526 -0.2634  0.1278  0.2486
  420loPI   C6A 6716   8.256  17.313   8.095 -0.4308  0.0178 -0.0185
  420loPI   C1B 6717   7.890  17.512  10.037  0.0005  0.0919 -0.0928
  420loPI   C2B 6718   7.832  17.539   9.595 -0.0894  0.1383 -0.2287
  420loPI   C3B 6719   7.730  17.501   9.162 -0.1056  0.1567 -0.0984
  420loPI   C4B 6720   7.749  17.531   8.846  0.1932 -0.1917 -0.2397
  421loPI    C1 6721   7.258   5.863  10.334 -0.1023 -0.0407 -0.0118
  421loPI    C2 6722   7.094   6.060  10.641  0.2861  0.2509  0.0176
  421loPI    C3 6723   7.340   5.752  10.710 -0.0252 -0.0116 -0.0197
  421loPI   PO4 6724   7.337   6.051  10.181 -0.1121  0.0590 -0.1775
  421loPI   GL1 6725   7.388   6.025   9.855 -0.0330 -0.0760  0.1101
  421loPI   GL2 6726   7.588   5.750   9.935  0.1697  0.0724  0.0425
  421loPI   C1A 6727   7.641   6.183   9.535 -0.0363 -0.1800 -0.1261
  421loPI   C2A 6728   7.639   6.268   9.064  0.0241  0.2434 -0.1972
  421loPI   C3A 6729   7.693   6.263   8.670  0.3806 -0.3557 -0.0042
  421loPI   C4A 6730   7.768   6.307   8.214  0.2443  0.2383 -0.0946
  421loPI   C5A 6731   7.596   6.314   7.802 -0.0440  0.1229 -0.0221
  421loPI   C6A 6732   7.601   6.043   7.496 -0.2037  0.0113 -0.2357
  421loPI   C1B 6733   7.600   5.712   9.567 -0.0933  0.0117  0.1179
  421loPI   C2B 6734   7.666   5.742   9.163  0.0878  0.0977  0.0368
  421loPI   C3B 6735   7.643   5.756   8.736 -0.1856 -0.1201  0.1966
  421loPI   C4B 6736   7.583   5.504   8.387 -0.1257 -0.1165 -0.0452
  422loPI    C1 6737  11.840   0.575  10.566 -0.3245 -0.1516  0.0463
  422loPI    C2 6738  11.904   0.958  10.473  0.0318 -0.2385 -0.0824
  422loPI    C3 6739  12.046   0.809  10.816  0.0262 -0.2927 -0.1037
  422loPI   PO4 6740  11.957   0.472  10.370  0.2042 -0.1921  0.3338
  422loPI   GL1 6741  11.897   0.743   9.974 -0.2908  0.1268 -0.1099
  422loPI   GL2 6742  12.226   0.877  10.007  0.1487 -0.0500  0.0846
  422loPI   C1A 6743  11.830   0.803   9.639  0.0677  0.0839  0.1472
  422loPI   C2A 6744  11.889   0.773   9.174 -0.0702  0.2037  0.0618
  422loPI   C3A 6745  11.830   0.758   8.796 -0.2066 -0.0671 -0.3681
  422loPI   C4A 6746  11.772   0.880   8.390 -0.1482  0.0266 -0.0769
  422loPI   C5A 6747  11.471   0.804   8.137  0.0852  0.0403  0.2704
  422loPI   C6A 6748  11.174   1.080   7.843 -0.3636 -0.0280 -0.0670
  422loPI   C1B 6749  12.361   0.972   9.635  0.1638  0.0311 -0.0460
  422loPI   C2B 6750  12.325   1.006   9.128 -0.0812 -0.2974 -0.1894
  422loPI   C3B 6751  12.287   1.098   8.723  0.1583  0.1195 -0.1327
  422loPI   C4B 6752  12.228   1.167   8.330 -0.4126 -0.1204 -0.0753
  423loPI    C1 6753  12.554   3.188  10.361  0.0287  0.0629  0.0004
  423loPI    C2 6754  12.306   3.494  10.432 -0.1907 -0.1122 -0.0002
  423loPI    C3 6755  12.587   3.397  10.701 -0.1007  0.1056 -0.0130
  423loPI   PO4 6756  12.645   3.196  10.069 -0.2232 -0.4561 -0.2519
  423loPI   GL1 6757  12.377   2.950   9.852 -0.1998 -0.0650  0.1443
  423loPI   GL2 6758  12.146   3.135  10.035 -0.5373  0.0909 -0.3653
  423loPI   C1A 6759  12.475   3.180   9.479 -0.0338 -0.2206  0.0876
  423loPI   C2A 6760  12.466   3.001   9.051  0.2435  0.0528 -0.0777
  423loPI   C3A 6761  12.439   3.157   8.550 -0.1206 -0.0132 -0.0595
  423loPI   C4A 6762  12.484   3.198   8.101 -0.0411  0.0479 -0.2749
  423loPI   C5A 6763  12.428   3.228   7.719  0.3426  0.1917  0.3955
  423loPI   C6A 6764  12.658   3.308   7.324  0.0265 -0.0621  0.2476
  423loPI   C1B 6765  11.988   3.275   9.589 -0.1305  0.0301 -0.6421
  423loPI   C2B 6766  12.042   3.404   9.165  0.0949  0.0382  0.0133
  423loPI   C3B 6767  11.956   3.359   8.636  0.0341 -0.2619 -0.0839
  423loPI   C4B 6768  12.070   3.458   8.264 -0.1763  0.3633 -0.1398
  424loPI    C1 6769   3.330  18.167  10.398 -0.1550 -0.0428 -0.2089
  424loPI    C2 6770   3.077  18.474  10.436 -0.1777 -0.0689 -0.1490
  424loPI    C3 6771   3.376  18.428  10.697 -0.2402 -0.1598 -0.0931
  424loPI   PO4 6772   3.343  18.069  10.196 -0.2934  0.1544 -0.0943
  424loPI   GL1 6773   3.146  17.844   9.862  0.1525 -0.3642 -0.0758
  424loPI   GL2 6774   2.866  18.035   9.764  0.1930  0.1421  0.1912
  424loPI   C1A 6775   3.309  17.754   9.440  0.1200 -0.2191 -0.0341
  424loPI   C2A 6776   3.260  17.704   8.996 -0.0905  0.2073  0.2087
  424loPI   C3A 6777   3.289  17.780   8.496 -0.0526  0.1126 -0.0354
  424loPI   C4A 6778   3.502  17.850   8.031 -0.2390 -0.0673  0.3066
  424loPI   C5A 6779   3.862  17.860   8.023 -0.1173  0.3613  0.1001
  424loPI   C6A 6780   4.162  17.757   7.668 -0.3632 -0.0871 -0.0378
  424loPI   C1B 6781   2.811  18.022   9.242 -0.1476 -0.0788 -0.3953
  424loPI   C2B 6782   2.932  18.071   8.842 -0.1753  0.0789  0.0992
  424loPI   C3B 6783   2.863  18.076   8.397 -0.0426  0.1058 -0.2493
  424loPI   C4B 6784   2.961  17.875   8.016 -0.1201  0.1804 -0.2426
  425loPI    C1 6785  15.372  10.247  10.969 -0.0849 -0.1303  0.0975
  425loPI    C2 6786  15.101  10.452  11.181 -0.0140  0.1371 -0.0659
  425loPI    C3 6787  15.475  10.591  11.145 -0.0143  0.0757 -0.3322
  425loPI   PO4 6788  15.232  10.202  10.721 -0.0075 -0.3186 -0.0939
  425loPI   GL1 6789  15.122  10.281  10.352 -0.2380  0.0749 -0.0424
  425loPI   GL2 6790  15.403  10.314  10.106  0.3577 -0.0876  0.1982
  425loPI   C1A 6791  15.033  10.145   9.786 -0.1442  0.0884 -0.1011
  425loPI   C2A 6792  15.087  10.110   9.380  0.0405  0.1202  0.0494
  425loPI   C3A 6793  14.947  10.051   9.069  0.0194  0.2389 -0.3404
  425loPI   C4A 6794  15.079  10.073   8.645 -0.1725 -0.3180  0.1765
  425loPI   C5A 6795  15.019  10.144   8.287  0.2172 -0.2815  0.2359
  425loPI   C6A 6796  15.082  10.573   7.982 -0.0468  0.1346  0.3304
  425loPI   C1B 6797  15.533  10.377   9.660  0.0840 -0.0456 -0.4753
  425loPI   C2B 6798  15.529  10.402   9.335  0.2025 -0.0230 -0.0413
  425loPI   C3B 6799  15.460  10.350   8.950 -0.1214  0.0802 -0.0217
  425loPI   C4B 6800  15.560  10.320   8.521  0.1624 -0.2558 -0.0045
  426loPI    C1 6801   5.044   6.462  10.389  0.0698 -0.3931  0.0248
  426loPI    C2 6802   5.210   6.753  10.607  0.1407 -0.1762 -0.3109
  426loPI    C3 6803   5.101   6.410  10.782  0.0056  0.0688  0.1015
  426loPI   PO4 6804   5.085   6.579  10.104 -0.0165  0.0856 -0.0456
  426loPI   GL1 6805   4.963   6.476   9.627 -0.1586  0.0076 -0.2807
  426loPI   GL2 6806   5.156   6.291   9.567  0.3881 -0.0309 -0.0249
  426loPI   C1A 6807   4.744   6.382   9.357  0.2283 -0.2666 -0.0649
  426loPI   C2A 6808   4.699   6.399   8.934  0.2233 -0.0705  0.2283
  426loPI   C3A 6809   4.773   6.343   8.551 -0.1120 -0.0311 -0.0065
  426loPI   C4A 6810   4.944   6.299   8.127 -0.0636 -0.2758 -0.0447
  426loPI   C5A 6811   4.984   6.472   7.723  0.0969 -0.0050 -0.1574
  426loPI   C6A 6812   4.889   6.435   7.258  0.1125  0.0170 -0.2211
  426loPI   C1B 6813   5.181   6.268   9.113  0.4110  0.0706 -0.1845
  426loPI   C2B 6814   5.202   6.163   8.712  0.1003  0.2046 -0.1234
  426loPI   C3B 6815   5.426   6.115   8.360  0.1389  0.1038  0.2760
  426loPI   C4B 6816   5.266   5.916   7.911 -0.1934 -0.2494  0.1415
  427loPI    C1 6817   1.796  15.131  11.225 -0.1054 -0.2147  0.0862
  427loPI    C2 6818   1.464  15.338  11.142  0.2769  0.3099 -0.2012
  427loPI    C3 6819   1.663  15.407  11.482 -0.0390 -0.1956  0.1003
  427loPI   PO4 6820   1.852  14.979  11.004  0.1164  0.2819  0.1017
  427loPI   GL1 6821   2.043  15.118  10.592  0.1062 -0.0165  0.1272
  427loPI   GL2 6822   1.840  15.438  10.682  0.1602  0.2145  0.1743
  427loPI   C1A 6823   2.185  15.060  10.100  0.2352 -0.0158  0.0315
  427loPI   C2A 6824   2.244  15.200   9.687  0.0411  0.2221  0.0589
  427loPI   C3A 6825   2.223  15.154   9.253 -0.3736 -0.0140  0.1853
  427loPI   C4A 6826   2.279  15.174   8.793 -0.2162  0.2186  0.1761
  427loPI   C5A 6827   2.359  15.384   8.372  0.0758  0.4215  0.3332
  427loPI   C6A 6828   2.021  15.596   8.075 -0.1353  0.0944 -0.0764
  427loPI   C1B 6829   1.869  15.406  10.249 -0.0802 -0.0782 -0.1303
  427loPI   C2B 6830   1.780  15.447   9.835  0.0759  0.0072 -0.0079
  427loPI   C3B 6831   1.812  15.502   9.454 -0.1166  0.0058 -0.0957
  427loPI   C4B 6832   1.797  15.410   8.987  0.3320 -0.0799  0.0684
  428loPI    C1 6833  13.646   5.747  10.636 -0.0802 -0.1969  0.3606
  428loPI    C2 6834  13.712   6.011  10.930  0.0706  0.0033  0.1512
  428loPI    C3 6835  13.477   5.693  10.994  0.0717  0.0648  0.4748
  428loPI   PO4 6836  13.586   5.891  10.423  0.0898  0.0408  0.2451
  428loPI   GL1 6837  13.533   5.884   9.998 -0.0332  0.0254  0.1110
  428loPI   GL2 6838  13.570   6.121   9.667 -0.0356 -0.1369  0.2752
  428loPI   C1A 6839  13.437   5.661   9.621 -0.1214 -0.2372  0.1253
  428loPI   C2A 6840  13.526   5.585   9.139  0.1207 -0.1573 -0.1354
  428loPI   C3A 6841  13.463   5.631   8.772 -0.0410  0.3752 -0.1182
  428loPI   C4A 6842  13.375   5.650   8.262 -0.2992 -0.1370 -0.0480
  428loPI   C5A 6843  13.173   5.526   7.877 -0.1412 -0.1322  0.2109
  428loPI   C6A 6844  13.242   5.306   7.457 -0.1862  0.1665 -0.0130
  428loPI   C1B 6845  13.471   6.170   9.226  0.1292 -0.1119 -0.0267
  428loPI   C2B 6846  13.363   6.248   8.764 -0.0116 -0.2290 -0.0456
  428loPI   C3B 6847  13.364   6.147   8.291  0.0962 -0.0104  0.3511
  428loPI   C4B 6848  13.323   6.071   7.828  0.4141 -0.1236 -0.2602
  429loPI    C1 6849   5.518   8.558  10.935  0.0255  0.1754  0.1372
  429loPI    C2 6850   5.316   8.262  11.113  0.1042 -0.0795 -0.1882
  429loPI    C3 6851   5.552   8.501  11.329 -0.3413  0.0635  0.1570
  429loPI   PO4 6852   5.261   8.748  10.725  0.1698 -0.0544 -0.2714
  429loPI   GL1 6853   4.984   8.686  10.373 -0.1202 -0.1564 -0.2681
  429loPI   GL2 6854   4.619   8.722  10.352 -0.1762  0.0793 -0.0468
  429loPI   C1A 6855   5.102   8.881   9.964 -0.0864 -0.2214  0.3459
  429loPI   C2A 6856   5.095   8.988   9.537 -0.0839 -0.1936 -0.3469
  429loPI   C3A 6857   5.049   8.998   9.096  0.0019  0.1010 -0.0810
  429loPI   C4A 6858   5.073   9.040   8.590 -0.0025 -0.0299  0.2002
  429loPI   C5A 6859   5.164   9.054   8.139 -0.3072  0.1529  0.1757
  429loPI   C6A 6860   5.572   9.090   7.932  0.1256 -0.3666 -0.0892
  429loPI   C1B 6861   4.702   8.680   9.902  0.0135 -0.2645  0.1447
  429loPI   C2B 6862   4.611   8.751   9.557  0.0624 -0.0620  0.1973
  429loPI   C3B 6863   4.547   8.771   9.126  0.2641 -0.0300 -0.1700
  429loPI   C4B 6864   4.613   8.823   8.714 -0.0509  0.1357 -0.0139
  430loPI    C1 6865   5.449   6.205  10.145  0.3870  0.4097 -0.1119
  430loPI    C2 6866   5.546   6.354  10.504  0.1485  0.0558  0.1046
  430loPI    C3 6867   5.281   6.055  10.475  0.3281 -0.0680 -0.3510
  430loPI   PO4 6868   5.671   6.149   9.991  0.0207  0.2326 -0.0376
  430loPI   GL1 6869   6.052   6.168   9.783 -0.2394 -0.0593  0.0830
  430loPI   GL2 6870   5.882   5.856   9.657 -0.1425  0.1507  0.3078
  430loPI   C1A 6871   6.247   6.016   9.320 -0.1577  0.2109 -0.0303
  430loPI   C2A 6872   6.287   5.982   8.867  0.0615  0.0461  0.1394
  430loPI   C3A 6873   6.230   6.000   8.383 -0.0899 -0.0216 -0.1958
  430loPI   C4A 6874   6.235   5.896   8.008  0.2734 -0.1348  0.2063
  430loPI   C5A 6875   6.496   5.710   7.772  0.0548 -0.0217  0.0351
  430loPI   C6A 6876   6.857   5.372   7.714  0.0400  0.1051 -0.0196
  430loPI   C1B 6877   5.850   5.803   9.156  0.1171 -0.1002 -0.0591
  430loPI   C2B 6878   5.862   5.745   8.683 -0.2665 -0.0239 -0.1451
  430loPI   C3B 6879   5.772   5.776   8.236  0.4534 -0.1424  0.1746
  430loPI   C4B 6880   5.734   5.835   7.758 -0.2656  0.2477 -0.0082
  431loPI    C1 6881   2.385  18.139  10.800 -0.1850  0.2734 -0.0410
  431loPI    C2 6882   2.050  17.928  10.748 -0.2037  0.2598  0.1291
  431loPI    C3 6883   2.068  18.207  11.034 -0.0004  0.1113  0.2643
  431loPI   PO4 6884   2.475  18.017  10.540  0.1118 -0.1014  0.0652
  431loPI   GL1 6885   2.365  17.980  10.112  0.0794  0.2798  0.0576
  431loPI   GL2 6886   2.079  17.793  10.231 -0.1219 -0.0433  0.1448
  431loPI   C1A 6887   2.348  17.883   9.717  0.1412 -0.0438 -0.1291
  431loPI   C2A 6888   2.318  17.793   9.250  0.2599 -0.1393 -0.2167
  431loPI   C3A 6889   2.476  17.744   8.855 -0.1527  0.0321  0.1951
  431loPI   C4A 6890   2.410  17.851   8.505 -0.0278 -0.0366 -0.2289
  431loPI   C5A 6891   2.296  17.840   8.142 -0.2132  0.2933 -0.4398
  431loPI   C6A 6892   2.158  17.411   8.257 -0.1399 -0.2874  0.0085
  431loPI   C1B 6893   1.979  17.543   9.919 -0.1509 -0.2670 -0.2128
  431loPI   C2B 6894   1.856  17.491   9.497 -0.0798  0.2132  0.0070
  431loPI   C3B 6895   1.861  17.537   9.110  0.0370 -0.0179 -0.0737
  431loPI   C4B 6896   1.842  17.497   8.668  0.0488 -0.2597 -0.0106
  432loPI    C1 6897   1.077  15.739  11.182  0.0728  0.1628  0.1395
  432loPI    C2 6898   0.917  15.881  11.520  0.2925 -0.0054  0.3167
  432loPI    C3 6899   1.313  15.892  11.466  0.2737 -0.1438  0.1424
  432loPI   PO4 6900   0.982  15.929  10.973  0.0633  0.2423  0.3346
  432loPI   GL1 6901   0.764  15.922  10.415 -0.0972 -0.0630 -0.0480
  432loPI   GL2 6902   0.972  15.710  10.553  0.3541  0.2733  0.0557
  432loPI   C1A 6903   0.822  16.168   9.988 -0.1032 -0.1431  0.0768
  432loPI   C2A 6904   0.994  16.078   9.464 -0.2328  0.1372 -0.0515
  432loPI   C3A 6905   1.022  16.020   9.023  0.1621  0.3390  0.1310
  432loPI   C4A 6906   0.939  15.936   8.562  0.2477  0.1531  0.1518
  432loPI   C5A 6907   0.929  15.918   8.221 -0.4399  0.1259 -0.1053
  432loPI   C6A 6908   0.897  16.026   7.732 -0.1263  0.0122 -0.0499
  432loPI   C1B 6909   0.940  15.604  10.107 -0.3011 -0.1678 -0.0079
  432loPI   C2B 6910   0.887  15.581   9.660  0.3495  0.1298  0.1049
  432loPI   C3B 6911   0.898  15.436   9.203 -0.2966  0.0320 -0.2647
  432loPI   C4B 6912   0.933  15.504   8.810  0.1260 -0.1109 -0.5256
  433loPI    C1 6913  18.369   1.494  10.541 -0.1872 -0.3985 -0.0541
  433loPI    C2 6914  18.703   1.353  10.710  0.0025  0.0678 -0.0243
  433loPI    C3 6915  18.363   1.366  10.919  0.0217 -0.1827  0.0252
  433loPI   PO4 6916  18.363   1.347  10.319 -0.2124  0.2828  0.2013
  433loPI   GL1 6917  18.033   1.114   9.982  0.5059  0.1119  0.0367
  433loPI   GL2 6918  17.991   1.423   9.958 -0.3544  0.1419 -0.0866
  433loPI   C1A 6919  18.069   0.973   9.602  0.0093 -0.0049 -0.0372
  433loPI   C2A 6920  18.100   0.928   9.179  0.0134 -0.0027  0.1785
  433loPI   C3A 6921  18.127   0.929   8.817  0.0825  0.3189  0.0923
  433loPI   C4A 6922  18.230   1.033   8.367  0.1644  0.0331  0.2687
  433loPI   C5A 6923  18.482   0.976   7.983  0.2734 -0.0929  0.0997
  433loPI   C6A 6924  18.813   0.814   7.763 -0.0928  0.2004  0.0340
  433loPI   C1B 6925  18.307   1.517   9.663  0.1505 -0.5147 -0.5478
  433loPI   C2B 6926  18.470   1.313   9.307  0.0738  0.1619  0.0052
  433loPI   C3B 6927  18.512   1.299   8.814 -0.2599 -0.0404 -0.0474
  433loPI   C4B 6928  18.605   1.338   8.406 -0.0102 -0.3339 -0.0563
  434loPI    C1 6929   1.944   4.240  10.045  0.2400 -0.0318 -0.1392
  434loPI    C2 6930   2.288   4.330  10.228  0.0306  0.1965  0.1510
  434loPI    C3 6931   2.073   4.015  10.350 -0.0991  0.3369  0.2904
  434loPI   PO4 6932   2.009   4.450   9.820  0.1726 -0.2884 -0.3213
  434loPI   GL1 6933   1.910   4.562   9.502 -0.0235  0.1166  0.0806
  434loPI   GL2 6934   1.706   4.802   9.437  0.0149  0.0811 -0.0777
  434loPI   C1A 6935   1.979   4.482   9.095 -0.0830 -0.1107 -0.1908
  434loPI   C2A 6936   2.024   4.476   8.689  0.2151  0.0630 -0.1677
  434loPI   C3A 6937   2.003   4.340   8.319  0.1682 -0.0574  0.1244
  434loPI   C4A 6938   2.021   4.244   7.905 -0.1201  0.0991  0.0574
  434loPI   C5A 6939   2.240   4.360   7.505  0.1948  0.0398  0.0855
  434loPI   C6A 6940   2.108   4.694   7.217 -0.0623  0.0756 -0.1623
  434loPI   C1B 6941   1.639   4.763   8.955 -0.2735 -0.1074  0.0086
  434loPI   C2B 6942   1.676   4.772   8.523 -0.1156  0.1733 -0.0382
  434loPI   C3B 6943   1.669   4.711   8.142 -0.2542  0.0527  0.0417
  434loPI   C4B 6944   1.372   4.778   7.904  0.1842  0.3015 -0.1536
  435loPI    C1 6945   4.573  12.484  11.397  0.0489 -0.0882  0.0788
  435loPI    C2 6946   4.285  12.238  11.267  0.0547 -0.0322 -0.0412
  435loPI    C3 6947   4.190  12.562  11.481  0.0275 -0.0087 -0.0885
  435loPI   PO4 6948   4.675  12.552  11.148  0.0422  0.0928 -0.1836
  435loPI   GL1 6949   4.710  12.502  10.675 -0.3356 -0.0441 -0.0956
  435loPI   GL2 6950   4.525  12.639  10.545 -0.0686 -0.0398  0.1732
  435loPI   C1A 6951   4.925  12.378  10.248 -0.0142  0.1489  0.2165
  435loPI   C2A 6952   4.842  12.341   9.747  0.1146  0.1641 -0.3689
  435loPI   C3A 6953   4.800  12.464   9.381  0.0176 -0.4038  0.2862
  435loPI   C4A 6954   4.807  12.379   9.011 -0.0737  0.0226  0.1190
  435loPI   C5A 6955   4.914  12.351   8.562 -0.1438 -0.3615 -0.0760
  435loPI   C6A 6956   5.172  12.271   8.263 -0.0388  0.0220  0.1531
  435loPI   C1B 6957   4.389  12.611  10.134  0.0849  0.1154 -0.3621
  435loPI   C2B 6958   4.416  12.736   9.722  0.1198 -0.2269  0.1043
  435loPI   C3B 6959   4.376  12.720   9.178 -0.1764  0.3614 -0.2462
  435loPI   C4B 6960   4.468  12.668   8.786 -0.2105 -0.4317 -0.2135
  436loPI    C1 6961  12.792   0.950  10.601 -0.0132 -0.0002 -0.2236
  436loPI    C2 6962  13.005   0.632  10.717  0.2382  0.2390 -0.0144
  436loPI    C3 6963  13.022   0.972  10.928 -0.3140  0.2819 -0.0250
  436loPI   PO4 6964  12.818   0.964  10.355 -0.1057 -0.3184 -0.1747
  436loPI   GL1 6965  12.674   1.027  10.026 -0.1291 -0.1944 -0.1469
  436loPI   GL2 6966  12.707   0.682   9.952 -0.0160 -0.0524  0.0731
  436loPI   C1A 6967  12.765   1.257   9.559  0.0507  0.0236  0.3229
  436loPI   C2A 6968  12.778   1.258   9.104  0.1491 -0.0559  0.0568
  436loPI   C3A 6969  12.863   1.334   8.679 -0.0977 -0.1053  0.3117
  436loPI   C4A 6970  12.791   1.386   8.231 -0.0174  0.1223 -0.1386
  436loPI   C5A 6971  12.522   1.441   7.899  0.0998  0.1161  0.3830
  436loPI   C6A 6972  12.478   1.476   7.474 -0.1469 -0.0318 -0.0856
  436loPI   C1B 6973  12.739   0.698   9.481 -0.3372  0.1449 -0.1592
  436loPI   C2B 6974  12.796   0.718   9.073  0.0133  0.1872 -0.0335
  436loPI   C3B 6975  12.716   0.772   8.700 -0.2512  0.0984 -0.4802
  436loPI   C4B 6976  12.672   0.917   8.319  0.1480 -0.0594  0.1325
  437loPI    C1 6977   5.633   1.557  10.604 -0.1487  0.2362 -0.1225
  437loPI    C2 6978   5.949   1.660  10.827  0.0235  0.1483 -0.3218
  437loPI    C3 6979   5.660   1.431  10.983  0.2667 -0.1241 -0.2633
  437loPI   PO4 6980   5.750   1.599  10.329  0.1251  0.4074  0.1075
  437loPI   GL1 6981   5.733   1.885   9.965 -0.6121  0.0211 -0.1426
  437loPI   GL2 6982   5.650   1.619   9.774 -0.2335 -0.3518  0.4003
  437loPI   C1A 6983   5.579   2.093   9.532 -0.0877  0.0452 -0.0506
  437loPI   C2A 6984   5.609   2.006   9.022 -0.0120  0.1700  0.0152
  437loPI   C3A 6985   5.679   2.066   8.650  0.4442 -0.3323 -0.1122
  437loPI   C4A 6986   5.616   2.088   8.153  0.2405 -0.1560 -0.2646
  437loPI   C5A 6987   5.290   1.914   7.912  0.4198 -0.0658  0.0001
  437loPI   C6A 6988   4.951   1.863   7.684 -0.1471 -0.0930  0.1186
  437loPI   C1B 6989   5.639   1.646   9.357 -0.0024  0.1940  0.2462
  437loPI   C2B 6990   5.694   1.426   8.949 -0.2843 -0.0222  0.1493
  437loPI   C3B 6991   5.739   1.509   8.533  0.3188  0.2160  0.1244
  437loPI   C4B 6992   5.774   1.391   8.119  0.0382 -0.2791 -0.0977
  438loPI    C1 6993   3.472   0.655  10.429 -0.1771 -0.0094  0.1017
  438loPI    C2 6994   3.730   0.548  10.716 -0.1347 -0.0828  0.0366
  438loPI    C3 6995   3.502   0.873  10.763 -0.0095 -0.0009  0.0822
  438loPI   PO4 6996   3.587   0.725  10.257 -0.0662  0.0873 -0.0305
  438loPI   GL1 6997   3.559   0.591   9.804  0.0743  0.0614 -0.2012
  438loPI   GL2 6998   3.855   0.687   9.612  0.2189 -0.2680 -0.3442
  438loPI   C1A 6999   3.333   0.404   9.446  0.4928  0.0136 -0.0324
  438loPI   C2A 7000   3.326   0.395   9.026  0.2501  0.2246 -0.0345
  438loPI   C3A 7001   3.348   0.337   8.572 -0.0414  0.0929 -0.0690
  438loPI   C4A 7002   3.491   0.349   8.109 -0.0844 -0.3576  0.0099
  438loPI   C5A 7003   3.655   0.196   7.689  0.0635  0.1722  0.2869
  438loPI   C6A 7004   3.940   0.250   7.408 -0.1352 -0.4543  0.2497
  438loPI   C1B 7005   3.860   0.675   9.227  0.0833 -0.1450 -0.1962
  438loPI   C2B 7006   3.792   0.655   8.784  0.1045  0.1444 -0.0060
  438loPI   C3B 7007   3.834   0.609   8.335 -0.0844  0.1030  0.2182
  438loPI   C4B 7008   3.957   0.585   7.875  0.2258 -0.0250  0.2346
  439loPI    C1 7009  16.438   5.286  10.438 -0.2252  0.0527 -0.0962
  439loPI    C2 7010  16.176   5.123  10.693 -0.0600 -0.2073 -0.0900
  439loPI    C3 7011  16.552   4.986  10.677  0.0709  0.1454 -0.1168
  439loPI   PO4 7012  16.361   5.308  10.153  0.1147  0.2652 -0.1889
  439loPI   GL1 7013  16.478   5.104   9.808 -0.0454 -0.0598 -0.0316
  439loPI   GL2 7014  16.589   5.185   9.420  0.1599 -0.1196  0.2106
  439loPI   C1A 7015  16.365   4.728   9.598 -0.1346 -0.0139  0.0845
  439loPI   C2A 7016  16.256   4.537   9.196  0.0159 -0.3650  0.0686
  439loPI   C3A 7017  16.148   4.417   8.766 -0.0780 -0.0061 -0.0816
  439loPI   C4A 7018  16.177   4.396   8.361  0.1096 -0.1659  0.3052
  439loPI   C5A 7019  16.103   4.438   7.909 -0.1606  0.1325  0.2278
  439loPI   C6A 7020  16.185   4.207   7.576 -0.1745  0.0945 -0.1948
  439loPI   C1B 7021  16.674   5.308   9.041 -0.2522  0.1007 -0.0535
  439loPI   C2B 7022  16.677   5.163   8.665  0.0640 -0.2498  0.0274
  439loPI   C3B 7023  16.746   5.107   8.256  0.3204 -0.4194  0.0481
  439loPI   C4B 7024  16.578   5.218   7.840 -0.2591 -0.0580  0.1504
  440loPI    C1 7025   7.087  13.366  11.042  0.0982  0.0216 -0.0810
  440loPI    C2 7026   7.237  13.548  11.365  0.1548  0.0148 -0.1033
  440loPI    C3 7027   7.402  13.209  11.232  0.1847  0.0627 -0.1892
  440loPI   PO4 7028   7.098  13.477  10.877 -0.1560 -0.2532  0.0944
  440loPI   GL1 7029   7.156  13.485  10.424  0.1866 -0.2368  0.1012
  440loPI   GL2 7030   7.402  13.357  10.543 -0.4098  0.2503 -0.1333
  440loPI   C1A 7031   7.029  13.626   9.951 -0.1562 -0.1148 -0.0409
  440loPI   C2A 7032   7.104  13.555   9.629  0.0303  0.0501  0.3514
  440loPI   C3A 7033   7.063  13.598   9.231 -0.0610 -0.1423  0.1979
  440loPI   C4A 7034   7.075  13.536   8.867  0.3972  0.3671 -0.0451
  440loPI   C5A 7035   7.188  13.645   8.420 -0.1626 -0.1485 -0.2574
  440loPI   C6A 7036   7.239  13.602   8.021  0.0795  0.0319 -0.5647
  440loPI   C1B 7037   7.488  13.356  10.075 -0.0248  0.0917  0.1203
  440loPI   C2B 7038   7.519  13.328   9.581  0.1914 -0.1909  0.2712
  440loPI   C3B 7039   7.518  13.307   9.162 -0.2266  0.0630  0.1225
  440loPI   C4B 7040   7.541  13.382   8.772 -0.2849 -0.2662  0.2148
  441loPI    C1 7041  16.504  13.976  11.167 -0.1376  0.1734 -0.0303
  441loPI    C2 7042  16.197  14.052  11.411 -0.0961  0.2361  0.0031
  441loPI    C3 7043  16.558  13.972  11.564 -0.0523  0.3501 -0.0387
  441loPI   PO4 7044  16.403  13.766  11.016 -0.1765 -0.0589  0.0314
  441loPI   GL1 7045  16.431  13.675  10.600  0.0946 -0.0210 -0.1241
  441loPI   GL2 7046  16.534  13.914  10.567  0.0574 -0.0203  0.0582
  441loPI   C1A 7047  16.199  13.428  10.325 -0.0502 -0.2931 -0.2529
  441loPI   C2A 7048  16.117  13.221   9.941  0.0477 -0.1714 -0.3107
  441loPI   C3A 7049  16.065  13.269   9.531 -0.0205  0.1120  0.2088
  441loPI   C4A 7050  16.025  13.192   9.139  0.0558  0.2574  0.2654
  441loPI   C5A 7051  16.137  13.255   8.701  0.0964 -0.1320 -0.2445
  441loPI   C6A 7052  16.089  13.166   8.194 -0.2154  0.2437 -0.0750
  441loPI   C1B 7053  16.475  13.928  10.139  0.0518  0.1478  0.1354
  441loPI   C2B 7054  16.600  14.063   9.834 -0.2792 -0.1776 -0.3436
  441loPI   C3B 7055  16.541  13.995   9.547  0.0107  0.1407 -0.4398
  441loPI   C4B 7056  16.597  13.913   9.021 -0.0999 -0.0948  0.0301
  442loPI    C1 7057  15.486   6.634  10.278  0.0082  0.1478  0.0595
  442loPI    C2 7058  15.253   6.485  10.568  0.0359 -0.1321 -0.0592
  442loPI    C3 7059  15.651   6.468  10.603  0.0398  0.0126 -0.0253
  442loPI   PO4 7060  15.509   6.553   9.954 -0.0680 -0.1336 -0.0888
  442loPI   GL1 7061  15.290   6.653   9.623 -0.0589  0.0844  0.0143
  442loPI   GL2 7062  14.903   6.564   9.599 -0.2258  0.0074  0.0136
  442loPI   C1A 7063  15.293   6.623   9.246  0.0081 -0.1452  0.2188
  442loPI   C2A 7064  15.279   6.616   8.820  0.2009  0.1016 -0.4180
  442loPI   C3A 7065  15.280   6.570   8.347  0.3027  0.0772 -0.2627
  442loPI   C4A 7066  15.390   6.674   7.919  0.2654  0.0449 -0.2296
  442loPI   C5A 7067  15.697   6.548   7.588  0.0435  0.1880 -0.2198
  442loPI   C6A 7068  15.847   6.284   7.296 -0.0584  0.1499 -0.0698
  442loPI   C1B 7069  14.840   6.405   9.186  0.2491 -0.3190  0.0460
  442loPI   C2B 7070  14.810   6.402   8.755  0.4038 -0.1888 -0.4264
  442loPI   C3B 7071  14.906   6.266   8.391 -0.2569  0.0304 -0.1353
  442loPI   C4B 7072  14.823   6.491   8.027  0.0025 -0.0455  0.2475
  443loPI    C1 7073  14.998   2.067  10.448  0.1057 -0.1141 -0.0507
  443loPI    C2 7074  15.251   1.944  10.733  0.1299 -0.1512 -0.0880
  443loPI    C3 7075  14.856   1.921  10.792  0.1351 -0.0449 -0.0092
  443loPI   PO4 7076  15.067   2.160  10.225  0.0112 -0.1309  0.0222
  443loPI   GL1 7077  15.161   2.321   9.838 -0.1277  0.3400 -0.3489
  443loPI   GL2 7078  15.472   2.166   9.798  0.2209  0.3833  0.2324
  443loPI   C1A 7079  15.164   2.476   9.438  0.2538 -0.0632 -0.2324
  443loPI   C2A 7080  15.049   2.439   9.067 -0.4029 -0.0903 -0.2378
  443loPI   C3A 7081  15.073   2.398   8.679 -0.1110 -0.0288  0.3150
  443loPI   C4A 7082  15.186   2.445   8.275 -0.1916  0.4152  0.1383
  443loPI   C5A 7083  15.159   2.361   7.915  0.0129  0.2245 -0.0520
  443loPI   C6A 7084  15.442   2.411   7.647  0.1834  0.2021 -0.1158
  443loPI   C1B 7085  15.546   2.158   9.284  0.1993 -0.2865 -0.2214
  443loPI   C2B 7086  15.533   2.156   8.838 -0.3076  0.4131  0.0446
  443loPI   C3B 7087  15.564   2.123   8.455 -0.1288  0.1432 -0.1533
  443loPI   C4B 7088  15.550   2.058   8.055 -0.3793  0.0537 -0.0345
  444loPI    C1 7089   9.425  16.194  10.980 -0.0452  0.0408  0.1687
  444loPI    C2 7090   9.203  16.095  11.297  0.1382 -0.0395  0.2739
  444loPI    C3 7091   9.458  15.830  11.141 -0.1120 -0.0788 -0.0820
  444loPI   PO4 7092   9.225  16.280  10.742  0.2326  0.5126  0.1222
  444loPI   GL1 7093   9.371  16.278  10.332  0.0081 -0.0925 -0.1484
  444loPI   GL2 7094   9.547  16.422  10.157 -0.1709  0.0449 -0.3238
  444loPI   C1A 7095   9.122  16.176  10.017  0.3696 -0.0737  0.0383
  444loPI   C2A 7096   9.037  16.162   9.616  0.2984  0.2336 -0.1408
  444loPI   C3A 7097   8.980  16.124   9.194  0.1053  0.0749  0.0738
  444loPI   C4A 7098   9.113  16.042   8.871  0.3910 -0.0303  0.2790
  444loPI   C5A 7099   9.099  16.006   8.409  0.0538 -0.0106 -0.1930
  444loPI   C6A 7100   9.098  16.054   8.030 -0.1729  0.6500  0.1414
  444loPI   C1B 7101   9.480  16.390   9.681 -0.0670 -0.0097 -0.0510
  444loPI   C2B 7102   9.518  16.396   9.163  0.0451  0.2698 -0.0276
  444loPI   C3B 7103   9.626  16.357   8.750  0.1475 -0.0547 -0.1121
  444loPI   C4B 7104   9.381  16.499   8.405 -0.1596  0.0722  0.0045
  445loPI    C1 7105   3.488   2.528  10.641 -0.0346 -0.1605  0.0806
  445loPI    C2 7106   3.528   2.165  10.805  0.0740 -0.0598  0.2803
  445loPI    C3 7107   3.585   2.493  11.027 -0.1266  0.0813  0.1272
  445loPI   PO4 7108   3.571   2.541  10.375 -0.0602  0.2217  0.0713
  445loPI   GL1 7109   3.718   2.379  10.094  0.1801  0.0925  0.3098
  445loPI   GL2 7110   4.027   2.500  10.011  0.2639 -0.1259 -0.2498
  445loPI   C1A 7111   3.905   2.198   9.647  0.0815  0.1737 -0.1868
  445loPI   C2A 7112   3.886   2.164   9.198  0.1247 -0.0657 -0.2268
  445loPI   C3A 7113   3.901   2.182   8.788  0.0801 -0.1717 -0.3475
  445loPI   C4A 7114   3.751   2.214   8.353 -0.1847 -0.0398 -0.1875
  445loPI   C5A 7115   3.362   2.040   8.143  0.4152  0.0166  0.0387
  445loPI   C6A 7116   3.224   1.822   7.637  0.1982  0.1069  0.2844
  445loPI   C1B 7117   4.299   2.469   9.718  0.2595 -0.1023 -0.3563
  445loPI   C2B 7118   4.311   2.355   9.315  0.0901  0.0429 -0.1317
  445loPI   C3B 7119   4.316   2.429   8.928 -0.0760 -0.1403  0.1990
  445loPI   C4B 7120   4.265   2.462   8.498  0.3087  0.0371 -0.0688
  446loPI    C1 7121   0.817   7.232  10.165 -0.2473  0.1164  0.0293
  446loPI    C2 7122   0.770   6.835  10.177  0.1527  0.0643  0.0240
  446loPI    C3 7123   0.871   7.034  10.509 -0.1601  0.1804  0.0529
  446loPI   PO4 7124   1.036   7.333  10.032 -0.1331 -0.3131 -0.0691
  446loPI   GL1 7125   1.138   7.203   9.686 -0.0477 -0.2267 -0.0327
  446loPI   GL2 7126   1.065   6.875   9.723  0.1224 -0.1386  0.0041
  446loPI   C1A 7127   1.260   7.311   9.289  0.0462  0.3226  0.2280
  446loPI   C2A 7128   1.214   7.346   8.802 -0.0711 -0.0474 -0.1578
  446loPI   C3A 7129   1.160   7.332   8.363 -0.2560  0.0270 -0.2278
  446loPI   C4A 7130   1.169   7.150   8.000 -0.2836  0.0373 -0.1193
  446loPI   C5A 7131   0.978   7.011   7.636 -0.0612  0.3594 -0.0512
  446loPI   C6A 7132   0.658   7.002   7.260 -0.0283  0.0692  0.4340
  446loPI   C1B 7133   1.142   6.745   9.279  0.2986 -0.0846  0.0507
  446loPI   C2B 7134   1.117   6.824   8.808 -0.0387  0.0557  0.0617
  446loPI   C3B 7135   0.992   6.764   8.269 -0.0053 -0.4071 -0.0015
  446loPI   C4B 7136   1.271   6.578   7.914  0.0292  0.0688 -0.3231
  447loPI    C1 7137  15.945   4.946  10.322 -0.2676 -0.0970  0.0190
  447loPI    C2 7138  15.859   5.336  10.305  0.0215 -0.0359 -0.1009
  447loPI    C3 7139  15.659   5.099  10.557 -0.1820  0.1814 -0.0535
  447loPI   PO4 7140  16.006   4.900  10.065  0.0266  0.1246 -0.1509
  447loPI   GL1 7141  15.901   5.035   9.607  0.0194  0.1785  0.1121
  447loPI   GL2 7142  16.110   5.020   9.312  0.1384  0.0709  0.0311
  447loPI   C1A 7143  15.788   5.391   9.409  0.1347 -0.0424 -0.1992
  447loPI   C2A 7144  15.646   5.297   9.034 -0.0341 -0.0270 -0.0072
  447loPI   C3A 7145  15.731   5.283   8.641  0.1083  0.0213  0.1604
  447loPI   C4A 7146  15.705   5.226   8.116 -0.5819 -0.3501 -0.1181
  447loPI   C5A 7147  15.607   5.220   7.650 -0.2071 -0.2993 -0.0592
  447loPI   C6A 7148  15.741   5.398   7.246  0.1836  0.1397  0.2035
  447loPI   C1B 7149  16.178   5.010   8.907 -0.2527 -0.1695 -0.0365
  447loPI   C2B 7150  16.133   4.967   8.451  0.1962  0.0448 -0.1629
  447loPI   C3B 7151  16.150   4.949   7.942  0.2528  0.0033  0.2860
  447loPI   C4B 7152  15.999   4.810   7.537 -0.0127  0.3159  0.2385
  448loPI    C1 7153   8.606   9.526  10.949  0.1033  0.2393 -0.0443
  448loPI    C2 7154   8.271   9.736  10.887  0.0706  0.1289 -0.2505
  448loPI    C3 7155   8.411   9.688  11.258 -0.0020  0.3902 -0.1876
  448loPI   PO4 7156   8.555   9.342  10.746 -0.2703  0.2490  0.2119
  448loPI   GL1 7157   8.752   9.280  10.387 -0.0142 -0.2310 -0.0367
  448loPI   GL2 7158   9.068   9.079  10.351 -0.2573  0.1206 -0.1405
  448loPI   C1A 7159   8.769   9.417   9.957  0.2655  0.0114  0.0498
  448loPI   C2A 7160   8.707   9.312   9.493  0.4847  0.0973  0.1505
  448loPI   C3A 7161   8.710   9.394   9.126 -0.0305 -0.1906  0.2403
  448loPI   C4A 7162   8.691   9.326   8.657 -0.1600  0.1098  0.0059
  448loPI   C5A 7163   8.418   9.448   8.376 -0.1441 -0.2527 -0.1469
  448loPI   C6A 7164   8.275   9.417   7.953 -0.1378 -0.2630  0.1840
  448loPI   C1B 7165   9.118   9.015   9.939 -0.0251  0.2120 -0.2051
  448loPI   C2B 7166   9.140   9.063   9.472 -0.1016 -0.1106 -0.0748
  448loPI   C3B 7167   9.086   9.060   8.981 -0.2286 -0.2170 -0.4746
  448loPI   C4B 7168   9.204   9.079   8.572 -0.2298  0.0212  0.0029
  449loPI    C1 7169  11.144   6.954  10.325 -0.0613 -0.1244  0.0073
  449loPI    C2 7170  10.772   6.811  10.363 -0.2094  0.2951  0.1894
  449loPI    C3 7171  11.071   6.652  10.577 -0.2860 -0.0246  0.0637
  449loPI   PO4 7172  11.227   7.032  10.144 -0.3688 -0.2745 -0.1484
  449loPI   GL1 7173  11.192   6.845   9.821 -0.2951  0.1297 -0.2166
  449loPI   GL2 7174  11.113   6.959   9.632 -0.0608  0.1545 -0.2223
  449loPI   C1A 7175  11.381   6.500   9.453 -0.0823  0.1925  0.0096
  449loPI   C2A 7176  11.263   6.505   8.988  0.2505 -0.1209  0.0025
  449loPI   C3A 7177  11.250   6.629   8.631 -0.2287 -0.1239 -0.0903
  449loPI   C4A 7178  11.175   6.638   8.159 -0.0563  0.1186 -0.2245
  449loPI   C5A 7179  11.150   6.730   7.700  0.0730  0.1187  0.0167
  449loPI   C6A 7180  11.134   7.085   7.500  0.0819  0.0641 -0.0907
  449loPI   C1B 7181  11.215   6.990   9.196 -0.2193  0.2836 -0.1746
  449loPI   C2B 7182  11.297   7.107   8.790  0.1884  0.0832 -0.0486
  449loPI   C3B 7183  11.261   7.142   8.382  0.1083  0.1000 -0.3051
  449loPI   C4B 7184  11.293   7.126   8.010  0.2805 -0.0680 -0.0247
  450loPI    C1 7185   9.275  15.007  10.925  0.1052  0.0320  0.0616
  450loPI    C2 7186   9.195  14.994  11.316 -0.0273  0.0347  0.0352
  450loPI    C3 7187   9.527  14.821  11.174  0.1557  0.2592  0.1827
  450loPI   PO4 7188   9.243  14.862  10.758  0.3054  0.0003 -0.0867
  450loPI   GL1 7189   8.959  14.803  10.473  0.1379 -0.2821  0.0580
  450loPI   GL2 7190   8.796  15.022  10.220  0.2000  0.0746 -0.2759
  450loPI   C1A 7191   8.881  14.514  10.064 -0.0850 -0.1026 -0.3033
  450loPI   C2A 7192   8.897  14.624   9.635  0.0121 -0.3458 -0.0083
  450loPI   C3A 7193   8.900  14.584   9.182 -0.1458 -0.2385  0.3234
  450loPI   C4A 7194   8.932  14.556   8.788  0.1838 -0.2141  0.0872
  450loPI   C5A 7195   8.863  14.288   8.468 -0.0236 -0.0323 -0.1747
  450loPI   C6A 7196   9.005  13.968   8.335  0.0913  0.2168  0.0238
  450loPI   C1B 7197   8.944  15.162   9.925  0.2461 -0.0244  0.3235
  450loPI   C2B 7198   8.907  15.125   9.432 -0.0347 -0.2393 -0.2153
  450loPI   C3B 7199   8.970  15.134   9.008 -0.0295 -0.1870  0.1843
  450loPI   C4B 7200   8.818  15.087   8.613 -0.0802 -0.2003 -0.2988
  451loPI    C1 7201  12.032  11.044  11.111 -0.0395  0.1143 -0.0369
  451loPI    C2 7202  12.115  10.676  11.244  0.1204  0.0503 -0.3060
  451loPI    C3 7203  12.133  10.988  11.494  0.0430 -0.1150 -0.0907
  451loPI   PO4 7204  12.166  11.047  10.933 -0.3587  0.0268 -0.4839
  451loPI   GL1 7205  12.116  11.194  10.509 -0.1817  0.1300  0.0327
  451loPI   GL2 7206  11.805  10.984  10.479 -0.1290  0.0585 -0.0240
  451loPI   C1A 7207  12.390  11.232  10.042  0.3504  0.0837 -0.1343
  451loPI   C2A 7208  12.474  11.263   9.525  0.1008 -0.0576 -0.1919
  451loPI   C3A 7209  12.354  11.247   9.120 -0.2201  0.0114 -0.3386
  451loPI   C4A 7210  12.345  11.303   8.682  0.0098 -0.0072  0.1869
  451loPI   C5A 7211  12.093  11.188   8.422 -0.2258  0.0350  0.4806
  451loPI   C6A 7212  11.772  10.795   8.341 -0.1439 -0.0247  0.0022
  451loPI   C1B 7213  11.940  10.999  10.061  0.0337  0.3594 -0.0521
  451loPI   C2B 7214  11.999  11.006   9.676  0.0304 -0.0901 -0.2554
  451loPI   C3B 7215  11.895  11.007   9.249 -0.0115 -0.0930 -0.2585
  451loPI   C4B 7216  11.976  11.003   8.903  0.4712 -0.0164 -0.3052
  452loPI    C1 7217   6.974   3.490  10.636 -0.0049  0.0354 -0.1898
  452loPI    C2 7218   7.196   3.320  10.921 -0.1321 -0.0603 -0.1467
  452loPI    C3 7219   6.963   3.633  11.009  0.0950  0.1338 -0.2241
  452loPI   PO4 7220   6.894   3.268  10.421  0.1975  0.0061 -0.1041
  452loPI   GL1 7221   6.791   3.323  10.049 -0.3127 -0.0081 -0.1254
  452loPI   GL2 7222   6.895   3.025   9.926 -0.0244  0.0351 -0.0433
  452loPI   C1A 7223   7.026   3.489   9.708  0.1142 -0.0697  0.2269
  452loPI   C2A 7224   6.954   3.400   9.236 -0.1589 -0.3703  0.0359
  452loPI   C3A 7225   6.922   3.319   8.803  0.1531 -0.2661 -0.0836
  452loPI   C4A 7226   7.076   3.309   8.516 -0.2276  0.2482 -0.0720
  452loPI   C5A 7227   7.001   3.200   8.146 -0.2626  0.3346  0.1783
  452loPI   C6A 7228   7.094   3.443   7.672  0.1997  0.2414  0.0427
  452loPI   C1B 7229   6.997   2.970   9.514 -0.2703 -0.0433  0.0479
  452loPI   C2B 7230   6.986   2.797   9.143 -0.1375 -0.0658  0.0193
  452loPI   C3B 7231   7.027   2.773   8.752 -0.0706 -0.1267  0.0628
  452loPI   C4B 7232   7.108   2.805   8.367 -0.6214  0.0446 -0.0086
  453loPI    C1 7233   4.578   6.183  10.421 -0.0236  0.0272 -0.0301
  453loPI    C2 7234   4.384   5.915  10.196 -0.2574  0.1199  0.0579
  453loPI    C3 7235   4.309   5.939  10.588  0.2248 -0.1129  0.1724
  453loPI   PO4 7236   4.585   6.370  10.257 -0.1321  0.1425  0.1032
  453loPI   GL1 7237   4.559   6.284   9.819  0.3814 -0.0330  0.0609
  453loPI   GL2 7238   4.208   6.579   9.814 -0.0832 -0.2505  0.1029
  453loPI   C1A 7239   4.291   6.112   9.518 -0.1068 -0.0994  0.1617
  453loPI   C2A 7240   4.224   6.151   9.015 -0.0406 -0.0145  0.1246
  453loPI   C3A 7241   4.355   6.105   8.521  0.1474  0.1223  0.1457
  453loPI   C4A 7242   4.383   6.067   8.183  0.2859 -0.0226 -0.0967
  453loPI   C5A 7243   4.163   6.193   7.806  0.2274 -0.3269  0.0697
  453loPI   C6A 7244   3.738   6.230   7.794  0.0670  0.0229  0.0458
  453loPI   C1B 7245   4.291   6.660   9.348  0.1297 -0.0929 -0.3301
  453loPI   C2B 7246   4.314   6.709   8.918  0.2199 -0.0569  0.2774
  453loPI   C3B 7247   4.306   6.696   8.540 -0.0177 -0.1954 -0.0699
  453loPI   C4B 7248   4.563   6.594   8.141  0.0588 -0.1120  0.0933
  454loPI    C1 7249   2.503   6.931  10.494 -0.3525  0.3089  0.0899
  454loPI    C2 7250   2.741   7.207  10.659 -0.1320  0.0625  0.1905
  454loPI    C3 7251   2.674   6.861  10.849 -0.0951 -0.1132 -0.1093
  454loPI   PO4 7252   2.576   6.964  10.171 -0.0494  0.0436  0.0122
  454loPI   GL1 7253   2.540   7.150   9.835  0.1443  0.0370 -0.1553
  454loPI   GL2 7254   2.173   7.115   9.640 -0.4241  0.0434  0.2421
  454loPI   C1A 7255   2.521   7.362   9.390  0.1927 -0.0022 -0.0031
  454loPI   C2A 7256   2.571   7.428   8.921  0.2787  0.2003  0.2401
  454loPI   C3A 7257   2.556   7.445   8.506 -0.0264 -0.0408 -0.0624
  454loPI   C4A 7258   2.711   7.258   8.128  0.2484  0.1732 -0.5055
  454loPI   C5A 7259   2.690   7.125   7.760  0.0210  0.6012  0.3562
  454loPI   C6A 7260   2.576   7.004   7.447 -0.1597 -0.1673  0.1059
  454loPI   C1B 7261   2.067   7.226   9.269 -0.0589  0.0165  0.3294
  454loPI   C2B 7262   2.090   7.230   8.814  0.4225 -0.4484 -0.1233
  454loPI   C3B 7263   2.057   7.307   8.373 -0.1149  0.2042 -0.0696
  454loPI   C4B 7264   2.192   7.075   8.047  0.1422 -0.2105 -0.4697
  455loPI    C1 7265   5.198  16.490  10.979  0.0740 -0.0935 -0.0494
  455loPI    C2 7266   5.164  16.101  11.067 -0.3275 -0.0524 -0.0031
  455loPI    C3 7267   5.227  16.368  11.359 -0.1745 -0.0684 -0.0207
  455loPI   PO4 7268   5.065  16.521  10.758  0.0234  0.1307  0.2934
  455loPI   GL1 7269   5.046  16.312  10.433  0.0236  0.1810 -0.4491
  455loPI   GL2 7270   5.296  16.561  10.306 -0.0613 -0.1598 -0.2008
  455loPI   C1A 7271   4.883  16.263  10.070  0.2419  0.0375  0.0176
  455loPI   C2A 7272   5.004  16.129   9.559  0.1088  0.1555  0.2973
  455loPI   C3A 7273   4.990  16.101   9.129  0.0992 -0.2867 -0.3559
  455loPI   C4A 7274   4.967  16.051   8.734  0.1188 -0.4991  0.1898
  455loPI   C5A 7275   4.845  16.020   8.299 -0.0183 -0.1749  0.3124
  455loPI   C6A 7276   4.799  16.286   7.878  0.0056 -0.0916  0.2829
  455loPI   C1B 7277   5.423  16.449   9.924 -0.0138 -0.1487  0.3427
  455loPI   C2B 7278   5.483  16.340   9.495  0.1501  0.0511 -0.0949
  455loPI   C3B 7279   5.526  16.290   8.968 -0.3868  0.0921  0.0205
  455loPI   C4B 7280   5.417  16.280   8.490  0.1920  0.1650 -0.3156
  456loPI    C1 7281   7.383   2.148  10.995  0.3136 -0.0898  0.1203
  456loPI    C2 7282   7.255   1.769  10.989  0.1954 -0.0486 -0.0952
  456loPI    C3 7283   7.291   1.963  11.337 -0.5921  0.0237 -0.0344
  456loPI   PO4 7284   7.501   2.093  10.674 -0.1069  0.3837  0.1521
  456loPI   GL1 7285   7.240   1.828  10.447 -0.1407  0.4145  0.0326
  456loPI   GL2 7286   6.918   1.855  10.321 -0.4104 -0.0118 -0.3111
  456loPI   C1A 7287   7.282   1.565  10.005 -0.1799 -0.2054  0.2125
  456loPI   C2A 7288   7.444   1.513   9.610 -0.0118  0.1654  0.3176
  456loPI   C3A 7289   7.410   1.331   9.145 -0.0557 -0.1176 -0.0101
  456loPI   C4A 7290   7.460   1.402   8.718  0.1217 -0.2968 -0.0420
  456loPI   C5A 7291   7.484   1.268   8.376 -0.1126  0.0015 -0.1437
  456loPI   C6A 7292   7.374   0.982   8.053 -0.0407 -0.0710  0.2407
  456loPI   C1B 7293   6.843   1.795   9.867  0.4113  0.0143 -0.4861
  456loPI   C2B 7294   7.013   1.760   9.525 -0.3861 -0.2265  0.2832
  456loPI   C3B 7295   6.965   1.659   9.140 -0.1053  0.1897  0.0499
  456loPI   C4B 7296   6.979   1.642   8.700 -0.2288  0.0597  0.1470
  457loPI    C1 7297  11.491   1.341  10.932 -0.0917 -0.0075  0.1615
  457loPI    C2 7298  11.834   1.198  11.078 -0.0070 -0.0267 -0.0530
  457loPI    C3 7299  11.487   1.106  11.255  0.1067  0.0943  0.2394
  457loPI   PO4 7300  11.504   1.225  10.651 -0.0855  0.4507 -0.0035
  457loPI   GL1 7301  11.628   1.274  10.167 -0.3393  0.0964 -0.1516
  457loPI   GL2 7302  11.240   1.174  10.220  0.1001  0.0091  0.0126
  457loPI   C1A 7303  11.493   1.480   9.793 -0.2831  0.1463 -0.1161
  457loPI   C2A 7304  11.468   1.583   9.408 -0.3460  0.1679 -0.1742
  457loPI   C3A 7305  11.529   1.619   8.953  0.1314 -0.1191  0.0496
  457loPI   C4A 7306  11.405   1.652   8.508  0.2133  0.0332  0.1182
  457loPI   C5A 7307  11.364   1.505   8.086 -0.1068  0.2697 -0.1211
  457loPI   C6A 7308  11.696   1.326   7.815  0.1044  0.2282 -0.2750
  457loPI   C1B 7309  11.366   0.972   9.907  0.1845 -0.1713 -0.2224
  457loPI   C2B 7310  11.456   1.055   9.486  0.2438 -0.1874  0.0402
  457loPI   C3B 7311  11.524   1.039   9.031  0.0377  0.0215  0.0181
  457loPI   C4B 7312  11.325   1.130   8.713 -0.0699  0.0558 -0.0261
  458loPI    C1 7313  17.060   6.938  10.012  0.0882 -0.0870  0.1905
  458loPI    C2 7314  16.824   6.845  10.322  0.0915 -0.0421  0.2066
  458loPI    C3 7315  16.877   6.582  10.025 -0.1508  0.0298  0.0968
  458loPI   PO4 7316  16.975   7.186   9.919  0.0383  0.0275  0.0492
  458loPI   GL1 7317  16.894   7.414   9.505  0.0993 -0.0717 -0.3947
  458loPI   GL2 7318  16.732   7.042   9.490  0.0510 -0.0917  0.3605
  458loPI   C1A 7319  16.731   7.378   9.087  0.1696 -0.3229 -0.2575
  458loPI   C2A 7320  16.810   7.388   8.683  0.0602  0.0475 -0.0408
  458loPI   C3A 7321  16.710   7.380   8.248 -0.0082  0.1459 -0.2225
  458loPI   C4A 7322  16.800   7.339   7.757  0.0212 -0.3316  0.0293
  458loPI   C5A 7323  17.037   7.153   7.584  0.1904 -0.1275  0.3845
  458loPI   C6A 7324  17.427   7.010   7.546 -0.1176  0.2355  0.2543
  458loPI   C1B 7325  16.705   6.913   9.029 -0.0606 -0.1605 -0.0986
  458loPI   C2B 7326  16.723   6.835   8.670 -0.0356 -0.1253  0.1533
  458loPI   C3B 7327  16.686   6.838   8.191 -0.1899  0.1549  0.0457
  458loPI   C4B 7328  16.751   6.827   7.798 -0.0208  0.0195  0.2377
  459loPI    C1 7329  17.721  14.473  10.988 -0.0578 -0.0361  0.0867
  459loPI    C2 7330  17.368  14.614  11.110  0.0855  0.2777  0.1496
  459loPI    C3 7331  17.600  14.411  11.364 -0.1487 -0.1388  0.0412
  459loPI   PO4 7332  17.666  14.406  10.761  0.4382 -0.1568 -0.4040
  459loPI   GL1 7333  17.754  14.469  10.348 -0.0224  0.1572 -0.0965
  459loPI   GL2 7334  17.820  14.172  10.380 -0.0169 -0.1354 -0.1469
  459loPI   C1A 7335  17.535  14.541   9.885 -0.3735  0.0154  0.3131
  459loPI   C2A 7336  17.485  14.503   9.426 -0.1415 -0.2814 -0.1731
  459loPI   C3A 7337  17.464  14.432   8.953 -0.0824 -0.1518  0.0117
  459loPI   C4A 7338  17.476  14.404   8.527 -0.2263 -0.1324 -0.1401
  459loPI   C5A 7339  17.757  14.390   8.178  0.0031 -0.0547 -0.1727
  459loPI   C6A 7340  18.145  14.463   7.990 -0.0514 -0.0090 -0.1266
  459loPI   C1B 7341  17.822  14.193   9.960 -0.3364  0.3102  0.1597
  459loPI   C2B 7342  17.833  14.176   9.563  0.3781 -0.3599 -0.3301
  459loPI   C3B 7343  17.901  14.240   9.154 -0.1338  0.3940 -0.0680
  459loPI   C4B 7344  17.881  14.223   8.685  0.0537 -0.1363 -0.1772
  460loPI    C1 7345   6.261  10.017  10.839  0.0920  0.0711  0.0363
  460loPI    C2 7346   5.867   9.987  10.900  0.0529  0.1143 -0.1882
  460loPI    C3 7347   6.119   9.755  11.106 -0.0889  0.0926 -0.0374
  460loPI   PO4 7348   6.338   9.965  10.643 -0.2180  0.1744  0.0573
  460loPI   GL1 7349   6.057   9.920  10.294  0.2621 -0.1110 -0.2042
  460loPI   GL2 7350   6.427   9.754  10.173 -0.2770  0.0667 -0.3229
  460loPI   C1A 7351   6.101   9.983   9.849  0.3647 -0.0460 -0.1089
  460loPI   C2A 7352   6.061   9.955   9.401  0.0134  0.0355  0.0388
  460loPI   C3A 7353   6.026   9.953   9.010 -0.0002 -0.0894  0.3184
  460loPI   C4A 7354   6.024   9.876   8.572 -0.0262  0.2673  0.0180
  460loPI   C5A 7355   5.941   9.994   8.176 -0.2909 -0.0533 -0.0096
  460loPI   C6A 7356   5.662   9.901   7.782 -0.0548  0.1913 -0.2427
  460loPI   C1B 7357   6.532   9.750   9.732 -0.0889 -0.1353 -0.1143
  460loPI   C2B 7358   6.452   9.717   9.208 -0.0403  0.0831 -0.1382
  460loPI   C3B 7359   6.431   9.603   8.838 -0.1241 -0.1842  0.1465
  460loPI   C4B 7360   6.517   9.750   8.432 -0.1589 -0.3432 -0.0535
  461loPI    C1 7361  10.685   1.859  10.654 -0.1704 -0.0403 -0.0575
  461loPI    C2 7362  10.401   2.034  10.876 -0.0560  0.1810 -0.0830
  461loPI    C3 7363  10.727   1.883  11.052 -0.1538 -0.0069 -0.0613
  461loPI   PO4 7364  10.560   1.781  10.402  0.0091  0.0580  0.1592
  461loPI   GL1 7365  10.468   1.750   9.979 -0.1205  0.3334 -0.4485
  461loPI   GL2 7366  10.467   2.081   9.866 -0.0491  0.0747 -0.2977
  461loPI   C1A 7367  10.565   1.637   9.532 -0.1896  0.0020 -0.0620
  461loPI   C2A 7368  10.556   1.539   9.063 -0.0376 -0.0547 -0.0544
  461loPI   C3A 7369  10.573   1.680   8.632 -0.3973  0.0620 -0.0673
  461loPI   C4A 7370  10.406   1.550   8.211 -0.1437 -0.0070  0.0016
  461loPI   C5A 7371  10.160   1.805   7.889 -0.1807  0.0497 -0.2237
  461loPI   C6A 7372   9.942   2.094   7.620  0.1242  0.3007  0.3314
  461loPI   C1B 7373  10.565   2.103   9.405  0.1519  0.3248  0.0130
  461loPI   C2B 7374  10.603   2.078   9.014 -0.3254  0.0456  0.2606
  461loPI   C3B 7375  10.498   2.185   8.521 -0.0044 -0.1109  0.1451
  461loPI   C4B 7376  10.491   2.134   8.071  0.0466  0.1949  0.1457
  462loPI    C1 7377   0.623   0.969  10.559 -0.1080  0.1719 -0.0835
  462loPI    C2 7378   0.807   1.320  10.612 -0.0372  0.0913  0.2263
  462loPI    C3 7379   0.669   1.117  10.928  0.1770 -0.2952  0.0784
  462loPI   PO4 7380   0.494   1.060  10.317  0.1523  0.1312  0.2464
  462loPI   GL1 7381   0.407   1.304   9.908  0.2013  0.1340 -0.0191
  462loPI   GL2 7382   0.094   1.114   9.894  0.1360  0.0372  0.1027
  462loPI   C1A 7383   0.602   1.116   9.448 -0.0653  0.1979 -0.0939
  462loPI   C2A 7384   0.524   1.005   9.003  0.2525  0.0460  0.0425
  462loPI   C3A 7385   0.599   0.991   8.621 -0.1658 -0.2165 -0.0336
  462loPI   C4A 7386   0.598   0.820   8.230 -0.1059 -0.1038  0.0486
  462loPI   C5A 7387   0.534   0.343   8.012  0.0219 -0.2030 -0.0169
  462loPI   C6A 7388   0.570  -0.213   7.989  0.0114 -0.1167 -0.1844
  462loPI   C1B 7389   0.181   0.884   9.523 -0.3401  0.0737 -0.3838
  462loPI   C2B 7390   0.114   0.677   9.096 -0.0699  0.1283 -0.0478
  462loPI   C3B 7391   0.194   0.727   8.626  0.0668 -0.2062 -0.2720
  462loPI   C4B 7392   0.132   0.566   8.311  0.1805  0.0742  0.0229
  463loPI    C1 7393  12.289  16.418  11.096 -0.0879 -0.0294 -0.1039
  463loPI    C2 7394  12.662  16.379  11.237 -0.1762 -0.0804  0.1192
  463loPI    C3 7395  12.388  16.580  11.448 -0.2403  0.0758 -0.1085
  463loPI   PO4 7396  12.318  16.453  10.835 -0.3528 -0.1262 -0.4447
  463loPI   GL1 7397  12.380  16.412  10.378  0.1320  0.0311  0.3044
  463loPI   GL2 7398  12.203  16.619  10.122 -0.0605 -0.0368  0.0284
  463loPI   C1A 7399  12.676  16.399  10.038  0.0499  0.0028 -0.1853
  463loPI   C2A 7400  12.703  16.420   9.603  0.0951 -0.1203 -0.0074
  463loPI   C3A 7401  12.669  16.529   9.191  0.0859 -0.0968  0.0882
  463loPI   C4A 7402  12.734  16.494   8.751  0.2489  0.1971 -0.2224
  463loPI   C5A 7403  12.537  16.566   8.383  0.1458  0.0735 -0.3910
  463loPI   C6A 7404  12.581  16.908   8.094 -0.1401 -0.0329  0.0728
  463loPI   C1B 7405  12.182  16.781   9.770  0.1880  0.0917  0.0085
  463loPI   C2B 7406  12.189  16.784   9.343 -0.2378  0.2089 -0.0262
  463loPI   C3B 7407  12.242  16.778   8.899  0.1310  0.3285 -0.0217
  463loPI   C4B 7408  12.225  16.917   8.453 -0.0897 -0.0221 -0.0109
  464loPI    C1 7409  10.259   0.372  10.959  0.2068 -0.0161  0.0585
  464loPI    C2 7410  10.119   0.746  10.941  0.0836 -0.0699 -0.1288
  464loPI    C3 7411   9.980   0.494  11.218  0.0304 -0.0322 -0.1210
  464loPI   PO4 7412  10.279   0.382  10.600  0.2379  0.1713  0.2676
  464loPI   GL1 7413  10.570   0.316  10.381 -0.0084 -0.3057 -0.0594
  464loPI   GL2 7414  10.471   0.066  10.237  0.1241 -0.0176  0.0239
  464loPI   C1A 7415  10.604   0.428   9.951  0.1382  0.0938  0.0566
  464loPI   C2A 7416  10.479   0.461   9.436  0.0735 -0.2250  0.1741
  464loPI   C3A 7417  10.504   0.547   9.009 -0.1325  0.2470 -0.0199
  464loPI   C4A 7418  10.574   0.563   8.573  0.0484 -0.2875 -0.0721
  464loPI   C5A 7419  10.523   0.443   8.249 -0.0980  0.2039  0.4189
  464loPI   C6A 7420  10.591  -0.070   8.189 -0.0488  0.1080 -0.1483
  464loPI   C1B 7421  10.561  -0.094   9.967 -0.5540 -0.1412 -0.2905
  464loPI   C2B 7422  10.504   0.026   9.627 -0.1937  0.0043 -0.0559
  464loPI   C3B 7423  10.489  -0.003   9.117  0.1381  0.3110  0.0170
  464loPI   C4B 7424  10.498   0.009   8.673  0.2741  0.2022 -0.1180
  465loPI    C1 7425   9.892   1.211  11.020  0.1018 -0.0551  0.0721
  465loPI    C2 7426   9.659   0.892  10.955  0.1015 -0.0781  0.1836
  465loPI    C3 7427   9.499   1.232  11.090  0.0584  0.0565 -0.1951
  465loPI   PO4 7428  10.050   1.191  10.707  0.2598  0.1779  0.3233
  465loPI   GL1 7429   9.940   1.168  10.257 -0.1532  0.2529 -0.2389
  465loPI   GL2 7430  10.237   1.316  10.224  0.2880  0.3148  0.1152
  465loPI   C1A 7431   9.670   1.116   9.990 -0.3418  0.4361  0.2025
  465loPI   C2A 7432   9.653   1.149   9.503  0.2219 -0.0520  0.0964
  465loPI   C3A 7433   9.649   1.084   9.051  0.1928 -0.0043 -0.1853
  465loPI   C4A 7434   9.692   1.069   8.656 -0.2189  0.0944  0.0894
  465loPI   C5A 7435   9.869   1.068   8.128 -0.1330  0.0683 -0.0123
  465loPI   C6A 7436  10.220   0.758   8.001  0.2267 -0.1230 -0.1469
  465loPI   C1B 7437  10.127   1.392   9.836 -0.0240  0.1172  0.1370
  465loPI   C2B 7438  10.092   1.399   9.427  0.1040 -0.2327 -0.2410
  465loPI   C3B 7439  10.074   1.289   9.084 -0.0151  0.1883 -0.0019
  465loPI   C4B 7440  10.112   1.362   8.628  0.3407 -0.1089 -0.0527
  466loPI    C1 7441   7.685  16.033  11.034 -0.0308  0.1228 -0.2332
  466loPI    C2 7442   7.305  16.011  11.158  0.0128  0.2348 -0.0779
  466loPI    C3 7443   7.598  15.857  11.383  0.0549  0.1022 -0.2220
  466loPI   PO4 7444   7.687  16.114  10.794  0.1159 -0.2134 -0.0674
  466loPI   GL1 7445   7.754  16.324  10.502 -0.0541 -0.2830  0.2631
  466loPI   GL2 7446   7.921  16.398  10.419  0.3099 -0.0886 -0.0127
  466loPI   C1A 7447   7.608  16.449  10.069 -0.1280 -0.2182 -0.0814
  466loPI   C2A 7448   7.736  16.529   9.631  0.0265 -0.0796 -0.0169
  466loPI   C3A 7449   7.686  16.491   9.167 -0.0955 -0.0133  0.2868
  466loPI   C4A 7450   7.776  16.555   8.710  0.1033  0.0158 -0.2575
  466loPI   C5A 7451   7.700  16.888   8.487 -0.3160  0.1223 -0.0054
  466loPI   C6A 7452   7.769  17.401   8.262  0.1686 -0.0753 -0.0178
  466loPI   C1B 7453   8.089  16.290  10.028 -0.0773 -0.3000  0.0594
  466loPI   C2B 7454   8.089  16.202   9.544  0.3140  0.1939 -0.3459
  466loPI   C3B 7455   8.103  16.205   9.080  0.0653  0.0647  0.4000
  466loPI   C4B 7456   8.151  16.150   8.605  0.0145 -0.2235 -0.4095
  467loPI    C1 7457  16.684   1.886  10.502 -0.1039 -0.2443 -0.0159
  467loPI    C2 7458  16.550   1.866  10.879 -0.4159  0.5615 -0.0650
  467loPI    C3 7459  16.919   2.002  10.804 -0.2405  0.1147 -0.0430
  467loPI   PO4 7460  16.509   1.616  10.468 -0.2150  0.1812  0.3354
  467loPI   GL1 7461  16.365   1.379  10.074 -0.0929 -0.2590  0.0893
  467loPI   GL2 7462  16.145   1.119   9.939  0.0526 -0.0083 -0.1443
  467loPI   C1A 7463  16.428   1.539   9.670  0.1178 -0.0253 -0.1467
  467loPI   C2A 7464  16.402   1.623   9.253 -0.1103 -0.1017  0.3400
  467loPI   C3A 7465  16.376   1.584   8.833  0.0518 -0.1775  0.3071
  467loPI   C4A 7466  16.420   1.645   8.419 -0.1248  0.3471 -0.0842
  467loPI   C5A 7467  16.386   1.584   8.006 -0.0336  0.0075  0.0481
  467loPI   C6A 7468  16.460   1.249   7.783 -0.1296  0.1819  0.1227
  467loPI   C1B 7469  16.345   1.039   9.619 -0.3881 -0.0976  0.0292
  467loPI   C2B 7470  16.372   1.039   9.229  0.0488 -0.2573 -0.0611
  467loPI   C3B 7471  16.380   0.947   8.782 -0.1408  0.0970 -0.3360
  467loPI   C4B 7472  16.279   1.021   8.304  0.2265  0.0497  0.1681
  468loPI    C1 7473   8.156  11.228  10.973 -0.1245 -0.2054  0.0135
  468loPI    C2 7474   8.352  10.949  11.183  0.3108 -0.0690 -0.2012
  468loPI    C3 7475   8.330  11.324  11.320  0.0907 -0.1107 -0.1186
  468loPI   PO4 7476   8.282  11.239  10.774  0.0308 -0.3492  0.0270
  468loPI   GL1 7477   8.325  11.391  10.387  0.0547 -0.4017 -0.0176
  468loPI   GL2 7478   8.537  11.197  10.349 -0.0943  0.1466  0.0260
  468loPI   C1A 7479   8.490  11.755  10.042 -0.2645  0.0790 -0.1282
  468loPI   C2A 7480   8.416  11.754   9.662  0.2100  0.1876  0.1351
  468loPI   C3A 7481   8.416  11.730   9.159  0.1608 -0.1576  0.0855
  468loPI   C4A 7482   8.250  11.801   8.781 -0.1012 -0.1924  0.0780
  468loPI   C5A 7483   8.189  11.734   8.392  0.0131 -0.2493  0.0614
  468loPI   C6A 7484   8.007  11.621   8.064 -0.0485 -0.1880 -0.0395
  468loPI   C1B 7485   8.408  11.228   9.947 -0.0296  0.1997 -0.1145
  468loPI   C2B 7486   8.375  11.110   9.499  0.1557  0.1435 -0.1138
  468loPI   C3B 7487   8.372  11.186   9.031 -0.5427 -0.1543  0.0951
  468loPI   C4B 7488   8.405  11.336   8.596  0.1256 -0.1469 -0.1811
  469loPI    C1 7489   3.303  16.921  11.278  0.2104 -0.0801  0.3271
  469loPI    C2 7490   2.988  16.703  11.395  0.0606 -0.0471 -0.0026
  469loPI    C3 7491   3.327  16.695  11.607 -0.1686 -0.0624  0.3721
  469loPI   PO4 7492   3.422  16.938  10.992 -0.0137  0.0370 -0.0579
  469loPI   GL1 7493   3.449  16.789  10.479  0.2178 -0.0590 -0.0552
  469loPI   GL2 7494   3.765  16.933  10.359  0.0637  0.0093 -0.0023
  469loPI   C1A 7495   3.626  16.491  10.129 -0.1148  0.0548 -0.1253
  469loPI   C2A 7496   3.618  16.399   9.692  0.0307  0.2035  0.2322
  469loPI   C3A 7497   3.700  16.434   9.248  0.0862 -0.2447 -0.1138
  469loPI   C4A 7498   3.749  16.425   8.894  0.2146  0.0078 -0.2953
  469loPI   C5A 7499   3.523  16.446   8.484 -0.0387  0.0014  0.4262
  469loPI   C6A 7500   3.194  16.607   8.353 -0.0158  0.1872  0.1061
  469loPI   C1B 7501   3.598  16.928   9.896 -0.0107 -0.0979 -0.0494
  469loPI   C2B 7502   3.689  16.907   9.475 -0.2021 -0.0026 -0.0855
  469loPI   C3B 7503   3.685  16.947   9.042 -0.1688  0.1044  0.3928
  469loPI   C4B 7504   3.676  16.944   8.613  0.5447  0.1470 -0.1623
  470loPI    C1 7505  14.093   8.065  10.452  0.1668  0.2273  0.1606
  470loPI    C2 7506  14.492   8.069  10.477  0.1702  0.0532  0.1467
  470loPI    C3 7507  14.278   7.855  10.738  0.0801  0.2300  0.2190
  470loPI   PO4 7508  14.024   8.024  10.286  0.1867  0.2882  0.1511
  470loPI   GL1 7509  13.884   7.651   9.946 -0.3100 -0.0338  0.0424
  470loPI   GL2 7510  13.531   7.566   9.899 -0.0666  0.2412 -0.0488
  470loPI   C1A 7511  13.980   7.536   9.502 -0.1651  0.1788 -0.1089
  470loPI   C2A 7512  14.046   7.449   9.061 -0.2853  0.1435  0.0854
  470loPI   C3A 7513  14.091   7.557   8.665  0.0914  0.1724 -0.0047
  470loPI   C4A 7514  13.965   7.415   8.394 -0.1244  0.0385  0.2959
  470loPI   C5A 7515  13.844   7.252   8.005 -0.0255 -0.0281 -0.4759
  470loPI   C6A 7516  13.650   7.172   7.541  0.3803  0.2182  0.3607
  470loPI   C1B 7517  13.513   7.752   9.537  0.0636 -0.2366  0.1255
  470loPI   C2B 7518  13.653   7.814   9.044 -0.3718 -0.1643 -0.1958
  470loPI   C3B 7519  13.604   7.691   8.662  0.2088 -0.3968  0.0412
  470loPI   C4B 7520  13.574   7.674   8.231  0.3282 -0.1127 -0.1639
  471loPI    C1 7521  14.503  13.694  10.900  0.0006 -0.1834  0.1898
  471loPI    C2 7522  14.387  13.315  10.849 -0.2768 -0.0884  0.0904
  471loPI    C3 7523  14.136  13.580  11.012 -0.0341  0.0225  0.2913
  471loPI   PO4 7524  14.616  13.749  10.687 -0.2071  0.3274 -0.1729
  471loPI   GL1 7525  14.689  13.936  10.232 -0.1538 -0.2297  0.0913
  471loPI   GL2 7526  14.423  13.813  10.101 -0.2075 -0.0566 -0.0130
  471loPI   C1A 7527  14.746  14.000   9.772  0.0864  0.0505  0.0201
  471loPI   C2A 7528  14.769  14.104   9.360 -0.0302  0.1284  0.1362
  471loPI   C3A 7529  14.830  14.023   8.957 -0.1547  0.2583 -0.1698
  471loPI   C4A 7530  14.924  13.968   8.595  0.1078 -0.2872  0.3063
  471loPI   C5A 7531  14.723  14.149   8.241 -0.3811  0.0635  0.0264
  471loPI   C6A 7532  14.636  13.999   7.831  0.0142  0.1894 -0.0800
  471loPI   C1B 7533  14.265  13.668   9.727  0.0696 -0.1892 -0.1947
  471loPI   C2B 7534  14.333  13.797   9.274 -0.1679 -0.0284  0.2792
  471loPI   C3B 7535  14.439  13.764   8.849  0.1588  0.2397 -0.0722
  471loPI   C4B 7536  14.420  13.824   8.473 -0.2582  0.2937 -0.1826
  472loPI    C1 7537  10.890  15.929  11.023  0.0660  0.2302  0.0260
  472loPI    C2 7538  11.010  16.237  11.250 -0.1736  0.0876  0.3537
  472loPI    C3 7539  11.168  15.873  11.306  0.0200  0.1211  0.0501
  472loPI   PO4 7540  10.846  15.990  10.783 -0.2738  0.0523  0.0506
  472loPI   GL1 7541  10.745  15.908  10.428 -0.1709  0.0321  0.2668
  472loPI   GL2 7542  10.880  16.095  10.152 -0.0555  0.1432  0.0395
  472loPI   C1A 7543  10.843  15.563  10.088  0.0704  0.0534  0.1081
  472loPI   C2A 7544  10.858  15.523   9.619 -0.0556 -0.2712 -0.3591
  472loPI   C3A 7545  10.786  15.512   9.181 -0.0942  0.1035  0.2492
  472loPI   C4A 7546  10.790  15.581   8.757 -0.1226 -0.2239  0.1122
  472loPI   C5A 7547  10.672  15.363   8.370 -0.0616  0.1837  0.2498
  472loPI   C6A 7548  10.877  15.566   8.073 -0.0609 -0.2868  0.0312
  472loPI   C1B 7549  10.894  16.056   9.756  0.2189 -0.1704 -0.0195
  472loPI   C2B 7550  10.828  16.080   9.270  0.0163 -0.1008 -0.1787
  472loPI   C3B 7551  10.828  16.137   8.907  0.1015  0.1246 -0.0296
  472loPI   C4B 7552  10.653  15.923   8.460 -0.0395  0.1492  0.0388
  473loPI    C1 7553   2.210   9.452  10.482 -0.0877  0.0292  0.3563
  473loPI    C2 7554   2.225   9.717  10.781  0.2256  0.2780  0.1269
  473loPI    C3 7555   2.563   9.555  10.640  0.0669  0.0446  0.0087
  473loPI   PO4 7556   2.069   9.585  10.279 -0.1917  0.2054  0.3351
  473loPI   GL1 7557   2.063  10.037   9.923 -0.5456 -0.0217 -0.0559
  473loPI   GL2 7558   1.857   9.738   9.890  0.1617  0.0542  0.2081
  473loPI   C1A 7559   2.050   9.922   9.434  0.4019  0.0585 -0.1005
  473loPI   C2A 7560   2.103  10.013   8.882 -0.2671  0.1226  0.4593
  473loPI   C3A 7561   2.162  10.062   8.442  0.1939  0.0078 -0.0353
  473loPI   C4A 7562   1.968   9.887   8.004  0.1644  0.0673 -0.2418
  473loPI   C5A 7563   1.574   9.691   7.797 -0.0238 -0.0722 -0.0105
  473loPI   C6A 7564   1.065   9.617   7.675 -0.0492 -0.2329 -0.1113
  473loPI   C1B 7565   1.605   9.599   9.545 -0.1930 -0.0526 -0.1982
  473loPI   C2B 7566   1.540   9.428   9.136  0.1483 -0.1351  0.2250
  473loPI   C3B 7567   1.579   9.553   8.779 -0.0936 -0.2281 -0.1606
  473loPI   C4B 7568   1.570   9.528   8.316 -0.2156  0.0564  0.0904
  474loPI    C1 7569  17.890   4.763  10.057 -0.1280 -0.1031  0.2003
  474loPI    C2 7570  18.070   4.521  10.319  0.1155  0.0379  0.1659
  474loPI    C3 7571  18.212   4.890  10.257 -0.0771  0.0859  0.0023
  474loPI   PO4 7572  17.870   4.634   9.821  0.0018  0.2158 -0.0372
  474loPI   GL1 7573  18.041   4.316   9.686 -0.2513  0.0913 -0.1088
  474loPI   GL2 7574  18.017   4.420   9.390  0.0823 -0.3097 -0.1651
  474loPI   C1A 7575  18.061   3.987   9.444  0.1966  0.0424  0.1403
  474loPI   C2A 7576  17.973   3.792   8.966  0.1378 -0.0902  0.0644
  474loPI   C3A 7577  17.954   3.738   8.554 -0.0214  0.0293  0.1537
  474loPI   C4A 7578  17.987   3.703   8.055 -0.0157  0.1776  0.1752
  474loPI   C5A 7579  17.916   3.768   7.713  0.1873 -0.0428  0.0525
  474loPI   C6A 7580  17.996   3.932   7.334 -0.0524  0.2036 -0.0933
  474loPI   C1B 7581  18.082   4.351   9.034 -0.1911 -0.0345 -0.0289
  474loPI   C2B 7582  18.112   4.351   8.630  0.1620 -0.0084 -0.2357
  474loPI   C3B 7583  17.924   4.435   8.173 -0.0327 -0.1215  0.0791
  474loPI   C4B 7584  17.877   4.279   7.834 -0.0053  0.2086 -0.1217
  475loPI    C1 7585   2.949   4.427  10.002  0.0378  0.0725 -0.0404
  475loPI    C2 7586   2.933   4.645  10.337 -0.2791 -0.0194  0.0070
  475loPI    C3 7587   2.780   4.275  10.331 -0.1253 -0.0813 -0.1930
  475loPI   PO4 7588   2.988   4.619   9.741  0.1193 -0.1112 -0.2452
  475loPI   GL1 7589   3.276   4.715   9.553 -0.2057 -0.2977 -0.1269
  475loPI   GL2 7590   3.346   4.542   9.325  0.3658  0.0514 -0.1414
  475loPI   C1A 7591   3.400   5.049   9.299 -0.3639  0.4033 -0.1171
  475loPI   C2A 7592   3.543   5.064   8.895  0.0580 -0.1623  0.1462
  475loPI   C3A 7593   3.450   5.035   8.432 -0.4517 -0.1583 -0.0214
  475loPI   C4A 7594   3.447   5.115   8.014  0.2406 -0.1590  0.1391
  475loPI   C5A 7595   3.142   5.062   7.762 -0.0472  0.0481  0.2371
  475loPI   C6A 7596   3.042   4.700   7.616 -0.0623 -0.1781 -0.1204
  475loPI   C1B 7597   3.432   4.554   8.992 -0.0296  0.2793  0.0815
  475loPI   C2B 7598   3.420   4.566   8.540  0.2611 -0.0299 -0.2088
  475loPI   C3B 7599   3.399   4.411   8.125 -0.0868  0.1406  0.0097
  475loPI   C4B 7600   3.378   4.314   7.756 -0.2672 -0.0532  0.4057
  476loPI    C1 7601   6.318  12.181  10.954 -0.2062  0.0525 -0.3574
  476loPI    C2 7602   6.156  11.900  11.188  0.2375  0.0151 -0.0829
  476loPI    C3 7603   6.009  11.965  10.822 -0.3439 -0.0594  0.1275
  476loPI   PO4 7604   6.599  12.095  10.980 -0.0904  0.2868  0.0728
  476loPI   GL1 7605   6.838  12.085  10.626 -0.0009 -0.0876  0.0947
  476loPI   GL2 7606   7.077  11.992  10.379 -0.0365 -0.1967  0.0293
  476loPI   C1A 7607   6.728  12.262  10.068  0.1934  0.1397  0.1843
  476loPI   C2A 7608   6.615  12.372   9.679  0.0287 -0.0306  0.3420
  476loPI   C3A 7609   6.639  12.229   9.172 -0.0112 -0.0601  0.1799
  476loPI   C4A 7610   6.503  12.381   8.747  0.0188  0.1355  0.1473
  476loPI   C5A 7611   6.678  12.317   8.397 -0.1701  0.2459  0.1464
  476loPI   C6A 7612   6.879  12.697   8.186 -0.0775  0.0059 -0.1468
  476loPI   C1B 7613   7.132  11.991   9.925 -0.0043 -0.1364  0.2354
  476loPI   C2B 7614   7.151  12.005   9.538 -0.1351  0.3026  0.2962
  476loPI   C3B 7615   7.100  12.012   9.051 -0.0569  0.1455  0.3636
  476loPI   C4B 7616   6.998  12.106   8.716 -0.3425  0.2778  0.0388
  477loPI    C1 7617  12.869  18.292  10.948  0.0924 -0.1106 -0.0128
  477loPI    C2 7618  12.781  18.093  11.284 -0.0776 -0.1347 -0.0706
  477loPI    C3 7619  12.822  18.491  11.292 -0.2422 -0.1171 -0.0511
  477loPI   PO4 7620  12.738  18.281  10.762 -0.2713 -0.1368  0.3686
  477loPI   GL1 7621  12.697  18.222  10.268  0.1574  0.4363 -0.0954
  477loPI   GL2 7622  12.391  18.303  10.231  0.1844 -0.1393 -0.1137
  477loPI   C1A 7623  12.637  17.951   9.930  0.0359  0.0494 -0.0901
  477loPI   C2A 7624  12.657  17.983   9.485 -0.3263 -0.1219  0.0593
  477loPI   C3A 7625  12.718  18.122   9.020  0.0394 -0.0376  0.3913
  477loPI   C4A 7626  12.704  18.168   8.528 -0.0077 -0.1456 -0.0540
  477loPI   C5A 7627  12.885  18.126   8.033  0.0159 -0.0636  0.0656
  477loPI   C6A 7628  12.844  18.026   7.588  0.2578  0.1455 -0.0070
  477loPI   C1B 7629  12.305  18.389   9.767 -0.1550  0.0569  0.1392
  477loPI   C2B 7630  12.229  18.425   9.370  0.0816  0.3738 -0.0879
  477loPI   C3B 7631  12.310  18.327   8.888  0.2916 -0.1322  0.0158
  477loPI   C4B 7632  12.200  18.465   8.493 -0.0910  0.1832  0.0643
  478loPI    C1 7633   9.994   2.998  10.981 -0.0202 -0.2419  0.1177
  478loPI    C2 7634   9.785   2.659  11.019 -0.0408 -0.2363  0.0543
  478loPI    C3 7635  10.081   2.741  11.275 -0.2465 -0.1498  0.2682
  478loPI   PO4 7636   9.966   3.090  10.712 -0.2953 -0.0139  0.1516
  478loPI   GL1 7637  10.081   3.111  10.289 -0.0921  0.2133  0.1154
  478loPI   GL2 7638   9.715   3.178  10.310  0.1087  0.1444 -0.0895
  478loPI   C1A 7639  10.070   2.903   9.903  0.1741  0.0973 -0.1344
  478loPI   C2A 7640  10.133   2.992   9.500 -0.0930 -0.0006 -0.0281
  478loPI   C3A 7641  10.174   2.909   9.140 -0.1516 -0.1663  0.1112
  478loPI   C4A 7642  10.243   2.914   8.716 -0.1645 -0.3031  0.1088
  478loPI   C5A 7643  10.114   2.951   8.305  0.0238 -0.0288 -0.0654
  478loPI   C6A 7644  10.033   3.200   7.896 -0.1702  0.4014 -0.1788
  478loPI   C1B 7645   9.634   3.258   9.959 -0.1447 -0.2874 -0.0021
  478loPI   C2B 7646   9.695   3.234   9.569 -0.2386 -0.2022  0.0270
  478loPI   C3B 7647   9.619   3.174   9.075 -0.0349  0.0490  0.1708
  478loPI   C4B 7648   9.819   3.181   8.737  0.1778  0.1909  0.0475
  479loPI    C1 7649   3.414  15.188  10.972 -0.0165  0.1171  0.0453
  479loPI    C2 7650   3.231  15.399  11.258  0.0205 -0.0607  0.2030
  479loPI    C3 7651   3.595  15.246  11.324  0.1298  0.0942 -0.0251
  479loPI   PO4 7652   3.253  15.362  10.710 -0.1861 -0.0891 -0.2021
  479loPI   GL1 7653   3.258  15.174  10.351  0.2262 -0.1973  0.0766
  479loPI   GL2 7654   3.572  15.068  10.502  0.0426  0.1482 -0.3137
  479loPI   C1A 7655   3.125  15.132   9.853  0.0521  0.2136  0.1278
  479loPI   C2A 7656   3.185  15.149   9.498 -0.1791  0.2143  0.1948
  479loPI   C3A 7657   3.129  15.097   8.994  0.0224 -0.3733 -0.2031
  479loPI   C4A 7658   3.193  15.001   8.592  0.1800 -0.1379  0.1758
  479loPI   C5A 7659   3.527  14.726   8.409  0.0988  0.1685 -0.0406
  479loPI   C6A 7660   3.791  14.403   8.215 -0.2107  0.3287 -0.2003
  479loPI   C1B 7661   3.546  14.866  10.125  0.0465  0.0334 -0.0276
  479loPI   C2B 7662   3.599  14.775   9.695 -0.2477 -0.0419  0.0649
  479loPI   C3B 7663   3.650  14.882   9.316  0.3386  0.0871  0.0704
  479loPI   C4B 7664   3.556  14.850   8.914 -0.1551 -0.1500  0.1888
  480loPI    C1 7665   6.761  13.003  11.173 -0.0792  0.1812  0.0257
  480loPI    C2 7666   6.845  13.277  11.453  0.0730 -0.0890  0.2498
  480loPI    C3 7667   7.064  12.943  11.428 -0.0260 -0.1315 -0.1070
  480loPI   PO4 7668   6.672  13.136  10.992 -0.1133 -0.0555  0.0249
  480loPI   GL1 7669   6.713  13.218  10.659 -0.0883 -0.1366 -0.0954
  480loPI   GL2 7670   6.945  13.085  10.574 -0.1926  0.0894  0.1094
  480loPI   C1A 7671   6.627  13.306  10.209  0.2826  0.3577  0.1354
  480loPI   C2A 7672   6.530  13.468   9.861  0.2875 -0.0277 -0.2036
  480loPI   C3A 7673   6.589  13.432   9.480  0.1396 -0.1868 -0.2951
  480loPI   C4A 7674   6.663  13.378   9.032  0.0127  0.3207  0.1882
  480loPI   C5A 7675   6.557  13.549   8.664 -0.0425  0.5757  0.3794
  480loPI   C6A 7676   6.328  13.399   8.346  0.0446  0.1229  0.0508
  480loPI   C1B 7677   7.017  13.110  10.089  0.1196  0.0468 -0.1816
  480loPI   C2B 7678   7.076  13.073   9.602  0.2790  0.0308  0.2623
  480loPI   C3B 7679   7.064  13.071   9.169 -0.1958 -0.1067 -0.1791
  480loPI   C4B 7680   6.825  13.083   8.707  0.2884 -0.1294 -0.0643
  481loPI    C1 7681  10.655  17.491  10.762  0.1891  0.2938  0.1071
  481loPI    C2 7682  10.743  17.270  11.084  0.0269 -0.0147 -0.0565
  481loPI    C3 7683  10.603  17.642  11.129 -0.2633 -0.1544  0.2396
  481loPI   PO4 7684  10.579  17.382  10.626  0.0224  0.0275  0.2418
  481loPI   GL1 7685  10.379  17.236  10.394  0.1041  0.0049  0.0268
  481loPI   GL2 7686  10.056  17.130  10.201 -0.0440 -0.0657  0.0542
  481loPI   C1A 7687  10.495  17.300   9.905 -0.0180 -0.1012  0.0054
  481loPI   C2A 7688  10.550  17.488   9.510  0.1882 -0.0271  0.1018
  481loPI   C3A 7689  10.491  17.464   9.043 -0.3810  0.3519  0.0533
  481loPI   C4A 7690  10.498  17.480   8.613 -0.0987 -0.2578 -0.3090
  481loPI   C5A 7691  10.439  17.451   8.210  0.1279  0.0253  0.0929
  481loPI   C6A 7692  10.353  17.544   7.716  0.1609 -0.3701  0.0962
  481loPI   C1B 7693  10.031  17.068   9.712  0.0775  0.1362 -0.2733
  481loPI   C2B 7694  10.011  17.166   9.355  0.0543 -0.0845  0.2365
  481loPI   C3B 7695  10.112  17.214   8.871  0.1523  0.2518  0.0368
  481loPI   C4B 7696  10.063  17.202   8.551 -0.0376 -0.0894 -0.1204
  482loPI    C1 7697  14.421   7.551  10.367 -0.3735  0.0333 -0.0941
  482loPI    C2 7698  14.294   7.174  10.323  0.0923 -0.1579  0.1375
  482loPI    C3 7699  14.312   7.338  10.687  0.3507 -0.0825  0.0932
  482loPI   PO4 7700  14.425   7.697  10.170  0.1245  0.1690 -0.0432
  482loPI   GL1 7701  14.598   7.619   9.755  0.0251 -0.1777  0.2484
  482loPI   GL2 7702  14.383   7.285   9.819 -0.1442 -0.0717  0.1818
  482loPI   C1A 7703  14.590   7.741   9.394 -0.2239 -0.0439  0.1389
  482loPI   C2A 7704  14.536   7.661   9.036 -0.2043  0.3072  0.2713
  482loPI   C3A 7705  14.549   7.691   8.575 -0.4429 -0.0788  0.0835
  482loPI   C4A 7706  14.453   7.809   8.063  0.3131  0.1409 -0.1093
  482loPI   C5A 7707  14.049   7.685   7.861 -0.1182 -0.2955  0.1974
  482loPI   C6A 7708  13.663   7.592   7.706  0.0970  0.0116  0.2212
  482loPI   C1B 7709  14.435   7.219   9.336 -0.2745 -0.2284 -0.2027
  482loPI   C2B 7710  14.526   7.157   8.954  0.4064  0.2075  0.0786
  482loPI   C3B 7711  14.429   7.121   8.537  0.2390 -0.1750 -0.1568
  482loPI   C4B 7712  14.488   7.229   8.128  0.1687 -0.3083 -0.1410
  483loPI    C1 7713   3.457   3.019  10.355  0.0187  0.0821 -0.0311
  483loPI    C2 7714   3.231   2.941  10.675 -0.0670  0.1103 -0.0844
  483loPI    C3 7715   3.614   3.046  10.721 -0.0226 -0.0846 -0.0003
  483loPI   PO4 7716   3.287   3.147  10.190 -0.3442 -0.1172  0.1154
  483loPI   GL1 7717   3.386   3.228   9.776 -0.0710 -0.2118  0.1637
  483loPI   GL2 7718   3.169   3.510   9.679  0.1467 -0.0042  0.0698
  483loPI   C1A 7719   3.322   3.043   9.431  0.2023 -0.2685 -0.1107
  483loPI   C2A 7720   3.445   3.044   9.006 -0.0601 -0.2302  0.1865
  483loPI   C3A 7721   3.337   3.019   8.499  0.0756  0.1010 -0.0112
  483loPI   C4A 7722   3.420   2.850   8.170  0.1055 -0.2593 -0.1600
  483loPI   C5A 7723   3.672   2.558   8.050 -0.0381 -0.0323  0.3936
  483loPI   C6A 7724   3.848   2.470   7.679  0.1672 -0.1677  0.3763
  483loPI   C1B 7725   3.290   3.482   9.232  0.0122  0.0421 -0.3616
  483loPI   C2B 7726   3.411   3.528   8.825 -0.0157 -0.0681  0.0907
  483loPI   C3B 7727   3.285   3.564   8.353  0.0067  0.1635  0.1982
  483loPI   C4B 7728   3.407   3.425   7.910 -0.0486 -0.1899  0.0442
  484loPI    C1 7729   6.695  17.343  10.636 -0.1999  0.1308 -0.0218
  484loPI    C2 7730   6.503  17.001  10.717 -0.2873  0.1445 -0.1683
  484loPI    C3 7731   6.421  17.331  10.928 -0.1084  0.0445  0.0610
  484loPI   PO4 7732   6.577  17.411  10.389 -0.0802  0.1423  0.0243
  484loPI   GL1 7733   6.532  17.669  10.128  0.0841  0.0259  0.0534
  484loPI   GL2 7734   6.517  18.037   9.983 -0.0800  0.1229 -0.0291
  484loPI   C1A 7735   6.465  17.445   9.713  0.2092  0.0985 -0.0092
  484loPI   C2A 7736   6.428  17.295   9.299  0.1812  0.1748  0.1158
  484loPI   C3A 7737   6.379  17.314   8.941 -0.1376  0.1409  0.2071
  484loPI   C4A 7738   6.354  17.278   8.409 -0.0325  0.0255 -0.2686
  484loPI   C5A 7739   6.557  17.320   8.033 -0.2109  0.0897  0.2006
  484loPI   C6A 7740   6.819  17.522   7.917  0.0563 -0.1351 -0.0088
  484loPI   C1B 7741   6.326  17.927   9.554  0.1250 -0.0313 -0.0601
  484loPI   C2B 7742   6.419  17.827   9.147 -0.3213 -0.1311  0.0334
  484loPI   C3B 7743   6.412  17.873   8.692  0.2531  0.1208  0.0163
  484loPI   C4B 7744   6.320  17.800   8.319 -0.0925 -0.1689 -0.0897
  485loPI    C1 7745  11.764   6.275  10.438  0.0973 -0.0062 -0.2017
  485loPI    C2 7746  11.992   6.470  10.703 -0.1166 -0.0110 -0.0119
  485loPI    C3 7747  11.903   6.084  10.761 -0.1755 -0.0082 -0.0832
  485loPI   PO4 7748  11.825   6.369  10.159 -0.1787 -0.1123  0.1089
  485loPI   GL1 7749  11.685   6.194   9.775  0.0243 -0.1116 -0.1832
  485loPI   GL2 7750  11.689   5.869   9.876  0.0136 -0.1017  0.0739
  485loPI   C1A 7751  11.829   6.285   9.324 -0.1828 -0.2445 -0.0538
  485loPI   C2A 7752  11.756   6.328   8.929 -0.0325 -0.1303  0.0008
  485loPI   C3A 7753  11.743   6.331   8.502 -0.0168  0.1539  0.2329
  485loPI   C4A 7754  11.597   6.381   8.171 -0.0353 -0.1868 -0.0232
  485loPI   C5A 7755  11.347   6.241   7.779 -0.2790 -0.3037  0.1043
  485loPI   C6A 7756  11.122   6.252   7.414  0.2998  0.0218 -0.0246
  485loPI   C1B 7757  11.627   5.795   9.482  0.0602 -0.0877  0.1971
  485loPI   C2B 7758  11.575   5.856   9.086 -0.0758 -0.2808  0.1378
  485loPI   C3B 7759  11.595   5.670   8.677 -0.1142  0.1798 -0.0252
  485loPI   C4B 7760  11.561   5.747   8.241 -0.3513 -0.1041 -0.0581
  486loPI    C1 7761   3.550  11.656  11.120 -0.0135 -0.0636  0.0477
  486loPI    C2 7762   3.545  11.847  11.471  0.1137  0.1584 -0.0688
  486loPI    C3 7763   3.575  11.448  11.460  0.3063  0.1638  0.1676
  486loPI   PO4 7764   3.439  11.758  10.935  0.0648 -0.2670 -0.0081
  486loPI   GL1 7765   3.320  11.848  10.556 -0.0974 -0.2099 -0.0214
  486loPI   GL2 7766   3.091  11.890  10.381 -0.1702 -0.0054 -0.1865
  486loPI   C1A 7767   3.474  12.070  10.061  0.1772 -0.0309 -0.4745
  486loPI   C2A 7768   3.546  12.230   9.708 -0.1339  0.0845 -0.1953
  486loPI   C3A 7769   3.487  12.210   9.289  0.1988 -0.1103  0.2426
  486loPI   C4A 7770   3.418  12.228   8.946 -0.1406  0.0119  0.0221
  486loPI   C5A 7771   3.550  12.132   8.497  0.1143  0.1626  0.0909
  486loPI   C6A 7772   3.645  12.178   8.055  0.1496  0.1397  0.1249
  486loPI   C1B 7773   2.940  11.776  10.044  0.2526  0.0301 -0.0059
  486loPI   C2B 7774   3.040  11.933   9.663  0.0513 -0.1203  0.1732
  486loPI   C3B 7775   3.009  11.963   9.181 -0.1303 -0.0185 -0.0037
  486loPI   C4B 7776   3.008  12.022   8.723  0.1907 -0.2119 -0.0410
  487loPI    C1 7777   5.974   3.788  10.620  0.2001 -0.1338  0.0339
  487loPI    C2 7778   5.583   3.872  10.638  0.2232 -0.0301  0.0583
  487loPI    C3 7779   5.717   3.518  10.768  0.1351 -0.0747  0.0292
  487loPI   PO4 7780   6.059   3.799  10.391  0.2487  0.0474  0.2454
  487loPI   GL1 7781   6.137   4.021  10.063  0.1461 -0.3629  0.4598
  487loPI   GL2 7782   6.233   4.415  10.028  0.3040  0.1416 -0.1297
  487loPI   C1A 7783   6.046   3.823   9.674 -0.0741  0.1201 -0.1514
  487loPI   C2A 7784   6.118   3.879   9.151 -0.1255  0.2225 -0.0399
  487loPI   C3A 7785   6.168   3.827   8.684 -0.0416 -0.3056 -0.3947
  487loPI   C4A 7786   6.204   3.920   8.333  0.0797 -0.3626  0.2673
  487loPI   C5A 7787   6.265   4.064   7.993 -0.1277  0.0640  0.2928
  487loPI   C6A 7788   6.212   4.325   7.740 -0.0891 -0.0327 -0.2287
  487loPI   C1B 7789   6.489   4.631   9.689 -0.0772 -0.1143 -0.0502
  487loPI   C2B 7790   6.589   4.749   9.278 -0.0311  0.0301  0.1030
  487loPI   C3B 7791   6.644   4.689   8.888 -0.0718 -0.1054  0.4523
  487loPI   C4B 7792   6.621   4.560   8.535 -0.0943 -0.1277 -0.1457
  488loPI    C1 7793  13.794  12.166  11.212  0.1112 -0.3099 -0.0946
  488loPI    C2 7794  14.125  12.336  11.067 -0.1109  0.2142 -0.0100
  488loPI    C3 7795  14.013  12.407  11.444 -0.1636 -0.2024  0.0575
  488loPI   PO4 7796  13.683  12.109  10.977 -0.1706  0.0910  0.1122
  488loPI   GL1 7797  13.530  12.248  10.581 -0.1693 -0.0134  0.0485
  488loPI   GL2 7798  13.255  12.522  10.468 -0.1140  0.3562  0.1231
  488loPI   C1A 7799  13.716  11.986  10.152 -0.1377  0.1617 -0.1944
  488loPI   C2A 7800  13.750  12.022   9.889  0.2510  0.3502  0.3697
  488loPI   C3A 7801  13.809  12.010   9.433  0.1615 -0.0491  0.0061
  488loPI   C4A 7802  13.758  11.954   8.969  0.3456 -0.0702 -0.2652
  488loPI   C5A 7803  13.605  12.032   8.677  0.0042  0.3680  0.2009
  488loPI   C6A 7804  13.545  11.988   8.135  0.0721  0.0179  0.1863
  488loPI   C1B 7805  13.394  12.619  10.052  0.2393  0.5157  0.1613
  488loPI   C2B 7806  13.304  12.717   9.721  0.0279 -0.2593 -0.1731
  488loPI   C3B 7807  13.373  12.818   9.398  0.1017  0.3627  0.1012
  488loPI   C4B 7808  13.413  12.928   8.980 -0.1818  0.0292 -0.2971
  489loPI    C1 7809   6.806   5.577  10.619 -0.2636 -0.0189 -0.0331
  489loPI    C2 7810   6.739   5.195  10.714 -0.3260 -0.0671 -0.2626
  489loPI    C3 7811   6.678   5.483  10.985  0.1898 -0.2567  0.0719
  489loPI   PO4 7812   6.964   5.502  10.399  0.0582 -0.0657 -0.0545
  489loPI   GL1 7813   7.030   5.405   9.970  0.2710 -0.1614 -0.1334
  489loPI   GL2 7814   6.965   5.773   9.864  0.1406  0.0186  0.0849
  489loPI   C1A 7815   7.102   5.440   9.447 -0.2424  0.2944  0.2093
  489loPI   C2A 7816   7.205   5.546   8.997  0.2740  0.1823 -0.1415
  489loPI   C3A 7817   7.158   5.411   8.620 -0.1520  0.0134  0.0522
  489loPI   C4A 7818   7.154   5.237   8.167 -0.1520 -0.2309 -0.0471
  489loPI   C5A 7819   7.376   4.860   8.002 -0.1833 -0.0214  0.2721
  489loPI   C6A 7820   7.285   4.423   8.104  0.0738  0.0904  0.0252
  489loPI   C1B 7821   7.193   5.944   9.446 -0.1189  0.3119 -0.1471
  489loPI   C2B 7822   7.133   6.075   9.092  0.4359 -0.3768  0.1844
  489loPI   C3B 7823   7.205   5.992   8.724  0.0042  0.1439 -0.0547
  489loPI   C4B 7824   7.346   6.065   8.313 -0.0372 -0.4612  0.1579
  490loPI    C1 7825  14.196  14.202  10.953  0.0194  0.3586 -0.0633
  490loPI    C2 7826  14.156  14.034  11.314 -0.0525 -0.0552 -0.2580
  490loPI    C3 7827  13.952  14.366  11.224  0.1696  0.2053  0.1689
  490loPI   PO4 7828  14.151  14.012  10.732  0.2113 -0.0531 -0.1644
  490loPI   GL1 7829  14.057  14.174  10.402 -0.0352  0.3235  0.2528
  490loPI   GL2 7830  13.884  14.001  10.158  0.2685  0.2569 -0.0152
  490loPI   C1A 7831  14.296  14.234   9.976  0.3696 -0.0725  0.0583
  490loPI   C2A 7832  14.367  14.319   9.571  0.1202  0.1397  0.0932
  490loPI   C3A 7833  14.351  14.289   9.089  0.2459  0.3691 -0.0649
  490loPI   C4A 7834  14.326  14.329   8.555  0.2740  0.1990  0.0453
  490loPI   C5A 7835  14.177  14.672   8.170  0.0402 -0.0051 -0.0338
  490loPI   C6A 7836  14.313  14.922   7.771 -0.2220 -0.0260 -0.0286
  490loPI   C1B 7837  13.882  13.960   9.677  0.2510  0.0179  0.0448
  490loPI   C2B 7838  13.889  14.036   9.299 -0.0752 -0.3416  0.2871
  490loPI   C3B 7839  13.921  14.091   8.834  0.0454  0.0383 -0.1934
  490loPI   C4B 7840  13.751  14.231   8.390  0.2398 -0.1954  0.0792
  491loPI    C1 7841   7.021   8.640  10.755 -0.1812 -0.1573  0.1193
  491loPI    C2 7842   6.835   8.802  11.070  0.1005  0.0909  0.1623
  491loPI    C3 7843   7.152   8.564  11.126 -0.0113 -0.0793  0.0765
  491loPI   PO4 7844   7.009   8.925  10.528 -0.4401 -0.2068  0.2009
  491loPI   GL1 7845   7.458   9.018  10.331 -0.0875  0.0523 -0.0022
  491loPI   GL2 7846   7.701   8.796  10.288  0.0457 -0.0479 -0.1462
  491loPI   C1A 7847   7.327   9.136   9.980 -0.1465  0.0014 -0.1966
  491loPI   C2A 7848   7.297   9.212   9.575 -0.0260 -0.0546 -0.3725
  491loPI   C3A 7849   7.319   9.043   9.242 -0.0024  0.0717 -0.0832
  491loPI   C4A 7850   7.348   9.065   8.776  0.0202  0.0573  0.1764
  491loPI   C5A 7851   7.342   9.119   8.354  0.1546  0.1241 -0.0339
  491loPI   C6A 7852   7.147   9.247   7.998 -0.1599 -0.0263 -0.1472
  491loPI   C1B 7853   7.818   8.835   9.897 -0.0212  0.0905  0.2294
  491loPI   C2B 7854   7.790   8.759   9.486  0.2693 -0.2095  0.1919
  491loPI   C3B 7855   7.757   8.853   9.084 -0.0861  0.3854 -0.0829
  491loPI   C4B 7856   7.796   8.835   8.592 -0.0371 -0.0802 -0.1281
  492loPI    C1 7857  18.376   6.930  10.172 -0.0134 -0.0298  0.0241
  492loPI    C2 7858  18.736   6.905  10.345 -0.0830  0.0060  0.1762
  492loPI    C3 7859  18.447   7.124  10.515 -0.2830 -0.3021  0.2396
  492loPI   PO4 7860  18.432   7.019   9.910  0.1578 -0.2174  0.0294
  492loPI   GL1 7861  18.516   7.359   9.612 -0.3106 -0.3623  0.0002
  492loPI   GL2 7862  18.425   7.617   9.639  0.1201 -0.0651  0.2241
  492loPI   C1A 7863  18.776   7.382   9.298 -0.0510 -0.1000 -0.0953
  492loPI   C2A 7864  18.752   7.378   8.823 -0.1000  0.1017  0.0189
  492loPI   C3A 7865  18.584   7.323   8.361  0.0240 -0.5547 -0.2593
  492loPI   C4A 7866  18.547   7.206   7.958  0.3592 -0.1739  0.1490
  492loPI   C5A 7867  18.837   7.362   7.558 -0.1113 -0.1031 -0.0126
  492loPI   C6A 7868  19.288   7.477   7.574  0.0545 -0.3977 -0.4311
  492loPI   C1B 7869  18.368   7.643   9.185  0.1858  0.0602  0.3447
  492loPI   C2B 7870  18.353   7.666   8.829 -0.0448  0.1322 -0.4072
  492loPI   C3B 7871  18.103   7.597   8.464  0.0625 -0.0041  0.2418
  492loPI   C4B 7872  18.116   7.505   7.985  0.1659 -0.0317 -0.2936
  493loPI    C1 7873   2.677  15.918  11.182 -0.1602 -0.0323  0.1715
  493loPI    C2 7874   2.888  16.258  11.171 -0.0559 -0.0980  0.1229
  493loPI    C3 7875   2.680  16.162  11.499 -0.4438  0.2272 -0.0204
  493loPI   PO4 7876   2.613  15.823  10.904  0.2491  0.0069 -0.1618
  493loPI   GL1 7877   2.834  15.793  10.461 -0.2170  0.0452  0.0836
  493loPI   GL2 7878   2.955  15.617  10.405  0.1597 -0.0770  0.1479
  493loPI   C1A 7879   2.732  16.014  10.113 -0.1964  0.1758  0.1578
  493loPI   C2A 7880   2.727  15.846   9.780  0.0225  0.1924  0.1208
  493loPI   C3A 7881   2.794  15.898   9.246 -0.1425 -0.1726 -0.3315
  493loPI   C4A 7882   2.787  15.912   8.847  0.0560  0.0816 -0.2036
  493loPI   C5A 7883   2.651  15.926   8.537  0.0982  0.0068 -0.0685
  493loPI   C6A 7884   2.573  15.937   8.195  0.0538 -0.2125  0.1814
  493loPI   C1B 7885   3.119  15.627   9.979  0.0659 -0.1667  0.0008
  493loPI   C2B 7886   3.145  15.621   9.564 -0.3624  0.0203  0.3073
  493loPI   C3B 7887   3.184  15.632   9.069  0.0392 -0.2428  0.2100
  493loPI   C4B 7888   3.187  15.540   8.646 -0.0531 -0.1047 -0.2191
  494loPI    C1 7889   6.467   8.169  10.677  0.0425  0.2027  0.0530
  494loPI    C2 7890   6.843   8.230  10.553  0.0972  0.0356  0.1339
  494loPI    C3 7891   6.756   8.245  10.943 -0.0240  0.2975  0.0984
  494loPI   PO4 7892   6.311   8.257  10.433  0.2161 -0.1380 -0.0415
  494loPI   GL1 7893   6.372   8.528  10.126  0.2175  0.0074  0.2480
  494loPI   GL2 7894   6.731   8.597  10.178  0.0335  0.3538 -0.1209
  494loPI   C1A 7895   6.391   8.549   9.629  0.3152  0.0380  0.2267
  494loPI   C2A 7896   6.374   8.598   9.154  0.0405 -0.1847 -0.1085
  494loPI   C3A 7897   6.423   8.721   8.724  0.0047  0.0389 -0.0235
  494loPI   C4A 7898   6.290   8.602   8.375 -0.0799  0.0852  0.0651
  494loPI   C5A 7899   5.982   8.599   8.080  0.0147  0.0122  0.2519
  494loPI   C6A 7900   5.493   8.668   8.301 -0.1241  0.0904 -0.3204
  494loPI   C1B 7901   6.819   8.412   9.856 -0.0211  0.1624 -0.1630
  494loPI   C2B 7902   6.860   8.274   9.494 -0.4792  0.1558 -0.0247
  494loPI   C3B 7903   6.818   8.223   9.093 -0.1584 -0.0067 -0.0175
  494loPI   C4B 7904   6.815   8.416   8.730  0.0152 -0.0587  0.2204
  495loPI    C1 7905  18.061   0.561  10.784 -0.0160 -0.0372 -0.2902
  495loPI    C2 7906  17.969   0.902  10.595 -0.0235  0.0914 -0.0581
  495loPI    C3 7907  18.075   0.909  10.980 -0.2971 -0.1992  0.0273
  495loPI   PO4 7908  18.172   0.462  10.519  0.1687  0.0808  0.2955
  495loPI   GL1 7909  18.049   0.545  10.120 -0.0289  0.0760 -0.0519
  495loPI   GL2 7910  17.760   0.676  10.216  0.0205  0.1961  0.0975
  495loPI   C1A 7911  18.124   0.507   9.613 -0.0223 -0.2058 -0.2242
  495loPI   C2A 7912  18.110   0.360   9.256  0.0270  0.3842 -0.0937
  495loPI   C3A 7913  18.086   0.418   8.871  0.0164  0.2428 -0.1304
  495loPI   C4A 7914  18.081   0.404   8.468  0.0486  0.0894  0.0049
  495loPI   C5A 7915  18.026   0.553   8.098  0.0862 -0.0917 -0.3032
  495loPI   C6A 7916  17.602   0.636   7.955  0.0029  0.1609 -0.3732
  495loPI   C1B 7917  17.680   0.693   9.837  0.1925  0.0920  0.0666
  495loPI   C2B 7918  17.691   0.701   9.348 -0.1906 -0.2646  0.0188
  495loPI   C3B 7919  17.669   0.641   8.902 -0.1641 -0.0109 -0.2269
  495loPI   C4B 7920  17.674   0.694   8.434  0.2825 -0.0163  0.0128
  496loPI    C1 7921   0.751   5.010   9.715  0.1030  0.1883  0.0557
  496loPI    C2 7922   1.001   5.222   9.945  0.1535 -0.3712  0.5378
  496loPI    C3 7923   0.611   5.205  10.035  0.0496 -0.0476  0.1777
  496loPI   PO4 7924   0.832   5.075   9.407  0.0381 -0.0857 -0.1604
  496loPI   GL1 7925   0.714   5.388   9.126 -0.0593 -0.2353  0.0643
  496loPI   GL2 7926   0.933   5.210   8.957  0.2133 -0.0844  0.0565
  496loPI   C1A 7927   0.557   5.408   8.642 -0.0580 -0.1209  0.0256
  496loPI   C2A 7928   0.620   5.414   8.245  0.0610 -0.2915 -0.1944
  496loPI   C3A 7929   0.415   5.447   7.877 -0.0695 -0.1346  0.0799
  496loPI   C4A 7930   0.322   5.623   7.541 -0.2334 -0.0426 -0.1845
  496loPI   C5A 7931   0.236   6.020   7.479  0.0654 -0.1816 -0.1973
  496loPI   C6A 7932  -0.043   6.340   7.480 -0.2768  0.3371  0.2774
  496loPI   C1B 7933   1.029   5.175   8.595  0.0111  0.1982 -0.1148
  496loPI   C2B 7934   1.084   5.175   8.218  0.1620 -0.0582  0.2143
  496loPI   C3B 7935   0.844   5.003   7.901  0.2030 -0.2501 -0.5904
  496loPI   C4B 7936   0.717   5.190   7.603  0.0020 -0.2583  0.1935
  497loPI    C1 7937   0.632  18.241  10.776 -0.3512 -0.1340  0.0478
  497loPI    C2 7938   0.620  18.501  11.081 -0.3161 -0.0208 -0.0469
  497loPI    C3 7939   0.898  18.213  11.073 -0.2254  0.0660 -0.0439
  497loPI   PO4 7940   0.635  18.383  10.554  0.0055 -0.2999 -0.0916
  497loPI   GL1 7941   0.927  18.471  10.144  0.0911  0.1186  0.1805
  497loPI   GL2 7942   0.686  18.708  10.102 -0.2831  0.0140  0.0817
  497loPI   C1A 7943   0.969  18.452   9.712  0.1950 -0.0647  0.0925
  497loPI   C2A 7944   1.067  18.685   9.347 -0.1551  0.4194 -0.0263
  497loPI   C3A 7945   1.103  18.544   8.853  0.2914 -0.1634  0.0005
  497loPI   C4A 7946   1.114  18.562   8.371 -0.0767 -0.0117 -0.0209
  497loPI   C5A 7947   1.044  18.887   8.114 -0.0673 -0.2245  0.0883
  497loPI   C6A 7948   0.914  19.158   7.767  0.0998  0.0404  0.2486
  497loPI   C1B 7949   0.448  18.490   9.823 -0.0858  0.1896  0.3500
  497loPI   C2B 7950   0.540  18.316   9.388  0.5385 -0.1482  0.0056
  497loPI   C3B 7951   0.606  18.347   8.895 -0.2746 -0.1363  0.2089
  497loPI   C4B 7952   0.589  18.307   8.517 -0.1762  0.1467  0.0419
  498loPI    C1 7953   8.662  17.526  10.995  0.1431 -0.0305 -0.0196
  498loPI    C2 7954   8.425  17.827  11.112  0.0942 -0.1156  0.1018
  498loPI    C3 7955   8.789  17.783  11.274  0.0803 -0.1530  0.1232
  498loPI   PO4 7956   8.677  17.554  10.709 -0.5615  0.2025 -0.0569
  498loPI   GL1 7957   8.595  17.849  10.337 -0.2080  0.0822  0.3702
  498loPI   GL2 7958   8.261  17.833  10.054  0.3180 -0.3519 -0.0711
  498loPI   C1A 7959   8.811  17.880   9.980  0.0603 -0.1316  0.0136
  498loPI   C2A 7960   8.693  18.018   9.550 -0.2992 -0.3035  0.5140
  498loPI   C3A 7961   8.694  17.989   9.114  0.2397 -0.2006  0.2031
  498loPI   C4A 7962   8.688  17.900   8.617  0.0413  0.0745 -0.0474
  498loPI   C5A 7963   8.634  17.805   8.238  0.0663 -0.0059 -0.0120
  498loPI   C6A 7964   8.817  17.707   7.882  0.0390 -0.1924 -0.1743
  498loPI   C1B 7965   8.283  17.812   9.626  0.0575  0.0437 -0.0412
  498loPI   C2B 7966   8.215  17.758   9.210  0.0668 -0.4302 -0.0456
  498loPI   C3B 7967   8.177  17.797   8.683 -0.0672  0.0780 -0.0041
  498loPI   C4B 7968   7.927  17.814   8.412  0.4323 -0.5837 -0.1034
  499loPI    C1 7969   9.448   3.053  10.960 -0.2826 -0.1464 -0.2009
  499loPI    C2 7970   9.331   2.729  11.164  0.0958 -0.0255  0.2230
  499loPI    C3 7971   9.600   2.979  11.322  0.0578  0.3216 -0.2400
  499loPI   PO4 7972   9.460   2.929  10.649  0.0580  0.1042  0.2004
  499loPI   GL1 7973   9.300   2.642  10.327  0.0964  0.1924  0.1294
  499loPI   GL2 7974   9.535   2.767  10.190  0.1319 -0.1217  0.4581
  499loPI   C1A 7975   9.188   2.480   9.960  0.0387  0.0987  0.3621
  499loPI   C2A 7976   9.228   2.447   9.501  0.0190 -0.4052  0.2767
  499loPI   C3A 7977   9.202   2.509   9.056 -0.2837  0.2552 -0.1667
  499loPI   C4A 7978   9.157   2.528   8.629 -0.2876 -0.1108 -0.1359
  499loPI   C5A 7979   9.079   2.749   8.246 -0.1713 -0.1619 -0.0835
  499loPI   C6A 7980   8.927   2.791   7.822 -0.3672  0.2004  0.1622
  499loPI   C1B 7981   9.677   2.752   9.673  0.1962  0.0334  0.0678
  499loPI   C2B 7982   9.740   2.691   9.306 -0.0511  0.1529  0.0681
  499loPI   C3B 7983   9.651   2.702   8.829 -0.0835  0.0066 -0.2794
  499loPI   C4B 7984   9.608   2.677   8.400  0.2151 -0.2329 -0.0599
  500loPI    C1 7985   5.440   5.572  10.394  0.0786  0.1375 -0.0201
  500loPI    C2 7986   5.712   5.466  10.668  0.0327 -0.0919 -0.0617
  500loPI    C3 7987   5.373   5.647  10.781 -0.0370 -0.2868  0.0468
  500loPI   PO4 7988   5.544   5.678  10.228  0.1752  0.1358  0.0784
  500loPI   GL1 7989   5.346   5.820   9.786 -0.1600  0.0422  0.3176
  500loPI   GL2 7990   5.218   5.581   9.869  0.3054 -0.2041  0.1957
  500loPI   C1A 7991   5.335   5.841   9.411  0.1155  0.3119 -0.0367
  500loPI   C2A 7992   5.403   5.828   9.016  0.2967  0.0913  0.1372
  500loPI   C3A 7993   5.381   5.683   8.715 -0.0196  0.2015 -0.0916
  500loPI   C4A 7994   5.323   5.554   8.289 -0.2016 -0.1100  0.2064
  500loPI   C5A 7995   5.177   5.321   7.910  0.0251 -0.1641 -0.0756
  500loPI   C6A 7996   5.081   4.860   7.844  0.1144  0.0371  0.3232
  500loPI   C1B 7997   5.059   5.405   9.422 -0.0486 -0.0835  0.1978
  500loPI   C2B 7998   5.116   5.355   8.996  0.3927 -0.4448 -0.1106
  500loPI   C3B 7999   5.066   5.232   8.548 -0.1057  0.1227  0.0459
  500loPI   C4B 8000   4.800   5.196   8.226  0.1694 -0.0747  0.2243
  501loPI    C1 8001  18.017   2.358  10.102 -0.0852  0.2574  0.3059
  501loPI    C2 8002  17.678   2.189   9.975  0.0068  0.2627  0.0480
  501loPI    C3 8003  17.746   2.229  10.367 -0.1777  0.0342  0.1058
  501loPI   PO4 8004  18.010   2.642   9.906  0.0096 -0.0945 -0.2697
  501loPI   GL1 8005  17.768   2.545   9.535 -0.1165  0.2808  0.0158
  501loPI   GL2 8006  17.498   2.561   9.749 -0.0409  0.0960  0.2639
  501loPI   C1A 8007  17.846   2.826   9.293 -0.1334 -0.2438 -0.2051
  501loPI   C2A 8008  17.744   2.684   8.845  0.0424  0.2322 -0.0201
  501loPI   C3A 8009  17.786   2.751   8.378 -0.0916 -0.1036 -0.0083
  501loPI   C4A 8010  17.848   2.698   7.922  0.0566 -0.1022  0.0471
  501loPI   C5A 8011  17.790   2.678   7.531 -0.1822 -0.0556  0.0895
  501loPI   C6A 8012  17.731   2.427   7.258  0.1061  0.0893 -0.3150
  501loPI   C1B 8013  17.339   2.577   9.360  0.0015  0.0575 -0.1141
  501loPI   C2B 8014  17.291   2.551   8.905 -0.2688  0.1588 -0.1449
  501loPI   C3B 8015  17.386   2.538   8.604  0.1181 -0.2162 -0.2714
  501loPI   C4B 8016  17.347   2.436   8.245 -0.0389 -0.0732 -0.0320
  502loPI    C1 8017  16.479   6.471  10.251  0.0211  0.0446 -0.1394
  502loPI    C2 8018  16.113   6.359  10.368  0.0661  0.1346  0.0933
  502loPI    C3 8019  16.435   6.227  10.566  0.1429  0.3046  0.0834
  502loPI   PO4 8020  16.351   6.443   9.942 -0.0770  0.1406 -0.0145
  502loPI   GL1 8021  16.581   6.541   9.560  0.1031  0.0553  0.1983
  502loPI   GL2 8022  16.687   6.292   9.503 -0.2892  0.0434  0.0670
  502loPI   C1A 8023  16.326   6.602   9.189 -0.1336  0.0634  0.1098
  502loPI   C2A 8024  16.283   6.604   8.766 -0.2445  0.4174 -0.0547
  502loPI   C3A 8025  16.253   6.613   8.372 -0.2580 -0.1834  0.0090
  502loPI   C4A 8026  16.246   6.685   7.894  0.1320  0.2052  0.2057
  502loPI   C5A 8027  16.171   6.735   7.574 -0.2448  0.1309  0.0368
  502loPI   C6A 8028  16.258   6.569   7.135  0.1055  0.3710  0.0390
  502loPI   C1B 8029  16.745   6.319   9.124  0.0839  0.0475  0.0401
  502loPI   C2B 8030  16.710   6.324   8.690 -0.0129 -0.2996 -0.1434
  502loPI   C3B 8031  16.651   6.302   8.284 -0.1580  0.2209 -0.2464
  502loPI   C4B 8032  16.674   6.323   7.882 -0.0924 -0.0229 -0.2511
  503loPI    C1 8033  13.137   4.804  10.489  0.1016 -0.1157 -0.1860
  503loPI    C2 8034  13.493   4.923  10.351  0.1679 -0.0991 -0.0029
  503loPI    C3 8035  13.472   4.648  10.641  0.0270 -0.2115 -0.1181
  503loPI   PO4 8036  12.999   4.700  10.330 -0.2558 -0.0553  0.0118
  503loPI   GL1 8037  13.137   4.584   9.930 -0.2193  0.0575 -0.0780
  503loPI   GL2 8038  13.093   4.352   9.637 -0.0650  0.0543 -0.0861
  503loPI   C1A 8039  12.984   4.821   9.557 -0.3404 -0.0700  0.0090
  503loPI   C2A 8040  12.943   4.936   9.143 -0.1313  0.0471 -0.1977
  503loPI   C3A 8041  13.001   4.889   8.736 -0.1129 -0.2400  0.1452
  503loPI   C4A 8042  13.167   4.903   8.354  0.1600 -0.0679 -0.1375
  503loPI   C5A 8043  13.364   5.105   7.974  0.0870 -0.1855 -0.2429
  503loPI   C6A 8044  13.538   4.900   7.585  0.1234 -0.3694 -0.0164
  503loPI   C1B 8045  12.890   4.425   9.273 -0.1609 -0.1366  0.1476
  503loPI   C2B 8046  12.926   4.389   8.882 -0.0080  0.1098 -0.0165
  503loPI   C3B 8047  13.014   4.375   8.441 -0.0509 -0.0052 -0.1731
  503loPI   C4B 8048  12.925   4.435   7.979  0.0942 -0.0737 -0.1190
  504loPI    C1 8049   3.859   2.035  11.187 -0.1203 -0.1312  0.0488
  504loPI    C2 8050   4.014   2.379  11.320 -0.0058 -0.1083 -0.1410
  504loPI    C3 8051   4.125   2.032  11.487 -0.2973 -0.0393  0.2088
  504loPI   PO4 8052   3.944   1.958  10.907 -0.1649  0.1618 -0.2897
  504loPI   GL1 8053   3.797   1.952  10.466 -0.0353 -0.2657  0.1168
  504loPI   GL2 8054   4.198   1.922  10.344  0.2153  0.0050  0.0702
  504loPI   C1A 8055   3.808   1.868   9.997  0.1845 -0.0770  0.1297
  504loPI   C2A 8056   3.854   1.672   9.635 -0.1933  0.0735  0.0940
  504loPI   C3A 8057   3.928   1.699   9.293 -0.0890  0.0325 -0.2434
  504loPI   C4A 8058   3.892   1.663   8.859  0.1313  0.0435 -0.6010
  504loPI   C5A 8059   3.832   1.743   8.450 -0.3051 -0.0682 -0.1339
  504loPI   C6A 8060   4.187   2.033   8.181 -0.0637 -0.0745 -0.0194
  504loPI   C1B 8061   4.311   1.893   9.847  0.1432  0.1359  0.1696
  504loPI   C2B 8062   4.347   1.889   9.423 -0.3496  0.3052  0.0073
  504loPI   C3B 8063   4.338   1.835   8.992 -0.0120  0.2142  0.0418
  504loPI   C4B 8064   4.328   1.884   8.630 -0.3393  0.2322 -0.2094
  505loPI    C1 8065   7.845  10.129  11.129 -0.1897 -0.0273 -0.1875
  505loPI    C2 8066   7.594  10.354  11.344 -0.0505 -0.0693  0.0221
  505loPI    C3 8067   7.561   9.955  11.350  0.1882 -0.0882  0.2663
  505loPI   PO4 8068   7.874  10.203  10.865  0.0173 -0.0661 -0.0222
  505loPI   GL1 8069   8.045  10.355  10.567  0.0037 -0.0183 -0.1928
  505loPI   GL2 8070   8.101   9.981  10.509  0.2347  0.1739  0.0465
  505loPI   C1A 8071   7.909  10.380  10.186  0.1924  0.0116  0.1221
  505loPI   C2A 8072   7.844  10.443   9.738  0.1419  0.3451  0.1802
  505loPI   C3A 8073   7.938  10.402   9.389  0.0258  0.1161  0.0713
  505loPI   C4A 8074   7.894  10.385   8.979 -0.2127 -0.0516  0.1623
  505loPI   C5A 8075   7.762  10.269   8.603  0.3112  0.5090 -0.0902
  505loPI   C6A 8076   7.617  10.142   8.203  0.1154 -0.0451  0.1143
  505loPI   C1B 8077   7.940   9.833  10.024 -0.1951  0.0380 -0.1620
  505loPI   C2B 8078   7.816   9.817   9.612 -0.3026  0.0346 -0.0035
  505loPI   C3B 8079   7.783   9.845   9.131 -0.1199  0.1272  0.1635
  505loPI   C4B 8080   7.893   9.733   8.580 -0.2506  0.2992  0.0208
  506loPI    C1 8081   3.817  13.996  10.907 -0.2431 -0.1557 -0.1587
  506loPI    C2 8082   4.042  13.685  10.794 -0.0350 -0.0301 -0.0951
  506loPI    C3 8083   4.160  13.918  11.096 -0.1998  0.0997 -0.1291
  506loPI   PO4 8084   3.794  14.159  10.696 -0.0599 -0.0708 -0.0859
  506loPI   GL1 8085   4.108  14.235  10.378  0.0395  0.0719 -0.0398
  506loPI   GL2 8086   3.930  14.032  10.257 -0.0131  0.1360 -0.2138
  506loPI   C1A 8087   4.469  14.216  10.038  0.2531  0.1186 -0.0150
  506loPI   C2A 8088   4.471  14.269   9.618 -0.4216  0.1132  0.0991
  506loPI   C3A 8089   4.413  14.275   9.196 -0.1978 -0.0266 -0.1092
  506loPI   C4A 8090   4.392  14.313   8.803 -0.1813 -0.0781 -0.0518
  506loPI   C5A 8091   4.482  14.209   8.473 -0.1467 -0.0367  0.1971
  506loPI   C6A 8092   4.234  13.829   8.189  0.1120 -0.2120 -0.1955
  506loPI   C1B 8093   4.039  13.932   9.817  0.3050 -0.0836  0.1716
  506loPI   C2B 8094   3.991  14.003   9.408 -0.0002 -0.1079  0.4481
  506loPI   C3B 8095   3.940  14.083   8.975 -0.0839 -0.0539  0.0369
  506loPI   C4B 8096   3.869  14.054   8.606  0.2090  0.0671 -0.4719
  507loPI    C1 8097   2.705  14.500  11.016  0.3215  0.1751  0.2168
  507loPI    C2 8098   2.485  14.232  10.817  0.2552  0.2986  0.1228
  507loPI    C3 8099   2.481  14.236  11.217  0.2903  0.1320  0.1260
  507loPI   PO4 8100   2.972  14.378  10.843 -0.1306  0.0022  0.1200
  507loPI   GL1 8101   2.918  14.334  10.525  0.1578  0.0683 -0.1981
  507loPI   GL2 8102   2.684  14.325  10.346  0.0727 -0.0230  0.0252
  507loPI   C1A 8103   3.064  14.044  10.146 -0.3571 -0.2990 -0.2256
  507loPI   C2A 8104   3.035  14.053   9.677  0.0834  0.0361  0.2384
  507loPI   C3A 8105   3.055  14.047   9.134 -0.0888  0.0365  0.3592
  507loPI   C4A 8106   3.016  14.074   8.656 -0.0395 -0.0929  0.1986
  507loPI   C5A 8107   2.913  13.782   8.263  0.0812  0.2125 -0.2451
  507loPI   C6A 8108   2.853  13.506   7.827 -0.3219 -0.1144 -0.1093
  507loPI   C1B 8109   2.745  14.371   9.867  0.0352 -0.3045 -0.0070
  507loPI   C2B 8110   2.596  14.390   9.356  0.1324  0.0710  0.3091
  507loPI   C3B 8111   2.682  14.347   8.945 -0.0855 -0.0538 -0.0886
  507loPI   C4B 8112   2.501  14.345   8.553 -0.3759  0.0159 -0.0302
  508loPI    C1 8113  16.564   2.359  10.453 -0.1724  0.0991  0.1288
  508loPI    C2 8114  16.773   2.652  10.627  0.0075 -0.0200  0.1154
  508loPI    C3 8115  16.571   2.390  10.851 -0.1438  0.1065  0.1278
  508loPI   PO4 8116  16.390   2.454  10.187  0.3543  0.1435  0.1304
  508loPI   GL1 8117  16.128   2.374   9.742 -0.0246 -0.2907 -0.0652
  508loPI   GL2 8118  15.986   2.361   9.399 -0.0387  0.0955  0.2418
  508loPI   C1A 8119  16.366   2.133   9.550 -0.1043 -0.0245 -0.1345
  508loPI   C2A 8120  16.461   2.078   9.106  0.1246 -0.2608 -0.1409
  508loPI   C3A 8121  16.441   2.130   8.627  0.2309 -0.0968  0.1389
  508loPI   C4A 8122  16.394   2.066   8.161 -0.0256 -0.0361 -0.0815
  508loPI   C5A 8123  16.295   2.089   7.785 -0.0857 -0.0913  0.0357
  508loPI   C6A 8124  16.239   2.259   7.305  0.0202  0.0943  0.4131
  508loPI   C1B 8125  15.971   2.316   8.970 -0.1531  0.1691 -0.0270
  508loPI   C2B 8126  15.981   2.329   8.513  0.0101  0.0158  0.1087
  508loPI   C3B 8127  15.938   2.359   8.161  0.0991 -0.1180  0.1355
  508loPI   C4B 8128  16.135   2.555   7.731 -0.2147  0.2410  0.1094
  509loPI    C1 8129  15.524   5.916  10.071  0.0544  0.0214  0.1101
  509loPI    C2 8130  15.462   6.017  10.453  0.1530  0.2659  0.0632
  509loPI    C3 8131  15.819   5.878  10.338  0.0527 -0.0318  0.1045
  509loPI   PO4 8132  15.406   6.080   9.948 -0.0056 -0.3053 -0.2136
  509loPI   GL1 8133  15.496   6.187   9.557 -0.0521  0.0156  0.1017
  509loPI   GL2 8134  15.726   5.919   9.555 -0.2219 -0.0497 -0.2347
  509loPI   C1A 8135  15.272   6.138   9.178  0.2937 -0.0525 -0.1637
  509loPI   C2A 8136  15.226   6.079   8.763  0.0939 -0.0080  0.0308
  509loPI   C3A 8137  15.398   6.081   8.268 -0.0496  0.0041  0.0914
  509loPI   C4A 8138  15.173   6.158   7.889 -0.2788  0.0625  0.4159
  509loPI   C5A 8139  14.845   5.889   7.642 -0.2284  0.1089 -0.3498
  509loPI   C6A 8140  14.447   5.960   7.528 -0.3272 -0.0188 -0.1988
  509loPI   C1B 8141  15.744   5.832   9.235  0.1415 -0.1976  0.2471
  509loPI   C2B 8142  15.689   5.775   8.796 -0.0214  0.0194  0.2148
  509loPI   C3B 8143  15.848   5.897   8.368  0.1284  0.0977 -0.1170
  509loPI   C4B 8144  15.867   5.869   7.989  0.0555  0.0779  0.0880
  510loPI    C1 8145   3.070  11.097  10.890 -0.2189  0.0689 -0.2151
  510loPI    C2 8146   3.096  11.336  11.209  0.0212  0.0740 -0.2372
  510loPI    C3 8147   3.091  10.939  11.257  0.2729  0.0691 -0.2375
  510loPI   PO4 8148   3.222  11.312  10.685 -0.2284  0.0345 -0.1179
  510loPI   GL1 8149   3.229  11.459  10.231 -0.0934 -0.0401 -0.0873
  510loPI   GL2 8150   3.431  11.536  10.180  0.0483  0.0264 -0.0002
  510loPI   C1A 8151   3.054  11.339   9.805  0.0826  0.1439  0.0783
  510loPI   C2A 8152   2.896  11.506   9.494  0.0556  0.0443  0.0852
  510loPI   C3A 8153   2.921  11.413   9.025  0.0246 -0.2961  0.1874
  510loPI   C4A 8154   2.994  11.387   8.631  0.0079 -0.1345  0.0311
  510loPI   C5A 8155   3.146  11.472   8.271  0.2079  0.0267 -0.4362
  510loPI   C6A 8156   3.437  11.720   8.128  0.0624 -0.2119 -0.1861
  510loPI   C1B 8157   3.446  11.669   9.800 -0.1637  0.2500  0.0908
  510loPI   C2B 8158   3.406  11.726   9.369  0.2668 -0.1100  0.1671
  510loPI   C3B 8159   3.397  11.685   8.919 -0.3135  0.3748 -0.3040
  510loPI   C4B 8160   3.570  11.634   8.567 -0.0245  0.1670 -0.1007
  511loPI    C1 8161   0.225  11.549  10.654 -0.0617  0.3143  0.0424
  511loPI    C2 8162  -0.050  11.338  10.454 -0.0670  0.1480  0.2225
  511loPI    C3 8163   0.057  11.228  10.824  0.0252  0.3864  0.2686
  511loPI   PO4 8164   0.197  11.755  10.609 -0.2954  0.1426  0.1090
  511loPI   GL1 8165   0.093  11.870  10.217 -0.0674  0.0815  0.2725
  511loPI   GL2 8166   0.365  11.828  10.132  0.1923 -0.1449 -0.2804
  511loPI   C1A 8167  -0.094  11.968   9.843 -0.1008  0.1646 -0.0308
  511loPI   C2A 8168  -0.145  11.899   9.558  0.0268  0.1822  0.1009
  511loPI   C3A 8169  -0.159  11.933   9.189 -0.2575 -0.3224 -0.1513
  511loPI   C4A 8170  -0.223  11.858   8.714  0.1203 -0.2378  0.0716
  511loPI   C5A 8171  -0.341  11.970   8.318 -0.2619 -0.2446  0.2138
  511loPI   C6A 8172  -0.575  12.010   7.980 -0.0358  0.1164  0.5129
  511loPI   C1B 8173   0.339  12.171   9.817 -0.2858 -0.1939  0.1680
  511loPI   C2B 8174   0.327  12.164   9.410  0.0107 -0.2290 -0.2134
  511loPI   C3B 8175   0.231  12.189   9.006 -0.2067 -0.0209  0.0359
  511loPI   C4B 8176   0.138  12.143   8.605 -0.0126 -0.0214  0.2378
  512loPI    C1 8177  12.530  12.749  11.170 -0.0136 -0.1037  0.0126
  512loPI    C2 8178  12.214  12.883  11.375 -0.1112 -0.2051 -0.0702
  512loPI    C3 8179  12.515  12.702  11.567 -0.1160 -0.1336  0.0054
  512loPI   PO4 8180  12.420  12.975  10.912  0.0081  0.1472 -0.1333
  512loPI   GL1 8181  12.173  12.810  10.501 -0.0559 -0.0482  0.0271
  512loPI   GL2 8182  11.974  12.444  10.508  0.0704 -0.1199  0.2012
  512loPI   C1A 8183  12.416  12.725  10.123 -0.1289  0.0543  0.3509
  512loPI   C2A 8184  12.428  12.770   9.679  0.0044  0.0793 -0.1891
  512loPI   C3A 8185  12.412  12.851   9.238 -0.3862 -0.2381 -0.5183
  512loPI   C4A 8186  12.490  12.747   8.709  0.0720  0.2996 -0.3799
  512loPI   C5A 8187  12.665  12.897   8.341 -0.0892  0.0151  0.2709
  512loPI   C6A 8188  13.057  13.113   8.373  0.1880 -0.1800  0.0137
  512loPI   C1B 8189  11.870  12.613  10.200 -0.1712 -0.0410  0.0652
  512loPI   C2B 8190  11.986  12.545   9.768  0.0030  0.0742 -0.3804
  512loPI   C3B 8191  11.997  12.552   9.298  0.3189 -0.0594 -0.2032
  512loPI   C4B 8192  11.913  12.591   8.814  0.2006  0.2733  0.0174
  513loPI    C1 8193  10.220  16.634  10.926  0.1923  0.0358 -0.0030
  513loPI    C2 8194   9.888  16.788  11.089  0.0958 -0.0549 -0.1114
  513loPI    C3 8195  10.160  16.607  11.320  0.0475 -0.0216 -0.0283
  513loPI   PO4 8196  10.153  16.477  10.756 -0.1075 -0.0025  0.1382
  513loPI   GL1 8197  10.225  16.204  10.397  0.3637 -0.1684 -0.1291
  513loPI   GL2 8198   9.985  16.195  10.252 -0.0273  0.0934 -0.3414
  513loPI   C1A 8199  10.381  16.305  10.034 -0.2925  0.0420  0.2277
  513loPI   C2A 8200  10.366  16.344   9.625 -0.2026  0.0698 -0.2547
  513loPI   C3A 8201  10.376  16.347   9.243 -0.1400 -0.3518 -0.1127
  513loPI   C4A 8202  10.500  16.438   8.768  0.1507  0.1591  0.0816
  513loPI   C5A 8203  10.580  16.600   8.279 -0.1787 -0.5278  0.0919
  513loPI   C6A 8204  10.736  16.917   8.027 -0.0170  0.1437  0.0325
  513loPI   C1B 8205   9.893  16.154   9.862  0.3104 -0.0445  0.0230
  513loPI   C2B 8206   9.898  16.149   9.444 -0.2147  0.2162 -0.2055
  513loPI   C3B 8207   9.950  16.102   9.032 -0.3187 -0.1859  0.0639
  513loPI   C4B 8208  10.146  16.121   8.626 -0.3651 -0.2096 -0.0350
  514loPI    C1 8209  16.089  11.154  11.200 -0.0877  0.1127  0.0188
  514loPI    C2 8210  16.309  11.448  11.357 -0.0222  0.1098 -0.0673
  514loPI    C3 8211  16.397  11.067  11.439 -0.0785  0.1126  0.0069
  514loPI   PO4 8212  15.966  11.372  10.934 -0.3112 -0.0636  0.2030
  514loPI   GL1 8213  15.779  11.653  10.634 -0.1886  0.0269 -0.3308
  514loPI   GL2 8214  15.501  11.672  10.481 -0.1189 -0.0649  0.2515
  514loPI   C1A 8215  15.895  11.862  10.173  0.0311  0.1882 -0.2095
  514loPI   C2A 8216  15.580  12.043   9.921  0.3942 -0.1279  0.0334
  514loPI   C3A 8217  15.628  11.982   9.548  0.0342 -0.0262 -0.0187
  514loPI   C4A 8218  15.653  11.867   9.128 -0.2781  0.0046  0.1612
  514loPI   C5A 8219  15.585  11.839   8.604 -0.1166 -0.0188 -0.4157
  514loPI   C6A 8220  15.339  11.618   8.328 -0.0524  0.1367 -0.3223
  514loPI   C1B 8221  15.208  11.763  10.197 -0.1625  0.0621 -0.2990
  514loPI   C2B 8222  15.111  11.715   9.753 -0.4161 -0.3431 -0.3021
  514loPI   C3B 8223  15.138  11.674   9.277  0.2249 -0.0475  0.0016
  514loPI   C4B 8224  15.157  11.632   8.853  0.2278  0.2197  0.5217
  515loPI    C1 8225  16.636  10.353  10.462 -0.0028  0.0592 -0.0284
  515loPI    C2 8226  16.783   9.988  10.535  0.1180  0.1035 -0.0485
  515loPI    C3 8227  16.716  10.241  10.837  0.1439  0.1063 -0.0451
  515loPI   PO4 8228  16.625  10.316  10.181  0.1525 -0.0451 -0.2592
  515loPI   GL1 8229  16.417  10.017   9.940  0.0211 -0.0110 -0.0328
  515loPI   GL2 8230  16.672   9.818  10.027 -0.2306  0.0466 -0.1023
  515loPI   C1A 8231  16.415  10.247   9.567 -0.1683  0.2650 -0.1015
  515loPI   C2A 8232  16.453  10.412   9.247 -0.1387 -0.2298  0.2344
  515loPI   C3A 8233  16.401  10.330   8.876  0.3029  0.0178 -0.1797
  515loPI   C4A 8234  16.505  10.337   8.455  0.4416 -0.0639  0.2530
  515loPI   C5A 8235  16.610  10.538   8.119  0.0556 -0.0429  0.0806
  515loPI   C6A 8236  16.947  10.501   7.729  0.0114 -0.1718 -0.0262
  515loPI   C1B 8237  16.841   9.643   9.649 -0.1825  0.3181 -0.0786
  515loPI   C2B 8238  16.855   9.478   9.287  0.0147 -0.0110 -0.0310
  515loPI   C3B 8239  16.921   9.473   8.845  0.2178  0.1871 -0.3368
  515loPI   C4B 8240  16.784   9.497   8.407  0.2566  0.2460 -0.1631
  516loPI    C1 8241  15.917   2.628  10.317 -0.0899  0.2417  0.0392
  516loPI    C2 8242  15.904   2.854  10.647 -0.1868  0.0619  0.1600
  516loPI    C3 8243  16.133   2.526  10.638 -0.2266  0.0362  0.0677
  516loPI   PO4 8244  15.970   2.838  10.151  0.1681  0.1726  0.1931
  516loPI   GL1 8245  15.928   3.022   9.729 -0.1499 -0.1000  0.3502
  516loPI   GL2 8246  15.689   3.157   9.611 -0.0060  0.0944 -0.4557
  516loPI   C1A 8247  16.020   2.853   9.288 -0.1525 -0.1403  0.1435
  516loPI   C2A 8248  16.020   2.791   8.820 -0.2600  0.1965 -0.0124
  516loPI   C3A 8249  16.080   2.900   8.399 -0.2308 -0.4380  0.2114
  516loPI   C4A 8250  16.001   2.871   8.035  0.0587  0.1001 -0.0512
  516loPI   C5A 8251  16.141   3.133   7.664  0.4710 -0.0168 -0.2234
  516loPI   C6A 8252  16.047   3.259   7.235  0.0792 -0.0424  0.1339
  516loPI   C1B 8253  15.602   3.093   9.122 -0.3270  0.1354 -0.0326
  516loPI   C2B 8254  15.610   3.164   8.673  0.0155 -0.2667 -0.0960
  516loPI   C3B 8255  15.667   3.169   8.242 -0.0279  0.1463  0.2920
  516loPI   C4B 8256  15.747   3.410   7.808 -0.0576 -0.2189 -0.1694
  517loPI    C1 8257  16.379   4.207  10.476  0.0035  0.0545 -0.1138
  517loPI    C2 8258  16.738   4.081  10.603 -0.2256 -0.0832  0.4253
  517loPI    C3 8259  16.620   4.457  10.676 -0.0319  0.0937 -0.1199
  517loPI   PO4 8260  16.413   4.236  10.151 -0.2626 -0.0176  0.2969
  517loPI   GL1 8261  16.129   4.223   9.866 -0.4896  0.0266  0.0699
  517loPI   GL2 8262  16.077   4.479   9.813 -0.2297  0.0006 -0.2875
  517loPI   C1A 8263  16.108   4.071   9.461  0.0855 -0.2385 -0.0606
  517loPI   C2A 8264  16.155   3.981   9.139 -0.2983 -0.0002 -0.1055
  517loPI   C3A 8265  16.052   3.920   8.668  0.0564  0.0091  0.1942
  517loPI   C4A 8266  16.137   3.921   8.231  0.0460 -0.2671 -0.0723
  517loPI   C5A 8267  16.149   3.793   7.884  0.1136 -0.0247  0.0529
  517loPI   C6A 8268  16.241   3.669   7.547 -0.3881 -0.1163  0.0481
  517loPI   C1B 8269  15.822   4.550   9.518  0.0327  0.1016 -0.0967
  517loPI   C2B 8270  15.771   4.723   9.054 -0.0004 -0.2626 -0.0487
  517loPI   C3B 8271  15.736   4.711   8.653 -0.0850  0.0166 -0.0840
  517loPI   C4B 8272  15.790   4.729   8.251  0.0101  0.1476  0.0264
  518loPI    C1 8273   2.786  17.524  10.869 -0.3253 -0.1796 -0.1113
  518loPI    C2 8274   2.468  17.732  10.994 -0.1488  0.1424 -0.1895
  518loPI    C3 8275   2.794  17.707  11.225 -0.1775 -0.0701 -0.1701
  518loPI   PO4 8276   2.785  17.572  10.619  0.3325  0.0974 -0.1407
  518loPI   GL1 8277   2.782  17.307  10.278  0.1114 -0.2816  0.0078
  518loPI   GL2 8278   2.555  17.515  10.130  0.0243 -0.0374  0.3305
  518loPI   C1A 8279   2.685  17.054   9.996 -0.0561  0.3082 -0.1252
  518loPI   C2A 8280   2.775  17.026   9.556  0.5555 -0.1709  0.1427
  518loPI   C3A 8281   2.865  16.940   9.189  0.3072  0.3273 -0.2168
  518loPI   C4A 8282   2.922  16.915   8.747 -0.0080  0.2088 -0.1109
  518loPI   C5A 8283   2.883  16.989   8.364 -0.0827  0.0345  0.0963
  518loPI   C6A 8284   3.020  16.861   7.964  0.1882  0.0944  0.0341
  518loPI   C1B 8285   2.702  17.505   9.641  0.1208  0.1567 -0.0562
  518loPI   C2B 8286   2.804  17.481   9.187  0.1114 -0.2437  0.1878
  518loPI   C3B 8287   2.872  17.554   8.738  0.0354  0.0828 -0.0950
  518loPI   C4B 8288   2.823  17.489   8.285 -0.1181  0.1567 -0.1357
  519loPI    C1 8289   6.033  13.583  11.192  0.2054  0.1063 -0.0822
  519loPI    C2 8290   5.960  13.953  11.325 -0.0657  0.0573 -0.0893
  519loPI    C3 8291   5.905  13.638  11.567 -0.0376  0.0070 -0.1480
  519loPI   PO4 8292   6.023  13.672  10.871 -0.3195  0.3034  0.0127
  519loPI   GL1 8293   5.980  13.714  10.505  0.0429 -0.1593 -0.0550
  519loPI   GL2 8294   6.159  13.494  10.460 -0.0654 -0.1851  0.0935
  519loPI   C1A 8295   6.164  13.739  10.010  0.0299  0.1056  0.0192
  519loPI   C2A 8296   6.203  13.746   9.470 -0.1200 -0.0728  0.0948
  519loPI   C3A 8297   6.170  13.721   9.005 -0.2130 -0.1067  0.0843
  519loPI   C4A 8298   6.109  13.746   8.624  0.0931 -0.2541  0.1665
  519loPI   C5A 8299   5.863  13.853   8.254  0.0733 -0.1687  0.1962
  519loPI   C6A 8300   5.505  14.182   8.100  0.2956 -0.0615 -0.2982
  519loPI   C1B 8301   6.186  13.104  10.149 -0.0844 -0.3997  0.4217
  519loPI   C2B 8302   6.199  13.064   9.687 -0.4207 -0.3683 -0.3692
  519loPI   C3B 8303   6.157  13.073   9.224 -0.1103  0.0430  0.0872
  519loPI   C4B 8304   6.185  13.188   8.827 -0.4691 -0.0117  0.0691
  520loPI    C1 8305  15.493   1.297  10.342  0.0992  0.1301 -0.0791
  520loPI    C2 8306  15.347   0.965  10.511  0.0083  0.0049 -0.3977
  520loPI    C3 8307  15.605   1.194  10.713 -0.2408 -0.0391 -0.0192
  520loPI   PO4 8308  15.538   1.237  10.183  0.0589  0.1511 -0.1760
  520loPI   GL1 8309  15.693   1.098   9.757 -0.3232  0.1351 -0.1991
  520loPI   GL2 8310  15.845   0.797   9.761  0.1992  0.4250 -0.1277
  520loPI   C1A 8311  15.417   1.129   9.414 -0.1473 -0.2018 -0.0389
  520loPI   C2A 8312  15.501   1.040   9.036 -0.1275 -0.0966  0.1474
  520loPI   C3A 8313  15.433   1.073   8.556  0.0126  0.1097 -0.0013
  520loPI   C4A 8314  15.474   1.124   8.070  0.1913 -0.2273  0.1428
  520loPI   C5A 8315  15.403   1.035   7.705 -0.1531  0.5019 -0.0282
  520loPI   C6A 8316  15.611   1.002   7.313  0.2167  0.3219  0.2688
  520loPI   C1B 8317  15.863   0.704   9.272 -0.1437 -0.3427  0.0976
  520loPI   C2B 8318  15.909   0.730   8.828 -0.0297 -0.2118 -0.0612
  520loPI   C3B 8319  15.785   0.717   8.464 -0.1057  0.1935  0.1897
  520loPI   C4B 8320  15.841   0.825   8.007 -0.0730  0.2176 -0.4471
  521loPI    C1 8321   0.696   2.092  10.455  0.4008 -0.1277  0.0102
  521loPI    C2 8322   0.645   1.819  10.744  0.0545  0.1071  0.1776
  521loPI    C3 8323   0.774   2.186  10.836  0.2406  0.0908 -0.0095
  521loPI   PO4 8324   0.687   1.989  10.209  0.2363  0.0862 -0.1913
  521loPI   GL1 8325   0.577   1.837   9.820  0.1001  0.1820 -0.0218
  521loPI   GL2 8326   0.972   1.880   9.792 -0.0582 -0.0101  0.0427
  521loPI   C1A 8327   0.483   1.587   9.495 -0.2299 -0.0044 -0.3877
  521loPI   C2A 8328   0.432   1.543   9.113 -0.2349  0.1872  0.2966
  521loPI   C3A 8329   0.576   1.467   8.732 -0.0587 -0.2131  0.2254
  521loPI   C4A 8330   0.674   1.424   8.192  0.0446 -0.0070 -0.0840
  521loPI   C5A 8331   0.623   1.234   7.802 -0.0292  0.2630  0.0950
  521loPI   C6A 8332   0.583   0.940   7.342 -0.1801 -0.0398  0.0950
  521loPI   C1B 8333   0.911   1.835   9.412  0.2439  0.0880  0.5043
  521loPI   C2B 8334   0.914   1.837   8.997  0.0148 -0.1537  0.1133
  521loPI   C3B 8335   1.030   1.693   8.567 -0.1406  0.0610  0.2972
  521loPI   C4B 8336   1.134   1.563   8.144 -0.1592  0.1310 -0.0752
  522loPI    C1 8337  13.092   3.552  10.678 -0.0726  0.0773 -0.0357
  522loPI    C2 8338  13.302   3.268  10.865 -0.0771 -0.0784 -0.2636
  522loPI    C3 8339  12.979   3.425  11.040  0.1739  0.0996  0.0512
  522loPI   PO4 8340  13.010   3.452  10.451 -0.0565 -0.1601 -0.0578
  522loPI   GL1 8341  12.812   3.599   9.898  0.3265  0.3638  0.0523
  522loPI   GL2 8342  12.882   3.818   9.730 -0.0046  0.3833  0.0247
  522loPI   C1A 8343  12.904   3.420   9.456 -0.1555 -0.0942 -0.1508
  522loPI   C2A 8344  12.935   3.310   8.978  0.3900 -0.1833 -0.3707
  522loPI   C3A 8345  12.945   3.303   8.547 -0.0060 -0.1475  0.1248
  522loPI   C4A 8346  13.009   3.517   8.134 -0.0010 -0.2142 -0.0744
  522loPI   C5A 8347  13.055   3.595   7.633  0.2276  0.2097 -0.0740
  522loPI   C6A 8348  13.078   3.678   7.206  0.0725 -0.1769  0.1547
  522loPI   C1B 8349  12.966   3.930   9.331  0.2583 -0.0824 -0.0317
  522loPI   C2B 8350  12.947   3.803   8.940 -0.1337 -0.0291  0.3064
  522loPI   C3B 8351  12.915   3.856   8.554  0.0724  0.4022 -0.3441
  522loPI   C4B 8352  12.765   3.902   8.152  0.0955 -0.0431  0.1909
  523loPI    C1 8353  16.794   8.728  10.342 -0.0564  0.1532  0.0514
  523loPI    C2 8354  16.645   8.997  10.598 -0.1150  0.0757  0.0993
  523loPI    C3 8355  16.516   8.619  10.608 -0.0534  0.0522  0.0135
  523loPI   PO4 8356  16.747   8.791  10.066 -0.0600 -0.0732 -0.1795
  523loPI   GL1 8357  16.332   8.831   9.781  0.0570 -0.3556 -0.3902
  523loPI   GL2 8358  16.396   9.050   9.803  0.1885  0.1311 -0.1344
  523loPI   C1A 8359  16.511   8.708   9.358  0.3469 -0.0975  0.3597
  523loPI   C2A 8360  16.519   8.608   8.875 -0.2283 -0.0236 -0.0425
  523loPI   C3A 8361  16.427   8.700   8.459 -0.0179 -0.0956 -0.2444
  523loPI   C4A 8362  16.454   8.715   7.967  0.2313 -0.0495  0.1313
  523loPI   C5A 8363  16.400   8.923   7.588 -0.2630 -0.1137 -0.1673
  523loPI   C6A 8364  16.273   9.312   7.574  0.1723 -0.2033 -0.1854
  523loPI   C1B 8365  16.231   9.230   9.354  0.1295  0.3227  0.1078
  523loPI   C2B 8366  16.419   9.216   9.025 -0.0969  0.1697  0.1198
  523loPI   C3B 8367  16.345   9.323   8.597  0.0410  0.1384 -0.4051
  523loPI   C4B 8368  16.310   9.213   8.041 -0.1385  0.2551  0.0580
  524loPI    C1 8369  10.704   6.148  11.084  0.2281  0.1223  0.2367
  524loPI    C2 8370  10.758   5.863  11.360  0.0109  0.1067  0.2647
  524loPI    C3 8371  10.422   6.081  11.360 -0.0834 -0.0306 -0.1096
  524loPI   PO4 8372  10.769   6.093  10.821  0.1860 -0.2042 -0.0598
  524loPI   GL1 8373  10.677   5.937  10.409 -0.0283  0.1717 -0.2837
  524loPI   GL2 8374  10.799   6.294  10.342 -0.2732  0.0742 -0.2013
  524loPI   C1A 8375  10.875   5.901   9.985  0.1951  0.1058 -0.4423
  524loPI   C2A 8376  10.819   5.897   9.618  0.0753  0.0288  0.0807
  524loPI   C3A 8377  10.700   5.778   9.285 -0.1507 -0.0920  0.3446
  524loPI   C4A 8378  10.766   5.806   8.839  0.0074 -0.0428 -0.0585
  524loPI   C5A 8379  10.669   5.905   8.351 -0.0040 -0.1930 -0.1341
  524loPI   C6A 8380  10.370   5.988   8.013 -0.1955 -0.0632  0.4918
  524loPI   C1B 8381  10.495   6.244  10.024 -0.0125 -0.2028  0.0207
  524loPI   C2B 8382  10.378   6.081   9.703  0.0352  0.1121 -0.0554
  524loPI   C3B 8383  10.368   6.157   9.243 -0.0675  0.1443  0.2363
  524loPI   C4B 8384  10.359   6.054   8.795  0.0494  0.1416 -0.1519
  525loPI    C1 8385  13.759   1.222  10.497  0.0033  0.0912  0.0871
  525loPI    C2 8386  14.026   1.221  10.794  0.0139  0.2218  0.0787
  525loPI    C3 8387  13.758   1.517  10.768 -0.0149  0.1874 -0.0169
  525loPI   PO4 8388  13.868   1.155  10.313  0.0228  0.1934  0.1225
  525loPI   GL1 8389  14.072   1.177   9.979  0.1702 -0.0855  0.0034
  525loPI   GL2 8390  14.417   1.280   9.958 -0.1429  0.0118 -0.0531
  525loPI   C1A 8391  14.024   0.985   9.599  0.2766  0.1703 -0.0844
  525loPI   C2A 8392  14.010   0.835   9.159 -0.3881  0.2223  0.2119
  525loPI   C3A 8393  14.043   0.880   8.727 -0.1782 -0.2568 -0.1088
  525loPI   C4A 8394  14.126   0.876   8.257  0.1211 -0.2549 -0.1468
  525loPI   C5A 8395  14.003   0.727   7.934 -0.0525 -0.0225 -0.1753
  525loPI   C6A 8396  13.814   0.453   7.651 -0.0408  0.4401 -0.1167
  525loPI   C1B 8397  14.497   1.125   9.499  0.0038 -0.1315 -0.1251
  525loPI   C2B 8398  14.569   1.165   9.106 -0.2065 -0.0164 -0.1786
  525loPI   C3B 8399  14.543   1.053   8.748  0.0992 -0.3089  0.1617
  525loPI   C4B 8400  14.544   1.127   8.362 -0.1613 -0.1001 -0.3906
  526loPI    C1 8401   8.487   0.928  10.897  0.0184  0.0617  0.0396
  526loPI    C2 8402   8.187   0.917  11.162  0.0175  0.1723  0.0433
  526loPI    C3 8403   8.538   1.080  11.263  0.0795  0.0426  0.0392
  526loPI   PO4 8404   8.380   0.919  10.628  0.1827  0.0180  0.0513
  526loPI   GL1 8405   8.160   0.854  10.311 -0.2409  0.0564  0.1194
  526loPI   GL2 8406   8.226   1.189  10.250  0.1552 -0.2231  0.0963
  526loPI   C1A 8407   8.344   0.835   9.924  0.0936 -0.0889 -0.0841
  526loPI   C2A 8408   8.297   0.953   9.573 -0.0254 -0.1048  0.2032
  526loPI   C3A 8409   8.328   0.921   9.168 -0.0815 -0.1368  0.0166
  526loPI   C4A 8410   8.325   0.919   8.677  0.2030  0.0060 -0.1121
  526loPI   C5A 8411   8.482   0.918   8.256  0.0226 -0.2671 -0.2733
  526loPI   C6A 8412   8.690   0.736   7.842  0.4058  0.1195  0.2368
  526loPI   C1B 8413   8.373   1.361   9.900  0.0543  0.0910 -0.0107
  526loPI   C2B 8414   8.354   1.450   9.495 -0.1431 -0.2319 -0.0187
  526loPI   C3B 8415   8.395   1.513   9.046  0.0904  0.0078 -0.1941
  526loPI   C4B 8416   8.341   1.524   8.611 -0.0304  0.1828 -0.0313
  527loPI    C1 8417   5.488   4.534  10.266 -0.3162  0.0173  0.0657
  527loPI    C2 8418   5.594   4.657  10.631 -0.3459  0.0410  0.0663
  527loPI    C3 8419   5.401   4.310  10.586 -0.1924 -0.0439  0.0569
  527loPI   PO4 8420   5.393   4.743  10.021  0.4363 -0.0510  0.1329
  527loPI   GL1 8421   5.577   4.651   9.690 -0.1474 -0.1022 -0.3433
  527loPI   GL2 8422   5.787   4.508   9.812 -0.2475 -0.1428 -0.3585
  527loPI   C1A 8423   5.714   4.680   9.225 -0.0519 -0.1137  0.2306
  527loPI   C2A 8424   5.718   4.619   8.882  0.1222 -0.1008 -0.2585
  527loPI   C3A 8425   5.821   4.707   8.385  0.4494  0.2019 -0.0708
  527loPI   C4A 8426   5.850   4.615   7.962  0.1319 -0.2188  0.2541
  527loPI   C5A 8427   5.924   4.963   7.611 -0.5725 -0.0574  0.1183
  527loPI   C6A 8428   5.797   4.956   7.213  0.2323  0.4050 -0.3544
  527loPI   C1B 8429   6.070   4.431   9.469  0.0441 -0.2120 -0.0985
  527loPI   C2B 8430   6.122   4.394   9.055 -0.0987 -0.3561  0.2407
  527loPI   C3B 8431   6.125   4.335   8.649 -0.0332  0.0288 -0.0592
  527loPI   C4B 8432   6.228   4.475   8.258 -0.2937 -0.1355  0.1916
  528loPI    C1 8433  15.016  15.681  10.918  0.0813  0.0819 -0.1641
  528loPI    C2 8434  14.929  15.394  11.183 -0.0786  0.1746 -0.1144
  528loPI    C3 8435  15.071  15.746  11.309 -0.1464  0.2158 -0.1526
  528loPI   PO4 8436  14.843  15.679  10.765 -0.2975  0.0900  0.1602
  528loPI   GL1 8437  14.775  15.801  10.418  0.1586 -0.1260  0.3963
  528loPI   GL2 8438  14.899  16.127  10.294  0.0750  0.3080 -0.0314
  528loPI   C1A 8439  14.495  15.817  10.052 -0.0743  0.0003  0.0115
  528loPI   C2A 8440  14.395  15.858   9.572 -0.0498 -0.1819 -0.5240
  528loPI   C3A 8441  14.409  15.976   9.069 -0.2299 -0.0351 -0.0312
  528loPI   C4A 8442  14.391  15.926   8.578  0.0661 -0.1988  0.0206
  528loPI   C5A 8443  14.687  15.878   8.198 -0.1898  0.0189  0.1265
  528loPI   C6A 8444  15.083  16.042   8.037  0.1369 -0.2632  0.1644
  528loPI   C1B 8445  14.860  16.125   9.838  0.0840  0.2424  0.0424
  528loPI   C2B 8446  14.859  16.085   9.392 -0.2183  0.0510  0.2284
  528loPI   C3B 8447  14.847  16.168   8.885 -0.1766 -0.2509 -0.1769
  528loPI   C4B 8448  14.890  16.254   8.518  0.4148  0.1258 -0.1191
  529loPI    C1 8449  17.305  10.733  10.620  0.1810  0.3328  0.0641
  529loPI    C2 8450  17.650  10.708  10.820  0.0717  0.0742  0.2251
  529loPI    C3 8451  17.303  10.647  11.010 -0.0297 -0.2621 -0.0568
  529loPI   PO4 8452  17.503  10.915  10.382 -0.1594 -0.0874 -0.3038
  529loPI   GL1 8453  17.335  11.011  10.060  0.4644  0.1671 -0.0606
  529loPI   GL2 8454  17.304  11.333   9.992  0.0049  0.3320  0.4765
  529loPI   C1A 8455  17.338  10.882   9.603 -0.0472 -0.1609 -0.4478
  529loPI   C2A 8456  17.332  10.814   9.126  0.0546 -0.2156 -0.0109
  529loPI   C3A 8457  17.382  10.830   8.659  0.1488 -0.1745  0.0783
  529loPI   C4A 8458  17.504  10.794   8.333  0.2521  0.0126 -0.0678
  529loPI   C5A 8459  17.339  10.900   7.938  0.0964 -0.2309  0.1166
  529loPI   C6A 8460  17.206  11.252   7.780 -0.2507 -0.2414  0.0161
  529loPI   C1B 8461  17.264  11.436   9.525 -0.0023 -0.1250  0.0759
  529loPI   C2B 8462  17.295  11.307   9.156 -0.1402  0.2776  0.1389
  529loPI   C3B 8463  17.310  11.328   8.732 -0.3144 -0.0868 -0.0574
  529loPI   C4B 8464  17.250  11.264   8.250  0.0048  0.0341 -0.0422
  530loPI    C1 8465   0.587   2.725   9.726  0.2495 -0.0659 -0.0172
  530loPI    C2 8466   0.519   2.648  10.113 -0.0394  0.0546 -0.0417
  530loPI    C3 8467   0.628   2.353   9.866 -0.2638 -0.1053  0.0469
  530loPI   PO4 8468   0.490   2.963   9.663  0.1852  0.2697  0.1412
  530loPI   GL1 8469   0.269   3.149   9.366 -0.0744 -0.2910  0.1924
  530loPI   GL2 8470  -0.001   2.995   9.309  0.3618 -0.0432 -0.0207
  530loPI   C1A 8471   0.340   3.220   9.030  0.0206  0.0192 -0.0732
  530loPI   C2A 8472   0.390   3.158   8.615  0.0386 -0.3042  0.2071
  530loPI   C3A 8473   0.224   3.072   8.199  0.1308 -0.3048  0.1270
  530loPI   C4A 8474   0.345   3.213   7.720 -0.4876 -0.0374  0.3087
  530loPI   C5A 8475   0.394   3.438   7.356 -0.1680  0.1742  0.0229
  530loPI   C6A 8476   0.377   3.412   6.972 -0.0706 -0.0429 -0.3295
  530loPI   C1B 8477  -0.207   2.818   8.986 -0.1381  0.0286 -0.0170
  530loPI   C2B 8478  -0.257   2.822   8.635  0.2189  0.0505 -0.2930
  530loPI   C3B 8479  -0.159   2.751   8.321 -0.0003  0.0682 -0.1032
  530loPI   C4B 8480  -0.114   2.825   7.819  0.1085 -0.1104  0.1282
  531loPI    C1 8481   6.594   2.391  10.980  0.0342 -0.0718  0.3317
  531loPI    C2 8482   6.966   2.417  11.124  0.1514  0.0921  0.0100
  531loPI    C3 8483   6.775   2.065  11.123  0.4097 -0.0504 -0.0742
  531loPI   PO4 8484   6.581   2.483  10.803 -0.5059 -0.1042  0.1732
  531loPI   GL1 8485   6.595   2.352  10.350  0.0192 -0.1082  0.0096
  531loPI   GL2 8486   6.479   2.037  10.183 -0.3176  0.0796  0.1871
  531loPI   C1A 8487   6.838   2.301   9.968 -0.2318 -0.1963 -0.1999
  531loPI   C2A 8488   6.978   2.273   9.604  0.4842 -0.0627 -0.3056
  531loPI   C3A 8489   7.001   2.254   9.108  0.1809 -0.0038  0.1492
  531loPI   C4A 8490   7.049   2.122   8.687 -0.3399 -0.0691  0.0950
  531loPI   C5A 8491   7.049   2.226   8.270  0.2571  0.2038 -0.2234
  531loPI   C6A 8492   6.954   2.420   7.800  0.1664 -0.0982  0.0697
  531loPI   C1B 8493   6.476   2.064   9.722 -0.0561  0.1346 -0.2686
  531loPI   C2B 8494   6.545   2.025   9.316  0.4158 -0.0553  0.3049
  531loPI   C3B 8495   6.618   1.942   8.934  0.1555 -0.2275  0.0563
  531loPI   C4B 8496   6.601   1.979   8.469  0.1064 -0.0314 -0.0682
  532loPI    C1 8497  14.834  17.196  10.762  0.0126  0.1366  0.0430
  532loPI    C2 8498  14.731  17.570  10.666  0.1528  0.0903 -0.3023
  532loPI    C3 8499  15.002  17.504  10.953 -0.0090  0.2452 -0.1116
  532loPI   PO4 8500  14.832  17.076  10.502 -0.1943 -0.0768  0.0019
  532loPI   GL1 8501  14.562  16.883  10.260 -0.1366  0.0084  0.0946
  532loPI   GL2 8502  14.215  16.700  10.350  0.1049  0.1353 -0.0759
  532loPI   C1A 8503  14.444  16.895   9.841  0.0536 -0.3895 -0.2324
  532loPI   C2A 8504  14.460  16.836   9.317 -0.0814  0.2642 -0.0246
  532loPI   C3A 8505  14.510  17.011   8.988 -0.0135  0.1448 -0.0902
  532loPI   C4A 8506  14.473  16.944   8.536 -0.0713 -0.1314  0.2858
  532loPI   C5A 8507  14.405  16.770   8.126 -0.1353 -0.1213 -0.0269
  532loPI   C6A 8508  14.611  16.913   7.840 -0.1409 -0.1833  0.3728
  532loPI   C1B 8509  14.051  16.638   9.789 -0.1294  0.1851  0.0833
  532loPI   C2B 8510  13.977  16.664   9.298  0.2113 -0.2642 -0.0378
  532loPI   C3B 8511  14.067  16.725   8.762  0.3376  0.0706 -0.0681
  532loPI   C4B 8512  13.942  16.666   8.269 -0.0036 -0.0336 -0.1136
  533loPI    C1 8513   0.417   0.482  10.780 -0.1317 -0.1493 -0.1195
  533loPI    C2 8514   0.088   0.326  10.947 -0.0093 -0.2592  0.0222
  533loPI    C3 8515   0.341   0.543  11.168  0.0131 -0.1734 -0.0867
  533loPI   PO4 8516   0.277   0.496  10.464 -0.0008 -0.2125 -0.0833
  533loPI   GL1 8517   0.087   0.278  10.105 -0.3731 -0.0392 -0.0471
  533loPI   GL2 8518   0.112   0.430   9.854 -0.2413  0.0756 -0.0488
  533loPI   C1A 8519  -0.192   0.051   9.805 -0.2231 -0.0742 -0.3074
  533loPI   C2A 8520  -0.332  -0.096   9.387 -0.3128 -0.1702  0.0129
  533loPI   C3A 8521  -0.343  -0.090   8.974 -0.1612  0.0835  0.3526
  533loPI   C4A 8522  -0.323  -0.191   8.566 -0.2247 -0.0516 -0.2390
  533loPI   C5A 8523  -0.303   0.014   8.139 -0.0150  0.3086 -0.1763
  533loPI   C6A 8524  -0.062  -0.199   7.809 -0.3394 -0.0885  0.1034
  533loPI   C1B 8525   0.141   0.269   9.464  0.1102  0.0562  0.0783
  533loPI   C2B 8526   0.133   0.131   9.023  0.0615 -0.1530 -0.0603
  533loPI   C3B 8527   0.132   0.105   8.601  0.0962  0.1715  0.0119
  533loPI   C4B 8528   0.166   0.105   8.195 -0.0570  0.1404  0.1521
  534loPI    C1 8529   0.683  16.972  11.057 -0.0958  0.0684 -0.0438
  534loPI    C2 8530   0.642  16.728  11.371  0.1791  0.0057 -0.0540
  534loPI    C3 8531   0.730  17.114  11.428  0.0357  0.0379 -0.0482
  534loPI   PO4 8532   0.845  16.746  10.851  0.0818  0.1996  0.0258
  534loPI   GL1 8533   1.069  16.779  10.456  0.0607 -0.0206 -0.1179
  534loPI   GL2 8534   1.319  16.610  10.368 -0.0084 -0.0171  0.1110
  534loPI   C1A 8535   0.820  16.667  10.127  0.0635 -0.1879 -0.1336
  534loPI   C2A 8536   0.952  16.536   9.757 -0.1574  0.1269 -0.2859
  534loPI   C3A 8537   0.995  16.618   9.364  0.4230 -0.2854 -0.1129
  534loPI   C4A 8538   1.054  16.498   8.933 -0.1678  0.0130 -0.3061
  534loPI   C5A 8539   1.069  16.453   8.514  0.1508  0.0703  0.1757
  534loPI   C6A 8540   0.858  16.451   8.107 -0.0819  0.2128 -0.1659
  534loPI   C1B 8541   1.372  16.753   9.966 -0.1247 -0.1006 -0.2462
  534loPI   C2B 8542   1.403  16.970   9.580  0.0231  0.0033  0.1464
  534loPI   C3B 8543   1.439  16.738   9.141 -0.1727 -0.0061 -0.0390
  534loPI   C4B 8544   1.468  16.770   8.630 -0.3503  0.2211 -0.2920
  535loPI    C1 8545  10.308  12.151  10.969 -0.1776  0.1683  0.0783
  535loPI    C2 8546  10.578  12.106  11.260  0.1462  0.1755 -0.2134
  535loPI    C3 8547  10.306  12.398  11.283  0.1308  0.1403  0.1057
  535loPI   PO4 8548  10.454  12.189  10.758 -0.2166  0.2466  0.1101
  535loPI   GL1 8549  10.341  11.897  10.425  0.3059 -0.3770  0.0863
  535loPI   GL2 8550  10.579  11.676  10.272 -0.2081 -0.1684 -0.2222
  535loPI   C1A 8551  10.208  12.124  10.129  0.1339 -0.1055  0.2073
  535loPI   C2A 8552  10.219  12.140   9.697  0.1646  0.1129  0.0262
  535loPI   C3A 8553  10.268  12.173   9.289  0.0268 -0.1907 -0.1789
  535loPI   C4A 8554  10.157  12.067   8.910  0.1705 -0.0403 -0.0568
  535loPI   C5A 8555  10.274  12.131   8.510  0.1069 -0.1350 -0.2133
  535loPI   C6A 8556  10.702  12.015   8.240 -0.2426 -0.4030 -0.3127
  535loPI   C1B 8557  10.650  11.872   9.861  0.4950  0.1127  0.0095
  535loPI   C2B 8558  10.639  11.870   9.425  0.3778 -0.1855 -0.2495
  535loPI   C3B 8559  10.685  11.817   9.017  0.2717 -0.3403 -0.0009
  535loPI   C4B 8560  10.626  11.829   8.670  0.0471 -0.0349 -0.2997
  536loPI    C1 8561   5.393  10.370  11.114  0.0441  0.0805 -0.0778
  536loPI    C2 8562   5.132  10.105  11.261  0.1574  0.0631  0.0945
  536loPI    C3 8563   5.434  10.237  11.489  0.2271  0.1772 -0.0620
  536loPI   PO4 8564   5.517  10.331  10.905 -0.1998 -0.0708  0.3707
  536loPI   GL1 8565   5.376  10.271  10.477 -0.2748 -0.0871 -0.0632
  536loPI   GL2 8566   5.586  10.065  10.489 -0.0730  0.2226  0.1795
  536loPI   C1A 8567   5.618  10.614  10.219 -0.1419 -0.2351 -0.1258
  536loPI   C2A 8568   5.584  10.666   9.822 -0.3341 -0.2001 -0.2692
  536loPI   C3A 8569   5.606  10.706   9.421 -0.1295 -0.0113 -0.1539
  536loPI   C4A 8570   5.708  10.766   8.981 -0.0553  0.0944  0.1101
  536loPI   C5A 8571   5.928  11.021   8.629  0.0088  0.5316  0.2657
  536loPI   C6A 8572   6.214  11.390   8.592 -0.0535  0.0465  0.1421
  536loPI   C1B 8573   5.618  10.122  10.069 -0.2112 -0.2732  0.1051
  536loPI   C2B 8574   5.670  10.215   9.588  0.0891 -0.1067  0.3194
  536loPI   C3B 8575   5.592  10.230   9.144  0.2022  0.0466  0.0084
  536loPI   C4B 8576   5.719  10.273   8.718  0.0107 -0.2079  0.1376
  537loPI    C1 8577  10.567   4.681  11.057  0.2718 -0.1747 -0.0529
  537loPI    C2 8578  10.829   4.428  11.223  0.0681 -0.0872  0.4179
  537loPI    C3 8579  10.843   4.817  11.314  0.0375 -0.0138  0.1177
  537loPI   PO4 8580  10.628   4.637  10.789 -0.2368 -0.1273  0.0119
  537loPI   GL1 8581  10.490   4.765  10.447  0.0745  0.1796 -0.2865
  537loPI   GL2 8582  10.289   4.463  10.383 -0.2552 -0.1440  0.3430
  537loPI   C1A 8583  10.629   4.894  10.149 -0.0270 -0.1060  0.0373
  537loPI   C2A 8584  10.733   4.804   9.662  0.2776 -0.1660  0.3363
  537loPI   C3A 8585  10.668   4.717   9.235  0.0004  0.0168  0.0520
  537loPI   C4A 8586  10.710   4.725   8.836  0.1745  0.0420 -0.0817
  537loPI   C5A 8587  10.751   4.715   8.365  0.1064  0.2621 -0.1344
  537loPI   C6A 8588  10.517   5.032   7.999 -0.0885  0.2031 -0.0061
  537loPI   C1B 8589  10.243   4.578   9.971  0.0451  0.1638 -0.1665
  537loPI   C2B 8590  10.249   4.549   9.592 -0.0816 -0.0457 -0.1337
  537loPI   C3B 8591  10.240   4.504   9.141  0.3714  0.0288  0.1811
  537loPI   C4B 8592  10.186   4.548   8.661 -0.1717 -0.0922 -0.0747
  538loPI    C1 8593   2.200   1.496  10.499  0.2401  0.0635 -0.0691
  538loPI    C2 8594   2.324   1.809  10.715 -0.1480  0.1284  0.0681
  538loPI    C3 8595   2.061   1.550  10.870 -0.0003 -0.1433 -0.1257
  538loPI   PO4 8596   2.296   1.529  10.169  0.1072 -0.0204 -0.2866
  538loPI   GL1 8597   2.203   1.346   9.912  0.0379 -0.1714 -0.2752
  538loPI   GL2 8598   1.963   1.315   9.723  0.2981  0.4943 -0.1998
  538loPI   C1A 8599   2.336   1.416   9.425  0.0168 -0.0076  0.0970
  538loPI   C2A 8600   2.322   1.444   9.104  0.1319 -0.2408  0.0492
  538loPI   C3A 8601   2.359   1.499   8.649 -0.0061  0.2349 -0.1504
  538loPI   C4A 8602   2.504   1.405   8.292  0.2292  0.1192  0.2810
  538loPI   C5A 8603   2.449   1.189   7.960  0.0657  0.1365 -0.0078
  538loPI   C6A 8604   2.723   1.117   7.602 -0.1247  0.2518  0.0710
  538loPI   C1B 8605   1.889   1.236   9.303 -0.1986 -0.2520  0.1796
  538loPI   C2B 8606   1.892   1.230   8.819 -0.1062  0.2117  0.0531
  538loPI   C3B 8607   2.048   1.146   8.384  0.0114  0.0203  0.2293
  538loPI   C4B 8608   1.958   1.026   7.933 -0.0825  0.2636 -0.0892
  539loPI    C1 8609  16.151  18.112  10.985  0.0208  0.0282  0.0706
  539loPI    C2 8610  15.988  18.362  11.251 -0.1262 -0.0278  0.0342
  539loPI    C3 8611  16.267  18.100  11.367 -0.2046 -0.0663  0.1380
  539loPI   PO4 8612  15.861  18.120  10.802 -0.1316  0.3483 -0.4127
  539loPI   GL1 8613  15.624  17.948  10.351 -0.3328 -0.1295  0.0975
  539loPI   GL2 8614  15.787  18.014  10.115 -0.0581 -0.1386 -0.2118
  539loPI   C1A 8615  15.400  17.751   9.963 -0.2206  0.2197  0.3248
  539loPI   C2A 8616  15.400  17.882   9.498  0.2767  0.4348 -0.0100
  539loPI   C3A 8617  15.395  17.865   9.031 -0.2080 -0.0879  0.0469
  539loPI   C4A 8618  15.407  17.907   8.643  0.2154 -0.0553  0.0217
  539loPI   C5A 8619  15.362  17.929   8.160 -0.1182 -0.0011 -0.2097
  539loPI   C6A 8620  15.417  17.893   7.642 -0.0612  0.0810 -0.0581
  539loPI   C1B 8621  15.837  18.140   9.651 -0.0405 -0.2481  0.1237
  539loPI   C2B 8622  15.805  18.077   9.314  0.1866  0.3748 -0.0421
  539loPI   C3B 8623  15.885  18.130   8.851 -0.1362  0.1386  0.2067
  539loPI   C4B 8624  15.844  18.173   8.398  0.1841 -0.0093 -0.1192
  540loPI    C1 8625   8.578  16.760  11.292 -0.0910 -0.0453  0.1284
  540loPI    C2 8626   8.289  16.678  11.556 -0.1960  0.0129  0.0323
  540loPI    C3 8627   8.523  16.998  11.609 -0.1735 -0.0130  0.0903
  540loPI   PO4 8628   8.463  16.592  11.067  0.3083 -0.0950 -0.1682
  540loPI   GL1 8629   8.341  16.557  10.576  0.0493 -0.2919 -0.1037
  540loPI   GL2 8630   8.294  16.755  10.581  0.0613  0.0615 -0.0433
  540loPI   C1A 8631   8.684  16.532  10.204 -0.1360 -0.2402  0.0439
  540loPI   C2A 8632   8.536  16.303   9.823 -0.0081 -0.1502 -0.1796
  540loPI   C3A 8633   8.594  16.432   9.467 -0.0698 -0.2186  0.2430
  540loPI   C4A 8634   8.537  16.462   9.008  0.0411  0.2404  0.2415
  540loPI   C5A 8635   8.682  16.496   8.639  0.2412 -0.2118  0.0279
  540loPI   C6A 8636   8.778  16.410   8.181 -0.0482  0.2029  0.1226
  540loPI   C1B 8637   8.233  16.757  10.092 -0.4403 -0.0533 -0.2849
  540loPI   C2B 8638   8.247  16.743   9.682 -0.4124 -0.2337 -0.1959
  540loPI   C3B 8639   8.200  16.735   9.240  0.0876 -0.0200  0.2217
  540loPI   C4B 8640   8.224  16.767   8.809 -0.1320  0.0129 -0.1350
  541loPI    C1 8641   6.470  11.455  11.189 -0.0271  0.0443  0.1366
  541loPI    C2 8642   6.188  11.402  11.468 -0.1049 -0.1029  0.0319
  541loPI    C3 8643   6.495  11.146  11.442 -0.0435 -0.0313  0.0468
  541loPI   PO4 8644   6.379  11.520  10.918  0.1052 -0.0008 -0.0774
  541loPI   GL1 8645   6.432  11.817  10.559 -0.0159  0.1658 -0.4547
  541loPI   GL2 8646   6.679  11.632  10.495  0.1173  0.1443 -0.1184
  541loPI   C1A 8647   6.274  11.928  10.182  0.0534 -0.0643 -0.1171
  541loPI   C2A 8648   6.125  11.982   9.793 -0.0725 -0.3510  0.1154
  541loPI   C3A 8649   6.181  12.102   9.453  0.1478 -0.2143 -0.0743
  541loPI   C4A 8650   6.160  12.037   9.115  0.1525  0.1859  0.3401
  541loPI   C5A 8651   6.061  12.131   8.667  0.4914 -0.1155  0.0671
  541loPI   C6A 8652   5.982  11.835   8.319 -0.1834  0.1757 -0.3581
  541loPI   C1B 8653   6.717  11.789  10.031  0.0341 -0.1020 -0.3111
  541loPI   C2B 8654   6.659  11.811   9.538  0.0374 -0.1290 -0.1845
  541loPI   C3B 8655   6.723  11.707   9.060 -0.0349 -0.1474 -0.0834
  541loPI   C4B 8656   6.532  11.846   8.716  0.0029 -0.0794 -0.1127
  542loPI    C1 8657   1.567   3.819  10.042 -0.2276  0.2518 -0.1572
  542loPI    C2 8658   1.252   3.712  10.263 -0.1151  0.1015 -0.0677
  542loPI    C3 8659   1.412   4.076  10.306 -0.0807  0.0655  0.1149
  542loPI   PO4 8660   1.522   3.651   9.822  0.2217 -0.0117  0.1285
  542loPI   GL1 8661   1.616   3.549   9.407 -0.1644  0.2070 -0.2243
  542loPI   GL2 8662   1.510   3.723   9.178  0.0191  0.3997  0.1835
  542loPI   C1A 8663   1.908   3.475   9.059  0.0459  0.0149  0.2004
  542loPI   C2A 8664   1.932   3.375   8.607  0.0139 -0.0488  0.0586
  542loPI   C3A 8665   1.844   3.329   8.205  0.0020 -0.0845 -0.6006
  542loPI   C4A 8666   1.649   3.079   7.846 -0.0149  0.0258  0.0691
  542loPI   C5A 8667   1.297   3.135   7.543 -0.2214  0.0355 -0.3193
  542loPI   C6A 8668   0.855   3.096   7.582  0.0810  0.0461 -0.0763
  542loPI   C1B 8669   1.574   3.711   8.786  0.0329 -0.1437  0.0443
  542loPI   C2B 8670   1.428   3.604   8.384 -0.2350 -0.0392  0.2945
  542loPI   C3B 8671   1.363   3.666   7.994 -0.1342  0.0773 -0.0695
  542loPI   C4B 8672   1.424   3.581   7.557  0.0607 -0.1149 -0.0061
  543loPI    C1 8673   3.467  13.705  11.179 -0.1935 -0.1868 -0.0025
  543loPI    C2 8674   3.794  13.492  11.267  0.0581  0.0866 -0.2557
  543loPI    C3 8675   3.557  13.625  11.561  0.3590  0.1725 -0.0457
  543loPI   PO4 8676   3.445  13.593  10.925  0.2132 -0.3478  0.1311
  543loPI   GL1 8677   3.651  13.591  10.486  0.0155  0.1932 -0.0908
  543loPI   GL2 8678   3.930  13.333  10.423 -0.1663  0.1464  0.2088
  543loPI   C1A 8679   3.516  13.744  10.049 -0.1476 -0.1511 -0.0803
  543loPI   C2A 8680   3.452  13.753   9.574 -0.0746 -0.1359  0.1362
  543loPI   C3A 8681   3.613  13.718   9.200 -0.0708  0.4813 -0.1726
  543loPI   C4A 8682   3.481  13.784   8.867  0.2261  0.1414 -0.0435
  543loPI   C5A 8683   3.550  13.800   8.396 -0.1934  0.3838 -0.0723
  543loPI   C6A 8684   3.330  14.049   8.137 -0.1344 -0.0970  0.1632
  543loPI   C1B 8685   3.971  13.439   9.963  0.1199 -0.0826  0.4387
  543loPI   C2B 8686   3.936  13.450   9.512  0.0983  0.0361  0.1536
  543loPI   C3B 8687   4.004  13.480   8.980  0.1255 -0.0910 -0.4153
  543loPI   C4B 8688   3.906  13.419   8.600  0.0219 -0.5185  0.0777
  544loPI    C1 8689   4.576   0.583  10.944 -0.0864 -0.0978 -0.0416
  544loPI    C2 8690   4.204   0.435  10.954 -0.1392  0.0359  0.0015
  544loPI    C3 8691   4.404   0.498  11.295 -0.0964  0.0128 -0.0193
  544loPI   PO4 8692   4.551   0.627  10.638 -0.1154 -0.2906  0.2084
  544loPI   GL1 8693   4.515   0.406  10.163 -0.1880 -0.1482  0.1156
  544loPI   GL2 8694   4.650   0.607  10.084  0.3650 -0.3177  0.0652
  544loPI   C1A 8695   4.623   0.126   9.821 -0.0039  0.0395  0.0137
  544loPI   C2A 8696   4.631   0.045   9.375  0.2423 -0.0190 -0.1209
  544loPI   C3A 8697   4.664   0.119   8.934  0.2742 -0.1208 -0.1053
  544loPI   C4A 8698   4.671   0.078   8.473  0.2325 -0.1408 -0.1079
  544loPI   C5A 8699   4.548   0.084   8.110  0.0600 -0.0842  0.0473
  544loPI   C6A 8700   4.859   0.103   7.726  0.2473 -0.0008 -0.0848
  544loPI   C1B 8701   4.728   0.657   9.667  0.1440  0.0110  0.0303
  544loPI   C2B 8702   4.711   0.606   9.184 -0.0917 -0.1060 -0.2156
  544loPI   C3B 8703   4.674   0.606   8.666 -0.0464  0.0598  0.1875
  544loPI   C4B 8704   4.657   0.599   8.198 -0.0626  0.3215 -0.0731
  545loPI    C1 8705   9.306   1.742  10.512  0.1726 -0.0276  0.1834
  545loPI    C2 8706   9.254   1.769  10.908 -0.1141 -0.1321  0.1557
  545loPI    C3 8707   8.937   1.724  10.668  0.0282  0.2571 -0.1137
  545loPI   PO4 8708   9.610   1.661  10.577  0.0199 -0.1377  0.0037
  545loPI   GL1 8709   9.843   1.621  10.158 -0.0803  0.3383 -0.2041
  545loPI   GL2 8710   9.990   1.896  10.210  0.3382  0.0120  0.1423
  545loPI   C1A 8711   9.610   1.646   9.846 -0.0909 -0.3378 -0.1572
  545loPI   C2A 8712   9.582   1.678   9.456 -0.2101  0.1037  0.1529
  545loPI   C3A 8713   9.638   1.724   9.060 -0.0459 -0.1937  0.1823
  545loPI   C4A 8714   9.687   1.705   8.584 -0.0448 -0.0794  0.0026
  545loPI   C5A 8715   9.795   1.569   8.177  0.1621  0.0744 -0.2150
  545loPI   C6A 8716   9.791   1.484   7.813 -0.3283  0.2544 -0.2714
  545loPI   C1B 8717  10.026   1.906   9.772 -0.1406 -0.2588  0.1637
  545loPI   C2B 8718  10.045   1.903   9.295 -0.2410  0.0729 -0.0179
  545loPI   C3B 8719  10.079   1.882   8.814  0.1224 -0.5402  0.0650
  545loPI   C4B 8720  10.078   1.884   8.366 -0.0747 -0.2300  0.1229
  546loPI    C1 8721  17.142   8.978  10.622 -0.0594 -0.0349 -0.1511
  546loPI    C2 8722  17.425   9.247  10.707 -0.2083 -0.0249  0.3465
  546loPI    C3 8723  17.421   8.895  10.896 -0.4374 -0.0870  0.2295
  546loPI   PO4 8724  17.076   9.117  10.298 -0.0259 -0.1413  0.0031
  546loPI   GL1 8725  17.136   9.234   9.868  0.1855  0.2598  0.0265
  546loPI   GL2 8726  17.391   9.094   9.727 -0.1289 -0.3512  0.1909
  546loPI   C1A 8727  16.907   9.011   9.445  0.1913 -0.1198  0.1231
  546loPI   C2A 8728  16.857   9.006   8.964  0.3635  0.1678  0.3225
  546loPI   C3A 8729  16.801   8.979   8.515 -0.1905  0.1308 -0.0905
  546loPI   C4A 8730  16.883   8.922   8.168  0.4042 -0.1101  0.1366
  546loPI   C5A 8731  16.757   9.195   7.767 -0.3148  0.0984  0.1784
  546loPI   C6A 8732  16.711   9.187   7.303 -0.0118  0.2249 -0.0267
  546loPI   C1B 8733  17.343   9.199   9.200  0.1085 -0.3331 -0.4191
  546loPI   C2B 8734  17.327   9.244   8.747  0.2861 -0.4958  0.2267
  546loPI   C3B 8735  17.334   9.184   8.304  0.2159  0.0822 -0.1279
  546loPI   C4B 8736  17.322   9.114   7.891  0.0506 -0.0180  0.0220
  547loPI    C1 8737  14.025   5.019  10.399  0.0503 -0.0386 -0.1781
  547loPI    C2 8738  13.786   5.233  10.637  0.1505  0.2027 -0.2914
  547loPI    C3 8739  13.937   4.887  10.766  0.1173  0.2784 -0.0443
  547loPI   PO4 8740  13.921   5.062  10.070  0.0090 -0.1463 -0.0528
  547loPI   GL1 8741  13.931   4.901   9.663  0.2488  0.0246 -0.0887
  547loPI   GL2 8742  13.622   4.734   9.851 -0.1499 -0.0839  0.2584
  547loPI   C1A 8743  13.851   4.919   9.222  0.0771 -0.2187  0.2870
  547loPI   C2A 8744  13.876   4.802   8.763  0.0664  0.0834 -0.0016
  547loPI   C3A 8745  13.990   4.912   8.405 -0.3637 -0.2251 -0.0123
  547loPI   C4A 8746  13.827   4.881   7.992 -0.3922 -0.0921 -0.0263
  547loPI   C5A 8747  13.754   4.459   7.715 -0.2793  0.1107  0.0137
  547loPI   C6A 8748  13.667   3.956   7.851 -0.0015  0.0444  0.2953
  547loPI   C1B 8749  13.421   4.672   9.482  0.0476  0.0527  0.0767
  547loPI   C2B 8750  13.404   4.540   9.009 -0.0506  0.0998  0.2467
  547loPI   C3B 8751  13.447   4.626   8.590 -0.1737  0.2403 -0.1655
  547loPI   C4B 8752  13.385   4.549   8.054  0.1733  0.2925 -0.0757
  548loPI    C1 8753  14.644  10.038  10.831 -0.1444  0.1179  0.0808
  548loPI    C2 8754  14.627   9.651  10.929 -0.3514  0.1453  0.1572
  548loPI    C3 8755  14.943   9.870  11.038 -0.0294 -0.1002 -0.2546
  548loPI   PO4 8756  14.557  10.073  10.601 -0.0535 -0.0179  0.1570
  548loPI   GL1 8757  14.290  10.303  10.316  0.2425  0.0603 -0.0103
  548loPI   GL2 8758  14.576  10.542  10.342 -0.2020  0.1381 -0.0934
  548loPI   C1A 8759  14.197  10.296   9.935  0.0884  0.0997  0.0464
  548loPI   C2A 8760  14.111  10.137   9.457 -0.3387 -0.0978 -0.3731
  548loPI   C3A 8761  14.152  10.011   9.084 -0.2281  0.1236  0.0173
  548loPI   C4A 8762  14.100  10.060   8.650 -0.2261  0.0791  0.0585
  548loPI   C5A 8763  14.304  10.285   8.308  0.0698 -0.0447 -0.1514
  548loPI   C6A 8764  14.631  10.392   8.003  0.2042  0.0726  0.3034
  548loPI   C1B 8765  14.690  10.518   9.908  0.1707  0.2574 -0.1379
  548loPI   C2B 8766  14.572  10.379   9.524  0.1284 -0.1205  0.2673
  548loPI   C3B 8767  14.510  10.338   9.095 -0.1598  0.0320 -0.0456
  548loPI   C4B 8768  14.608  10.326   8.689  0.2690 -0.0213 -0.1277
  549loPI    C1 8769   4.435   1.682  10.766  0.0441  0.3125  0.1472
  549loPI    C2 8770   4.253   1.390  10.969  0.0612  0.0963 -0.1430
  549loPI    C3 8771   4.353   1.729  11.155  0.0140 -0.0683  0.1906
  549loPI   PO4 8772   4.739   1.629  10.632 -0.1650 -0.0852 -0.0469
  549loPI   GL1 8773   4.721   1.475  10.238 -0.0080  0.0909 -0.1803
  549loPI   GL2 8774   4.705   1.778  10.117  0.1013 -0.0598  0.0477
  549loPI   C1A 8775   4.782   1.163   9.950 -0.0904 -0.0461 -0.0692
  549loPI   C2A 8776   4.726   1.129   9.435 -0.0372  0.2905  0.1461
  549loPI   C3A 8777   4.814   1.121   9.052  0.0221  0.0898 -0.1312
  549loPI   C4A 8778   4.745   1.104   8.651 -0.1499 -0.0902  0.0449
  549loPI   C5A 8779   4.749   1.147   8.184  0.0863  0.0715  0.3425
  549loPI   C6A 8780   4.543   1.158   7.849 -0.3525  0.0450  0.0671
  549loPI   C1B 8781   4.733   1.604   9.679  0.5140 -0.0757  0.0788
  549loPI   C2B 8782   4.806   1.584   9.175  0.0471  0.0883 -0.0888
  549loPI   C3B 8783   4.769   1.658   8.724 -0.0818  0.0437  0.0055
  549loPI   C4B 8784   4.822   1.714   8.253 -0.0556 -0.0948 -0.4665
  550loPI    C1 8785  12.246   5.851  10.396 -0.1729  0.2549 -0.0715
  550loPI    C2 8786  12.017   5.614  10.622  0.1476 -0.3345 -0.3393
  550loPI    C3 8787  12.353   5.770  10.773 -0.0360 -0.0852 -0.1793
  550loPI   PO4 8788  12.143   5.993  10.291 -0.2965 -0.0356  0.0712
  550loPI   GL1 8789  12.163   6.090   9.948  0.2002 -0.2961  0.1121
  550loPI   GL2 8790  12.205   6.428   9.812  0.0885 -0.0110 -0.1396
  550loPI   C1A 8791  12.178   5.988   9.553 -0.0393 -0.1338  0.3540
  550loPI   C2A 8792  12.118   5.963   8.982  0.0523  0.3094 -0.0444
  550loPI   C3A 8793  12.024   5.920   8.566 -0.1594 -0.3254 -0.0713
  550loPI   C4A 8794  12.072   6.008   8.142 -0.1367  0.2830 -0.3609
  550loPI   C5A 8795  11.823   6.137   7.838 -0.0516  0.1966 -0.0031
  550loPI   C6A 8796  11.732   6.596   7.664 -0.0125 -0.0523 -0.1319
  550loPI   C1B 8797  12.200   6.589   9.452  0.1671 -0.4855 -0.2883
  550loPI   C2B 8798  12.214   6.463   9.047 -0.1694 -0.2026 -0.1851
  550loPI   C3B 8799  12.145   6.584   8.578 -0.0399 -0.2159 -0.0367
  550loPI   C4B 8800  12.048   6.622   8.105 -0.0251  0.0784  0.0658
  551loPI    C1 8801   2.632   4.007   9.767  0.1790  0.1721  0.0102
  551loPI    C2 8802   2.510   3.871  10.122  0.2404 -0.0106 -0.0379
  551loPI    C3 8803   2.638   3.615   9.843 -0.0181  0.1113 -0.2731
  551loPI   PO4 8804   2.377   4.123   9.707 -0.1735 -0.0089 -0.1988
  551loPI   GL1 8805   2.258   4.216   9.411  0.0367 -0.1357 -0.1960
  551loPI   GL2 8806   1.895   4.053   9.569 -0.4201  0.0584 -0.0005
  551loPI   C1A 8807   2.362   4.201   8.943  0.0810  0.1471  0.0837
  551loPI   C2A 8808   2.492   4.157   8.588  0.0143  0.0810  0.3953
  551loPI   C3A 8809   2.473   3.960   8.174 -0.2479 -0.2350  0.0163
  551loPI   C4A 8810   2.465   3.966   7.833  0.1856 -0.1873 -0.1177
  551loPI   C5A 8811   2.637   4.034   7.535  0.0173  0.0792  0.2089
  551loPI   C6A 8812   2.858   4.384   7.257 -0.1862 -0.3643 -0.1443
  551loPI   C1B 8813   1.946   3.938   9.126  0.3751 -0.1123 -0.1980
  551loPI   C2B 8814   1.985   3.939   8.676  0.0181  0.0305 -0.0863
  551loPI   C3B 8815   1.981   3.793   8.173  0.3038  0.0576  0.1006
  551loPI   C4B 8816   1.931   3.517   7.770  0.2096 -0.0393 -0.0269
  552loPI    C1 8817   8.431   0.439  11.168 -0.0828 -0.0500  0.0677
  552loPI    C2 8818   8.615   0.586  11.491 -0.0482  0.2236 -0.0738
  552loPI    C3 8819   8.451   0.221  11.504 -0.0515  0.2330  0.2525
  552loPI   PO4 8820   8.593   0.455  10.897 -0.3922 -0.1105  0.2846
  552loPI   GL1 8821   8.837   0.645  10.575  0.1282  0.1249  0.0049
  552loPI   GL2 8822   8.664   0.554  10.352 -0.0464 -0.1400  0.2017
  552loPI   C1A 8823   9.107   0.766  10.176 -0.5215  0.0868 -0.1115
  552loPI   C2A 8824   9.254   0.898   9.813  0.4345  0.1780  0.2856
  552loPI   C3A 8825   9.211   0.864   9.432  0.0235 -0.1320 -0.0744
  552loPI   C4A 8826   9.257   0.813   8.957  0.0323  0.3132 -0.4094
  552loPI   C5A 8827   9.219   0.822   8.553  0.1756 -0.0788 -0.0144
  552loPI   C6A 8828   9.104   0.691   8.119  0.1918 -0.2743  0.2334
  552loPI   C1B 8829   8.739   0.595   9.852 -0.0638  0.0237 -0.3821
  552loPI   C2B 8830   8.762   0.592   9.426  0.2253  0.0934 -0.3027
  552loPI   C3B 8831   8.709   0.723   8.932  0.1113 -0.0168  0.2208
  552loPI   C4B 8832   8.767   0.606   8.521 -0.0343  0.0161 -0.0578
  553loPI    C1 8833  11.761   9.533  10.946 -0.0410 -0.1867 -0.0604
  553loPI    C2 8834  11.810   9.319  11.281  0.0905  0.0390  0.0667
  553loPI    C3 8835  11.953   9.692  11.259  0.3131 -0.0640 -0.3337
  553loPI   PO4 8836  11.644   9.358  10.762 -0.2334 -0.0150 -0.1470
  553loPI   GL1 8837  11.691   9.320  10.382 -0.1636  0.1821 -0.2366
  553loPI   GL2 8838  11.588   9.080  10.207 -0.1495  0.0295 -0.0709
  553loPI   C1A 8839  11.505   9.565  10.012 -0.0316 -0.0809  0.2514
  553loPI   C2A 8840  11.467   9.594   9.676  0.0386  0.1973 -0.0686
  553loPI   C3A 8841  11.510   9.610   9.233  0.3114  0.1279 -0.1846
  553loPI   C4A 8842  11.468   9.594   8.763 -0.0742 -0.1225  0.3820
  553loPI   C5A 8843  11.457   9.804   8.346 -0.1368 -0.1818  0.0174
  553loPI   C6A 8844  11.393   9.894   7.938 -0.3257 -0.1158  0.2127
  553loPI   C1B 8845  11.487   9.049   9.859  0.0885 -0.3417 -0.3957
  553loPI   C2B 8846  11.387   9.123   9.413 -0.0419  0.1048 -0.0654
  553loPI   C3B 8847  11.501   9.081   8.978 -0.0065 -0.0588 -0.0628
  553loPI   C4B 8848  11.404   9.090   8.612  0.0044 -0.2384  0.0723
  554loPI    C1 8849   6.724  11.040  11.018 -0.1610 -0.1272 -0.1243
  554loPI    C2 8850   7.017  11.264  11.174  0.0530 -0.1840 -0.4355
  554loPI    C3 8851   6.955  10.893  11.310  0.0563 -0.1339 -0.2964
  554loPI   PO4 8852   6.695  11.219  10.776 -0.1419 -0.1727  0.0363
  554loPI   GL1 8853   6.620  11.111  10.341 -0.1193  0.0054 -0.0139
  554loPI   GL2 8854   6.642  10.784  10.237  0.0089 -0.2536 -0.0431
  554loPI   C1A 8855   6.664  11.285   9.875 -0.1825  0.4257 -0.0373
  554loPI   C2A 8856   6.611  11.318   9.452 -0.2087 -0.1138 -0.2066
  554loPI   C3A 8857   6.669  11.220   9.038  0.3315 -0.2059  0.3536
  554loPI   C4A 8858   6.668  11.308   8.630  0.1795  0.0465  0.0071
  554loPI   C5A 8859   6.758  11.340   8.260  0.0537  0.1760  0.1470
  554loPI   C6A 8860   6.485  11.380   7.923  0.0795  0.0605  0.1538
  554loPI   C1B 8861   6.569  10.721   9.774 -0.0710 -0.2232 -0.1230
  554loPI   C2B 8862   6.495  10.832   9.328 -0.1623 -0.1708  0.0030
  554loPI   C3B 8863   6.580  10.736   8.936 -0.3701 -0.1167  0.2978
  554loPI   C4B 8864   6.525  10.807   8.506  0.0517 -0.3165 -0.1955
  555loPI    C1 8865  11.626   7.235  10.461 -0.1733 -0.0766  0.0754
  555loPI    C2 8866  11.438   7.549  10.622  0.1577  0.1814 -0.0289
  555loPI    C3 8867  11.746   7.381  10.814  0.0349 -0.0293 -0.0133
  555loPI   PO4 8868  11.599   7.368  10.202 -0.1428 -0.2050 -0.0386
  555loPI   GL1 8869  11.832   7.410   9.913 -0.3203  0.1814  0.0559
  555loPI   GL2 8870  12.036   7.749   9.965  0.0001 -0.0136  0.1018
  555loPI   C1A 8871  11.730   7.332   9.465 -0.1017 -0.3848 -0.0868
  555loPI   C2A 8872  11.778   7.313   8.977  0.3034 -0.0127  0.0080
  555loPI   C3A 8873  11.705   7.333   8.518 -0.0369 -0.0638  0.0821
  555loPI   C4A 8874  11.752   7.311   8.061 -0.2668 -0.1086  0.1628
  555loPI   C5A 8875  11.513   7.589   7.811  0.0092  0.0818  0.2390
  555loPI   C6A 8876  11.330   7.993   7.704 -0.0258 -0.1803  0.1318
  555loPI   C1B 8877  12.187   7.588   9.541  0.2315 -0.0358  0.4071
  555loPI   C2B 8878  12.278   7.534   9.061 -0.0106  0.0797 -0.0207
  555loPI   C3B 8879  12.207   7.503   8.671  0.1477 -0.2256 -0.0285
  555loPI   C4B 8880  12.177   7.597   8.233 -0.0103  0.0129 -0.0243
  556loPI    C1 8881  14.263  17.720  10.667  0.1283 -0.1486  0.0877
  556loPI    C2 8882  14.202  18.032  10.909  0.0566  0.0290 -0.1561
  556loPI    C3 8883  14.441  17.733  11.025  0.1398  0.1816  0.0727
  556loPI   PO4 8884  14.286  17.776  10.398  0.0294 -0.3413  0.0524
  556loPI   GL1 8885  14.142  17.733  10.035 -0.2248 -0.1500  0.1449
  556loPI   GL2 8886  13.938  17.760   9.889 -0.0888  0.0028  0.1274
  556loPI   C1A 8887  14.367  17.579   9.660 -0.3392  0.1651  0.3096
  556loPI   C2A 8888  14.517  17.382   9.327  0.0921  0.1468 -0.2323
  556loPI   C3A 8889  14.576  17.483   8.965  0.0179  0.0748 -0.0529
  556loPI   C4A 8890  14.454  17.591   8.608 -0.1857  0.1945  0.0233
  556loPI   C5A 8891  14.353  17.336   8.248  0.3022  0.1417  0.0011
  556loPI   C6A 8892  14.134  17.294   7.811  0.1504 -0.1216 -0.2085
  556loPI   C1B 8893  13.990  17.674   9.423  0.1710  0.0002  0.2470
  556loPI   C2B 8894  14.003  17.752   8.980  0.1098  0.3327 -0.0973
  556loPI   C3B 8895  14.005  17.845   8.589  0.1492  0.3451 -0.3008
  556loPI   C4B 8896  14.012  17.672   8.209  0.1245  0.1473 -0.0238
  557loPI    C1 8897  17.955  10.212  10.838  0.1646  0.1452 -0.0343
  557loPI    C2 8898  18.268  10.012  10.986  0.0668  0.0203  0.0062
  557loPI    C3 8899  17.909   9.976  11.157 -0.0378 -0.0866 -0.2311
  557loPI   PO4 8900  18.022  10.193  10.527  0.1491  0.1275 -0.1140
  557loPI   GL1 8901  18.278  10.275  10.231  0.1784  0.2651 -0.1325
  557loPI   GL2 8902  18.487  10.405  10.178  0.0652 -0.0036  0.1786
  557loPI   C1A 8903  18.126  10.297   9.811  0.1162  0.1553 -0.2835
  557loPI   C2A 8904  18.158  10.249   9.369 -0.0761 -0.0490  0.1108
  557loPI   C3A 8905  18.203  10.172   8.960 -0.0380  0.2303 -0.1353
  557loPI   C4A 8906  18.309  10.314   8.627 -0.4138 -0.0915  0.0592
  557loPI   C5A 8907  18.256  10.108   8.187  0.3148 -0.3875  0.2945
  557loPI   C6A 8908  17.914   9.949   7.834 -0.1973 -0.0465 -0.3269
  557loPI   C1B 8909  18.545  10.531   9.743 -0.5153  0.1718 -0.1363
  557loPI   C2B 8910  18.672  10.530   9.285  0.0547 -0.0291 -0.2262
  557loPI   C3B 8911  18.683  10.567   8.872 -0.0310 -0.3615  0.0756
  557loPI   C4B 8912  18.673  10.668   8.463  0.1710  0.3538  0.1879
  558loPI    C1 8913  17.754   9.788  10.658 -0.0194  0.1948 -0.0350
  558loPI    C2 8914  17.906   9.525  10.919  0.0144  0.0422 -0.2064
  558loPI    C3 8915  17.550   9.695  10.989  0.1028  0.1362  0.0246
  558loPI   PO4 8916  17.807   9.613  10.414  0.1684 -0.2159 -0.2104
  558loPI   GL1 8917  18.021   9.729  10.012 -0.2828  0.0991 -0.0642
  558loPI   GL2 8918  17.812   9.997  10.096  0.1015 -0.0360 -0.0776
  558loPI   C1A 8919  18.152   9.828   9.613 -0.3440 -0.0495 -0.0093
  558loPI   C2A 8920  18.365   9.755   9.241  0.0295 -0.0780  0.2061
  558loPI   C3A 8921  18.206   9.694   8.837  0.0272  0.1436  0.0679
  558loPI   C4A 8922  18.238   9.659   8.380 -0.0319  0.0986  0.0202
  558loPI   C5A 8923  18.303   9.645   7.941 -0.0667 -0.4059 -0.0174
  558loPI   C6A 8924  18.534   9.325   7.612  0.2069  0.0195 -0.2395
  558loPI   C1B 8925  17.734  10.039   9.725  0.2104  0.0465  0.0730
  558loPI   C2B 8926  17.811   9.952   9.275 -0.1560  0.1282 -0.2378
  558loPI   C3B 8927  17.785   9.975   8.784 -0.0025 -0.1601 -0.0536
  558loPI   C4B 8928  17.767  10.019   8.339  0.0087  0.0852 -0.1193
  559loPI    C1 8929   3.287  10.641  10.951 -0.1545 -0.0778  0.1076
  559loPI    C2 8930   3.511  10.463  11.231 -0.0232  0.1010  0.1181
  559loPI    C3 8931   3.112  10.454  11.258 -0.0153 -0.0775  0.1879
  559loPI   PO4 8932   3.376  10.559  10.724  0.3008 -0.0682  0.3217
  559loPI   GL1 8933   3.576  10.590  10.323 -0.3435 -0.2027 -0.1428
  559loPI   GL2 8934   3.313  10.506  10.114  0.2724  0.0040 -0.2717
  559loPI   C1A 8935   3.801  10.359   9.868 -0.1309  0.1229  0.1605
  559loPI   C2A 8936   3.769  10.383   9.497 -0.1493  0.2667 -0.0352
  559loPI   C3A 8937   3.814  10.372   9.033  0.0977  0.2302 -0.0378
  559loPI   C4A 8938   3.850  10.463   8.557 -0.0067 -0.1363  0.1381
  559loPI   C5A 8939   3.960  10.256   8.136 -0.0399  0.1129 -0.0405
  559loPI   C6A 8940   3.714  10.402   7.892  0.0441  0.3370 -0.3388
  559loPI   C1B 8941   3.373  10.673   9.717 -0.0785  0.1485  0.3031
  559loPI   C2B 8942   3.430  10.650   9.254 -0.0761 -0.3351 -0.0637
  559loPI   C3B 8943   3.452  10.673   8.801  0.1710 -0.0546  0.0593
  559loPI   C4B 8944   3.437  10.728   8.334 -0.0282  0.5150 -0.0421
  560loPI    C1 8945  11.847  13.759  10.856  0.1787 -0.0597  0.0762
  560loPI    C2 8946  11.621  13.890  11.159  0.1506 -0.2789  0.1513
  560loPI    C3 8947  11.719  14.138  10.861 -0.0597 -0.1400  0.1962
  560loPI   PO4 8948  11.754  13.474  10.710  0.2502  0.2188 -0.1153
  560loPI   GL1 8949  11.609  13.408  10.308 -0.2844  0.2112 -0.1518
  560loPI   GL2 8950  11.831  13.104  10.319  0.0854 -0.3437  0.1212
  560loPI   C1A 8951  11.582  13.353   9.822  0.0459  0.0292 -0.3030
  560loPI   C2A 8952  11.614  13.326   9.370 -0.0001 -0.1306 -0.1868
  560loPI   C3A 8953  11.591  13.422   8.958 -0.3085  0.1133 -0.0289
  560loPI   C4A 8954  11.721  13.433   8.510  0.0347 -0.0638 -0.0877
  560loPI   C5A 8955  11.730  13.310   8.096  0.2419 -0.2314 -0.0609
  560loPI   C6A 8956  11.921  13.323   7.663  0.4025 -0.0943  0.0462
  560loPI   C1B 8957  12.016  13.065   9.971 -0.1247 -0.0966  0.3207
  560loPI   C2B 8958  12.022  13.048   9.548 -0.0616  0.0963 -0.0856
  560loPI   C3B 8959  12.023  13.157   9.070  0.0150  0.1169  0.1069
  560loPI   C4B 8960  12.111  13.084   8.652 -0.0511 -0.5183 -0.1351
  561loPI    C1 8961   3.668  15.724  11.177 -0.1974  0.1779  0.0755
  561loPI    C2 8962   4.002  15.514  11.243 -0.2741  0.0893  0.1875
  561loPI    C3 8963   3.946  15.865  11.427 -0.1631  0.1915  0.0298
  561loPI   PO4 8964   3.645  15.710  10.870  0.0671  0.0204  0.0311
  561loPI   GL1 8965   3.824  15.711  10.485 -0.1188 -0.1015 -0.1955
  561loPI   GL2 8966   3.612  15.526  10.427 -0.0493  0.3087 -0.1738
  561loPI   C1A 8967   3.961  15.719  10.172  0.0339  0.1860  0.1695
  561loPI   C2A 8968   3.974  15.714   9.738  0.3010 -0.2021  0.1920
  561loPI   C3A 8969   4.051  15.626   9.278  0.1275 -0.0090 -0.0101
  561loPI   C4A 8970   4.135  15.663   8.876  0.2575 -0.1914  0.1580
  561loPI   C5A 8971   4.142  15.755   8.538  0.3348  0.3755  0.0473
  561loPI   C6A 8972   4.337  15.965   8.252 -0.1116 -0.0938  0.1660
  561loPI   C1B 8973   3.576  15.430   9.930  0.3031  0.1465 -0.0958
  561loPI   C2B 8974   3.611  15.365   9.503 -0.0248 -0.0066  0.1262
  561loPI   C3B 8975   3.640  15.347   9.088 -0.0049  0.2320 -0.1011
  561loPI   C4B 8976   3.693  15.455   8.652  0.0916 -0.0432  0.0723
  562loPI    C1 8977   7.896  10.718  11.001 -0.4181 -0.2180 -0.0655
  562loPI    C2 8978   7.885  10.974  11.308 -0.1590 -0.0313 -0.2081
  562loPI    C3 8979   8.012  10.599  11.365 -0.1237 -0.0010 -0.0849
  562loPI   PO4 8980   7.801  10.818  10.746 -0.0705 -0.2088  0.0030
  562loPI   GL1 8981   7.849  11.170  10.453 -0.0221 -0.2208 -0.0614
  562loPI   GL2 8982   8.054  10.966  10.294 -0.2602 -0.2099 -0.3430
  562loPI   C1A 8983   7.600  11.241  10.118  0.1509  0.0793  0.0175
  562loPI   C2A 8984   7.456  11.267   9.682 -0.0303 -0.0249  0.0004
  562loPI   C3A 8985   7.519  11.288   9.274  0.1800 -0.1640 -0.0985
  562loPI   C4A 8986   7.513  11.154   8.843 -0.1542 -0.1258  0.0319
  562loPI   C5A 8987   7.249  11.205   8.474  0.0467  0.1990 -0.0276
  562loPI   C6A 8988   7.093  11.666   8.440  0.2103  0.0725  0.0419
  562loPI   C1B 8989   7.960  10.921   9.847  0.2620 -0.1142  0.2875
  562loPI   C2B 8990   7.933  10.968   9.390  0.2108  0.1860 -0.1726
  562loPI   C3B 8991   7.947  10.899   8.942  0.2773  0.1332 -0.0622
  562loPI   C4B 8992   7.800  10.737   8.522  0.1367 -0.0868  0.2708
  563loPI    C1 8993  12.644  10.401  10.754 -0.0063  0.0135 -0.0436
  563loPI    C2 8994  12.897  10.683  10.883  0.1317 -0.0517 -0.1688
  563loPI    C3 8995  12.564  10.604  11.089 -0.0714  0.4245 -0.3018
  563loPI   PO4 8996  12.644  10.411  10.535 -0.0171 -0.0000  0.0300
  563loPI   GL1 8997  12.700  10.104  10.258  0.0183 -0.2668  0.0705
  563loPI   GL2 8998  12.596   9.909  10.095  0.2010 -0.3785 -0.1983
  563loPI   C1A 8999  12.790  10.353   9.894 -0.0037  0.1337 -0.0426
  563loPI   C2A 9000  12.856  10.499   9.478 -0.2182  0.1423 -0.1431
  563loPI   C3A 9001  12.824  10.426   9.081  0.1137 -0.0889 -0.2434
  563loPI   C4A 9002  12.813  10.482   8.626 -0.0213 -0.0369 -0.2221
  563loPI   C5A 9003  12.795  10.401   8.187 -0.1509  0.0658  0.3425
  563loPI   C6A 9004  13.043  10.514   7.794 -0.0128 -0.2739  0.2427
  563loPI   C1B 9005  12.742   9.826   9.752 -0.0369  0.2193 -0.1063
  563loPI   C2B 9006  12.789  10.006   9.364 -0.1426  0.0959 -0.3729
  563loPI   C3B 9007  12.767   9.879   8.979  0.1354  0.2391 -0.1120
  563loPI   C4B 9008  12.818   9.942   8.565 -0.0160 -0.2235  0.1236
  564loPI    C1 9009   2.591  17.097  10.693  0.0567 -0.1226 -0.0191
  564loPI    C2 9010   2.409  17.202  11.034 -0.1355 -0.1545 -0.1107
  564loPI    C3 9011   2.788  17.074  11.041  0.0242  0.3058  0.0331
  564loPI   PO4 9012   2.474  16.962  10.579 -0.2389  0.1493  0.3155
  564loPI   GL1 9013   2.262  16.637  10.456  0.1160  0.0093  0.2108
  564loPI   GL2 9014   2.025  16.689  10.363 -0.3700  0.0164 -0.1926
  564loPI   C1A 9015   2.314  16.355  10.182 -0.0650  0.2708  0.0781
  564loPI   C2A 9016   2.361  16.185   9.743 -0.0328 -0.2408  0.0479
  564loPI   C3A 9017   2.328  16.226   9.293  0.0249  0.0375 -0.0691
  564loPI   C4A 9018   2.318  16.140   8.904 -0.1612 -0.1286 -0.0277
  564loPI   C5A 9019   2.214  16.058   8.503 -0.0371 -0.1729 -0.0741
  564loPI   C6A 9020   1.873  16.095   8.229  0.0273 -0.0850  0.0593
  564loPI   C1B 9021   2.267  16.726   9.924  0.1036 -0.0772  0.0321
  564loPI   C2B 9022   2.347  16.778   9.453 -0.1314  0.0108 -0.0911
  564loPI   C3B 9023   2.390  16.733   9.128 -0.1944 -0.3341  0.1431
  564loPI   C4B 9024   2.336  16.615   8.784  0.1309 -0.1782  0.0511
  565loPI    C1 9025  11.212  16.576  10.902 -0.4454 -0.0003 -0.1184
  565loPI    C2 9026  11.149  16.957  11.005  0.1463  0.1641 -0.3260
  565loPI    C3 9027  11.259  16.691  11.282 -0.1428  0.1679 -0.2039
  565loPI   PO4 9028  11.016  16.615  10.699 -0.0768 -0.0380  0.1389
  565loPI   GL1 9029  10.859  16.715  10.295  0.0779 -0.0865 -0.1690
  565loPI   GL2 9030  10.855  17.043  10.301  0.1989  0.0778 -0.1659
  565loPI   C1A 9031  10.853  16.525   9.963 -0.1181 -0.1018 -0.0977
  565loPI   C2A 9032  10.828  16.530   9.526  0.0063 -0.2497  0.1340
  565loPI   C3A 9033  10.845  16.579   9.172 -0.0633 -0.3243  0.0223
  565loPI   C4A 9034  10.994  16.678   8.727  0.2084  0.0537 -0.0631
  565loPI   C5A 9035  10.968  16.301   8.490  0.0121 -0.3375 -0.1412
  565loPI   C6A 9036  11.200  16.006   8.183  0.0962 -0.2099 -0.1566
  565loPI   C1B 9037  10.897  17.039   9.855  0.0975  0.0953 -0.2168
  565loPI   C2B 9038  10.834  17.113   9.356 -0.0293 -0.0216 -0.2828
  565loPI   C3B 9039  10.981  17.191   8.937  0.0394  0.1931  0.0607
  565loPI   C4B 9040  10.879  17.216   8.430 -0.0612 -0.1547  0.2435
  566loPI    C1 9041  11.133   0.993  10.947  0.1388  0.0210 -0.0305
  566loPI    C2 9042  11.140   0.600  11.020 -0.0465  0.0044 -0.0974
  566loPI    C3 9043  10.930   0.843  11.258  0.3726  0.1139  0.1699
  566loPI   PO4 9044  11.011   1.037  10.725  0.0577  0.2877  0.0604
  566loPI   GL1 9045  10.882   0.826  10.351 -0.1980 -0.0339 -0.0309
  566loPI   GL2 9046  11.000   0.652  10.146  0.2161  0.0685  0.0648
  566loPI   C1A 9047  10.620   0.980   9.954 -0.6142 -0.0383 -0.1146
  566loPI   C2A 9048  10.558   0.976   9.577  0.1431  0.2442  0.2117
  566loPI   C3A 9049  10.568   1.020   9.130  0.0268  0.2013  0.0743
  566loPI   C4A 9050  10.522   1.032   8.680 -0.0637 -0.0018 -0.2515
  566loPI   C5A 9051  10.382   1.070   8.330  0.1062 -0.2197 -0.0361
  566loPI   C6A 9052  10.641   1.020   7.954  0.0464  0.2724 -0.1871
  566loPI   C1B 9053  10.993   0.681   9.733 -0.6042 -0.0897 -0.0024
  566loPI   C2B 9054  11.026   0.836   9.323  0.0564 -0.1027 -0.0042
  566loPI   C3B 9055  10.921   0.796   8.866 -0.0822  0.0688 -0.1767
  566loPI   C4B 9056  10.937   0.836   8.328  0.0499 -0.0086 -0.0423
  567loPI    C1 9057   7.511  11.748  11.051 -0.1400  0.2054  0.0942
  567loPI    C2 9058   7.733  12.080  11.062  0.0424  0.0847  0.0931
  567loPI    C3 9059   7.592  11.923  11.401  0.1006  0.0678  0.1096
  567loPI   PO4 9060   7.343  11.819  10.816 -0.2499  0.5410  0.0906
  567loPI   GL1 9061   7.408  11.529  10.495  0.2609  0.0852 -0.0003
  567loPI   GL2 9062   7.117  11.393  10.655 -0.0268 -0.1517  0.0091
  567loPI   C1A 9063   7.481  11.681  10.068  0.2544  0.0329 -0.0558
  567loPI   C2A 9064   7.607  11.723   9.681  0.1370  0.1556  0.1415
  567loPI   C3A 9065   7.521  11.816   9.227  0.1963  0.1669  0.1926
  567loPI   C4A 9066   7.451  11.753   8.773 -0.0739  0.1312 -0.2663
  567loPI   C5A 9067   7.674  11.893   8.437 -0.0095 -0.1617  0.1659
  567loPI   C6A 9068   7.728  12.053   8.009  0.1226  0.1625 -0.1005
  567loPI   C1B 9069   7.030  11.383  10.168 -0.2168  0.1264 -0.3177
  567loPI   C2B 9070   7.045  11.568   9.709 -0.4185 -0.2763  0.0753
  567loPI   C3B 9071   7.096  11.499   9.312 -0.0406 -0.3720 -0.0706
  567loPI   C4B 9072   7.131  11.457   8.934 -0.2263  0.1568  0.2041
  568loPI    C1 9073  11.915   2.811  10.332  0.0309 -0.1922  0.0135
  568loPI    C2 9074  12.213   2.939  10.566 -0.0308 -0.2072  0.1004
  568loPI    C3 9075  11.902   2.745  10.726 -0.1762 -0.0301  0.0352
  568loPI   PO4 9076  12.028   2.690  10.167  0.0796 -0.0753  0.0307
  568loPI   GL1 9077  11.897   2.697   9.791 -0.4732  0.1802 -0.3345
  568loPI   GL2 9078  11.623   2.566   9.824  0.2898  0.0446  0.2650
  568loPI   C1A 9079  12.084   2.874   9.373  0.1271  0.1414  0.2195
  568loPI   C2A 9080  12.033   2.853   8.944  0.1256 -0.1850  0.4080
  568loPI   C3A 9081  12.032   2.916   8.489 -0.0143 -0.1540  0.0686
  568loPI   C4A 9082  12.064   2.963   8.073 -0.2532 -0.1360  0.1975
  568loPI   C5A 9083  11.921   3.257   7.803 -0.1497 -0.0117  0.1204
  568loPI   C6A 9084  11.906   3.611   7.681  0.1467 -0.0358 -0.0157
  568loPI   C1B 9085  11.573   2.597   9.358  0.1785 -0.0217 -0.2448
  568loPI   C2B 9086  11.507   2.627   8.954 -0.1142  0.2104 -0.1812
  568loPI   C3B 9087  11.496   2.665   8.531 -0.0810 -0.0329 -0.1158
  568loPI   C4B 9088  11.665   2.637   8.153 -0.0688  0.0065 -0.0708
  569loPI    C1 9089   1.333  11.068  10.718 -0.3767  0.3085 -0.0885
  569loPI    C2 9090   1.581  11.275  10.954 -0.1244 -0.0119 -0.0648
  569loPI    C3 9091   1.504  10.891  11.034 -0.4184  0.0097 -0.2298
  569loPI   PO4 9092   1.263  11.169  10.583  0.0950  0.1245 -0.0110
  569loPI   GL1 9093   1.202  11.189  10.193  0.2062 -0.1691 -0.0819
  569loPI   GL2 9094   1.256  11.451  10.153 -0.1357  0.3936 -0.0996
  569loPI   C1A 9095   1.068  11.040   9.693  0.4016 -0.3020 -0.0238
  569loPI   C2A 9096   1.130  11.086   9.244 -0.0802 -0.0026  0.2651
  569loPI   C3A 9097   1.038  11.162   8.885 -0.1117  0.1078  0.0909
  569loPI   C4A 9098   1.184  11.081   8.507  0.5373 -0.2037  0.0095
  569loPI   C5A 9099   1.235  10.908   8.197 -0.1245 -0.0087  0.0925
  569loPI   C6A 9100   1.288  10.718   7.844 -0.4036  0.2232 -0.3479
  569loPI   C1B 9101   1.167  11.565   9.721  0.1522  0.0395 -0.0203
  569loPI   C2B 9102   1.075  11.630   9.315  0.0432 -0.0812 -0.2971
  569loPI   C3B 9103   1.199  11.655   8.891 -0.1768  0.0606 -0.1258
  569loPI   C4B 9104   1.023  11.637   8.447  0.1610  0.1463 -0.0868
  570loPI    C1 9105   6.039   8.686  11.014 -0.0624 -0.3325  0.3991
  570loPI    C2 9106   6.395   8.562  11.146 -0.0179 -0.3499  0.2635
  570loPI    C3 9107   6.075   8.535  11.383  0.1038 -0.1655  0.4525
  570loPI   PO4 9108   6.002   8.585  10.749 -0.0446  0.0364 -0.0622
  570loPI   GL1 9109   5.966   8.746  10.359 -0.0301 -0.0303 -0.4761
  570loPI   GL2 9110   5.631   8.638  10.367  0.1766 -0.2554  0.3787
  570loPI   C1A 9111   6.003   8.881   9.902  0.0700  0.0603  0.0797
  570loPI   C2A 9112   6.075   8.925   9.462  0.3054  0.0326 -0.2761
  570loPI   C3A 9113   5.958   8.930   9.108 -0.0942 -0.0365  0.0114
  570loPI   C4A 9114   5.977   8.848   8.699  0.0175  0.1055  0.1444
  570loPI   C5A 9115   5.883   9.025   8.348 -0.0703 -0.1282 -0.1711
  570loPI   C6A 9116   5.869   9.469   8.263 -0.0795  0.0982  0.1551
  570loPI   C1B 9117   5.533   8.612  10.064 -0.0784  0.0465  0.0071
  570loPI   C2B 9118   5.518   8.730   9.651 -0.0859 -0.1177 -0.1123
  570loPI   C3B 9119   5.501   8.717   9.287  0.0100  0.0506  0.3312
  570loPI   C4B 9120   5.507   8.703   8.834 -0.1773  0.0458  0.0716
  571loPI    C1 9121  16.919  16.928  11.224  0.1318 -0.0975  0.0125
  571loPI    C2 9122  16.578  16.719  11.236 -0.0156  0.1421  0.0641
  571loPI    C3 9123  16.771  16.807  11.575 -0.0100  0.1795  0.0512
  571loPI   PO4 9124  17.043  16.819  11.026 -0.3464 -0.0582  0.2514
  571loPI   GL1 9125  16.916  16.859  10.621  0.3902 -0.0572 -0.2686
  571loPI   GL2 9126  17.020  17.002  10.410 -0.0682 -0.1987 -0.3068
  571loPI   C1A 9127  16.729  16.693  10.238 -0.0920 -0.1303 -0.2066
  571loPI   C2A 9128  16.680  16.624   9.816  0.2281 -0.1910  0.0800
  571loPI   C3A 9129  16.642  16.563   9.470 -0.2728  0.2878 -0.0618
  571loPI   C4A 9130  16.654  16.557   8.932 -0.2705  0.0985  0.0675
  571loPI   C5A 9131  16.721  16.643   8.511 -0.2805 -0.1082 -0.3350
  571loPI   C6A 9132  16.796  16.955   8.217  0.1418  0.2514 -0.0818
  571loPI   C1B 9133  17.132  16.922  10.006  0.0080  0.0959 -0.0761
  571loPI   C2B 9134  17.054  16.783   9.526 -0.2083  0.2436  0.0590
  571loPI   C3B 9135  17.111  16.763   9.101 -0.0666 -0.1395 -0.0912
  571loPI   C4B 9136  17.125  16.845   8.666 -0.1262 -0.0080  0.2745
  572loPI    C1 9137  15.070   4.621  10.041 -0.0680 -0.1169  0.0607
  572loPI    C2 9138  14.708   4.665  10.206 -0.0289 -0.3986  0.2273
  572loPI    C3 9139  15.034   4.665  10.437  0.0776 -0.1705  0.0802
  572loPI   PO4 9140  15.065   4.418   9.815 -0.1611  0.3196 -0.1628
  572loPI   GL1 9141  15.117   4.447   9.364 -0.1131  0.2315  0.3688
  572loPI   GL2 9142  14.731   4.316   9.432  0.2555 -0.0043 -0.0466
  572loPI   C1A 9143  15.289   4.421   9.007  0.1918 -0.2125 -0.2229
  572loPI   C2A 9144  15.303   4.452   8.778 -0.1430 -0.2318  0.1850
  572loPI   C3A 9145  15.279   4.480   8.309 -0.2778 -0.0626 -0.0152
  572loPI   C4A 9146  15.150   4.441   7.929 -0.2141  0.1488 -0.0696
  572loPI   C5A 9147  15.230   4.306   7.487 -0.0990 -0.0789 -0.0966
  572loPI   C6A 9148  15.454   4.067   7.209 -0.2161  0.0600 -0.0805
  572loPI   C1B 9149  14.779   4.297   8.978 -0.0893 -0.2013  0.3356
  572loPI   C2B 9150  14.853   4.245   8.566  0.2392  0.2183  0.1485
  572loPI   C3B 9151  14.762   4.223   8.193 -0.0258 -0.0716  0.0286
  572loPI   C4B 9152  14.845   4.065   7.837  0.0000  0.2611  0.3559
  573loPI    C1 9153   2.755   6.397  10.359  0.0502  0.1230  0.2042
  573loPI    C2 9154   2.737   6.007  10.446  0.1738  0.0918  0.0928
  573loPI    C3 9155   3.076   6.210  10.509  0.1964  0.1178 -0.1082
  573loPI   PO4 9156   2.752   6.431  10.087 -0.2739  0.0558 -0.2281
  573loPI   GL1 9157   2.819   6.669   9.801  0.0210  0.0834 -0.0156
  573loPI   GL2 9158   2.571   6.757   9.561  0.2024 -0.3995  0.3535
  573loPI   C1A 9159   2.926   7.066   9.473 -0.1764 -0.0636  0.1357
  573loPI   C2A 9160   2.960   7.038   8.992 -0.0643  0.0072  0.1835
  573loPI   C3A 9161   2.896   7.085   8.559 -0.1170  0.1921 -0.0894
  573loPI   C4A 9162   3.142   6.964   8.199  0.0724 -0.1550 -0.1916
  573loPI   C5A 9163   3.237   7.106   7.821  0.2126 -0.2968 -0.0448
  573loPI   C6A 9164   3.433   7.401   7.596  0.0694  0.1504 -0.1720
  573loPI   C1B 9165   2.481   6.903   9.252  0.2946 -0.1864  0.1389
  573loPI   C2B 9166   2.472   6.920   8.829  0.2469 -0.1158  0.1379
  573loPI   C3B 9167   2.489   6.885   8.476 -0.2583  0.0910  0.0345
  573loPI   C4B 9168   2.625   6.754   8.194 -0.0988 -0.0624 -0.0175
  574loPI    C1 9169  10.046   4.815  10.742 -0.0745 -0.0051 -0.0100
  574loPI    C2 9170   9.722   4.836  10.976 -0.0415 -0.0374  0.0389
  574loPI    C3 9171  10.062   4.681  11.119 -0.0192 -0.0513 -0.0286
  574loPI   PO4 9172   9.949   4.850  10.509  0.1786 -0.2303 -0.0929
  574loPI   GL1 9173   9.780   4.587  10.168  0.0863 -0.0702  0.0758
  574loPI   GL2 9174   9.938   4.907  10.037 -0.1375  0.1568 -0.0643
  574loPI   C1A 9175   9.789   4.273   9.876 -0.0005  0.2691 -0.4055
  574loPI   C2A 9176   9.806   4.314   9.389 -0.0009  0.0027  0.2301
  574loPI   C3A 9177   9.748   4.293   9.029 -0.2814  0.2816  0.1064
  574loPI   C4A 9178   9.775   4.250   8.526 -0.1794 -0.1493  0.2193
  574loPI   C5A 9179  10.023   4.345   8.264  0.2183  0.1918  0.2431
  574loPI   C6A 9180  10.302   4.598   8.102  0.0514 -0.0821  0.0779
  574loPI   C1B 9181   9.818   4.824   9.596 -0.0009  0.2067  0.1863
  574loPI   C2B 9182   9.866   4.798   9.186 -0.0063 -0.1573  0.2754
  574loPI   C3B 9183   9.813   4.921   8.763 -0.0288  0.0230  0.1878
  574loPI   C4B 9184   9.865   4.814   8.304 -0.2787  0.0109  0.4824
  575loPI    C1 9185  14.019  11.131  10.846  0.1993 -0.1780  0.1316
  575loPI    C2 9186  14.089  11.447  11.082  0.0278 -0.0910  0.0680
  575loPI    C3 9187  14.240  11.088  11.177  0.2428  0.0140  0.1286
  575loPI   PO4 9188  13.816  11.235  10.695 -0.1798 -0.3649 -0.1391
  575loPI   GL1 9189  13.832  11.348  10.246 -0.2617 -0.3809  0.0210
  575loPI   GL2 9190  14.166  11.181  10.339  0.0086  0.2042  0.2379
  575loPI   C1A 9191  13.835  11.509   9.796  0.2582  0.0908 -0.1281
  575loPI   C2A 9192  13.727  11.479   9.335  0.0446 -0.1490  0.0417
  575loPI   C3A 9193  13.715  11.442   8.895 -0.0712 -0.2920  0.1024
  575loPI   C4A 9194  13.750  11.640   8.446  0.0095 -0.0705  0.0056
  575loPI   C5A 9195  13.976  11.845   8.295  0.2963 -0.2197 -0.1041
  575loPI   C6A 9196  14.434  11.829   8.217  0.1867  0.3256  0.4204
  575loPI   C1B 9197  14.276  11.240   9.855 -0.1142  0.1877  0.4714
  575loPI   C2B 9198  14.185  11.205   9.362 -0.0663  0.0002  0.0018
  575loPI   C3B 9199  14.125  11.155   8.927  0.0376  0.1734  0.0557
  575loPI   C4B 9200  14.143  11.228   8.450 -0.2848  0.0366 -0.0107
  576loPI    C1 9201  15.456   8.238  10.145  0.0367  0.0175 -0.0482
  576loPI    C2 9202  15.277   7.919  10.308  0.1460 -0.1463 -0.2447
  576loPI    C3 9203  15.518   8.148  10.530  0.2690 -0.3494 -0.1664
  576loPI   PO4 9204  15.238   8.392   9.991  0.1922 -0.2589  0.0128
  576loPI   GL1 9205  14.944   8.352   9.773 -0.1752 -0.2202  0.1386
  576loPI   GL2 9206  14.675   8.190   9.620  0.4273 -0.2432 -0.3195
  576loPI   C1A 9207  14.994   8.511   9.323 -0.1386 -0.1936  0.1840
  576loPI   C2A 9208  14.974   8.537   8.842  0.0138 -0.0526 -0.1356
  576loPI   C3A 9209  15.025   8.440   8.417  0.1399  0.0617  0.3330
  576loPI   C4A 9210  14.920   8.559   8.021  0.0000  0.2230 -0.0126
  576loPI   C5A 9211  14.789   8.433   7.570 -0.1000  0.0103 -0.2230
  576loPI   C6A 9212  15.050   8.126   7.324 -0.4816  0.0560  0.1131
  576loPI   C1B 9213  14.591   8.199   9.091  0.2971  0.0354  0.1452
  576loPI   C2B 9214  14.570   8.174   8.629  0.1328 -0.1509 -0.0311
  576loPI   C3B 9215  14.546   8.307   8.179  0.0971 -0.1611  0.2945
  576loPI   C4B 9216  14.388   8.123   7.694 -0.0593 -0.0366  0.0623
  577loPI    C1 9217  17.264   9.966  10.185  0.0721 -0.1732 -0.2948
  577loPI    C2 9218  17.152   9.583  10.208 -0.0068 -0.1434 -0.1691
  577loPI    C3 9219  17.280   9.773  10.535  0.2298 -0.1210 -0.2728
  577loPI   PO4 9220  17.139  10.079  10.103 -0.1396  0.2681 -0.1228
  577loPI   GL1 9221  16.975  10.088   9.694  0.0944 -0.0194 -0.0615
  577loPI   GL2 9222  16.844  10.323   9.778 -0.0860  0.0447  0.2577
  577loPI   C1A 9223  16.810  10.063   9.302 -0.1969 -0.1173  0.5801
  577loPI   C2A 9224  16.800   9.961   8.842  0.0830 -0.1954 -0.0340
  577loPI   C3A 9225  16.937  10.005   8.489 -0.0300  0.0170 -0.1544
  577loPI   C4A 9226  16.822  10.060   8.140 -0.0784 -0.2332 -0.2638
  577loPI   C5A 9227  16.564   9.705   7.815 -0.1104 -0.0527  0.4083
  577loPI   C6A 9228  16.103   9.797   7.705 -0.0275 -0.0230  0.2662
  577loPI   C1B 9229  16.885  10.617   9.423 -0.1733 -0.0268 -0.2814
  577loPI   C2B 9230  16.888  10.561   9.036 -0.0410  0.1630  0.0184
  577loPI   C3B 9231  16.940  10.544   8.644 -0.0105  0.1754 -0.0057
  577loPI   C4B 9232  17.056  10.551   8.240 -0.0183  0.0979  0.1428
  578loPI    C1 9233   9.252   4.808  11.169  0.1220  0.0134 -0.0325
  578loPI    C2 9234   8.938   4.566  11.223  0.0175  0.1386 -0.0743
  578loPI    C3 9235   9.256   4.538  11.464 -0.0717  0.0862  0.0385
  578loPI   PO4 9236   9.125   4.896  10.913 -0.0656  0.3286  0.0695
  578loPI   GL1 9237   9.082   5.026  10.363  0.4811 -0.1493 -0.1669
  578loPI   GL2 9238   9.106   5.341  10.204 -0.3455 -0.0824 -0.1282
  578loPI   C1A 9239   8.930   4.902   9.947  0.3084  0.0830  0.1851
  578loPI   C2A 9240   8.936   4.914   9.493 -0.2874 -0.0772  0.3452
  578loPI   C3A 9241   8.932   4.803   9.106 -0.2209 -0.0834  0.0958
  578loPI   C4A 9242   9.015   4.849   8.667 -0.2289  0.0469  0.0346
  578loPI   C5A 9243   8.945   4.887   8.163 -0.1557 -0.0299  0.2127
  578loPI   C6A 9244   9.289   4.853   7.808 -0.1389 -0.0514  0.2164
  578loPI   C1B 9245   8.980   5.364   9.850  0.1868 -0.1353 -0.1337
  578loPI   C2B 9246   8.942   5.413   9.335 -0.2997 -0.1616 -0.3397
  578loPI   C3B 9247   9.065   5.359   8.930 -0.2307 -0.4839  0.2739
  578loPI   C4B 9248   8.986   5.369   8.419 -0.1680  0.0728 -0.0799
  579loPI    C1 9249   7.677   3.326  10.740 -0.0917 -0.1485 -0.2595
  579loPI    C2 9250   7.979   3.124  10.907  0.0079 -0.0150 -0.2761
  579loPI    C3 9251   7.600   3.025  10.991  0.0558  0.1239  0.1207
  579loPI   PO4 9252   7.739   3.425  10.571 -0.0387 -0.1072 -0.0079
  579loPI   GL1 9253   7.858   3.476  10.185  0.0637 -0.0292  0.1781
  579loPI   GL2 9254   7.987   3.637  10.124 -0.2078 -0.0700 -0.2509
  579loPI   C1A 9255   7.997   3.296   9.760  0.0556  0.2029 -0.2486
  579loPI   C2A 9256   7.821   3.349   9.275  0.2304 -0.1709  0.1101
  579loPI   C3A 9257   7.865   3.276   8.818 -0.0320  0.0533 -0.1762
  579loPI   C4A 9258   7.887   3.422   8.465 -0.2410  0.1953  0.0252
  579loPI   C5A 9259   7.860   3.220   8.024 -0.1016 -0.3045  0.1824
  579loPI   C6A 9260   7.712   2.900   7.927 -0.3125  0.0533  0.0594
  579loPI   C1B 9261   7.633   3.649   9.770 -0.2413 -0.4676  0.0010
  579loPI   C2B 9262   7.372   3.640   9.417 -0.1056 -0.2848  0.1206
  579loPI   C3B 9263   7.440   3.673   9.061 -0.0776 -0.1607 -0.2223
  579loPI   C4B 9264   7.488   3.604   8.657  0.1720 -0.2652 -0.0727
  580loPI    C1 9265   8.058   8.675  10.817  0.1339 -0.0498 -0.2505
  580loPI    C2 9266   8.060   8.777  11.204 -0.0743 -0.3319 -0.1715
  580loPI    C3 9267   8.268   8.459  11.080  0.0010 -0.2356 -0.2944
  580loPI   PO4 9268   8.049   8.888  10.689  0.2900 -0.1522  0.0970
  580loPI   GL1 9269   8.263   9.083  10.403  0.0975 -0.2884  0.0157
  580loPI   GL2 9270   8.085   9.384  10.568  0.1323 -0.0110  0.2109
  580loPI   C1A 9271   8.314   9.108   9.903  0.1157  0.1815  0.0921
  580loPI   C2A 9272   8.229   9.017   9.568 -0.1636 -0.0099  0.0492
  580loPI   C3A 9273   8.243   9.043   9.130 -0.1569 -0.0755 -0.3578
  580loPI   C4A 9274   8.235   9.087   8.727  0.0515  0.1591  0.1356
  580loPI   C5A 9275   8.241   8.911   8.263 -0.0201 -0.2402 -0.3452
  580loPI   C6A 9276   7.833   8.838   8.054  0.5955  0.2932 -0.1509
  580loPI   C1B 9277   8.304   9.524  10.168  0.0561 -0.0922 -0.0082
  580loPI   C2B 9278   8.272   9.603   9.749  0.1670 -0.3544  0.0023
  580loPI   C3B 9279   8.239   9.585   9.327  0.1070 -0.0313 -0.2047
  580loPI   C4B 9280   8.260   9.570   8.910 -0.1286 -0.0293  0.0053
  581loPI    C1 9281  13.323   1.215  10.200 -0.0906 -0.1187 -0.0577
  581loPI    C2 9282  13.379   0.953  10.497 -0.0351  0.0384  0.0721
  581loPI    C3 9283  13.228   1.315  10.576 -0.0698  0.0620 -0.0995
  581loPI   PO4 9284  13.287   1.151  10.026  0.0305  0.0009 -0.3717
  581loPI   GL1 9285  13.612   1.170   9.756 -0.3116 -0.1132 -0.2138
  581loPI   GL2 9286  13.662   1.479   9.884  0.2107  0.0948  0.4349
  581loPI   C1A 9287  13.642   1.105   9.311 -0.0734 -0.0746  0.0736
  581loPI   C2A 9288  13.653   1.161   8.994 -0.0898 -0.4159  0.1715
  581loPI   C3A 9289  13.679   1.165   8.499 -0.1579  0.1806  0.0711
  581loPI   C4A 9290  13.584   1.061   8.052  0.1945 -0.0425  0.2207
  581loPI   C5A 9291  13.381   1.141   7.663  0.2007  0.0093  0.1802
  581loPI   C6A 9292  13.342   1.364   7.280  0.2728  0.2005 -0.3226
  581loPI   C1B 9293  13.641   1.727   9.529 -0.1285 -0.3276  0.2294
  581loPI   C2B 9294  13.738   1.673   9.044 -0.1498  0.2001  0.0602
  581loPI   C3B 9295  13.735   1.732   8.565  0.0754  0.0133  0.0350
  581loPI   C4B 9296  13.727   1.684   8.276  0.1820  0.0707 -0.2029
  582loPI    C1 9297  14.388  15.472  11.045  0.0980  0.1517 -0.0935
  582loPI    C2 9298  14.395  15.264  11.386  0.1556  0.1008 -0.1255
  582loPI    C3 9299  14.051  15.313  11.189  0.1614 -0.0608 -0.1768
  582loPI   PO4 9300  14.524  15.332  10.888  0.5085  0.1205  0.0255
  582loPI   GL1 9301  14.667  15.325  10.421 -0.1058 -0.1693  0.1750
  582loPI   GL2 9302  14.395  15.367  10.271 -0.2131  0.0329 -0.1827
  582loPI   C1A 9303  14.867  15.500  10.055 -0.1606  0.2824  0.0570
  582loPI   C2A 9304  14.800  15.598   9.585 -0.0616  0.0937 -0.0709
  582loPI   C3A 9305  14.872  15.639   9.068  0.1044  0.0042 -0.0975
  582loPI   C4A 9306  14.876  15.612   8.658  0.1429  0.3724 -0.1711
  582loPI   C5A 9307  14.966  15.512   8.216  0.1591  0.0951  0.1767
  582loPI   C6A 9308  15.336  15.624   8.065 -0.0509  0.2489  0.2489
  582loPI   C1B 9309  14.445  15.299   9.858 -0.0444  0.4175  0.2436
  582loPI   C2B 9310  14.433  15.289   9.354  0.2629  0.1993 -0.0793
  582loPI   C3B 9311  14.417  15.472   8.923 -0.0934 -0.1391  0.0933
  582loPI   C4B 9312  14.467  15.410   8.453 -0.2407  0.1847  0.0033
  583loPI    C1 9313  17.616  15.469  11.028  0.1295  0.0533  0.0335
  583loPI    C2 9314  17.711  15.823  11.188  0.0527  0.0916 -0.0053
  583loPI    C3 9315  17.743  15.490  11.406 -0.1299  0.1527  0.1171
  583loPI   PO4 9316  17.754  15.445  10.826  0.0346 -0.0427 -0.0720
  583loPI   GL1 9317  17.754  15.239  10.309  0.1015 -0.2067  0.1183
  583loPI   GL2 9318  17.471  15.014  10.322 -0.0627  0.0946 -0.1106
  583loPI   C1A 9319  17.943  15.319  10.032 -0.3883 -0.1772  0.1544
  583loPI   C2A 9320  17.977  15.157   9.641  0.0626  0.2110  0.1300
  583loPI   C3A 9321  17.966  15.227   9.132 -0.2321 -0.1502  0.3637
  583loPI   C4A 9322  17.833  15.346   8.730 -0.0347  0.3113 -0.0354
  583loPI   C5A 9323  17.580  15.459   8.399  0.2113 -0.4326 -0.0038
  583loPI   C6A 9324  17.361  15.444   8.050  0.0180 -0.2128  0.0902
  583loPI   C1B 9325  17.496  15.013   9.836 -0.2924 -0.1828  0.2074
  583loPI   C2B 9326  17.532  15.043   9.394  0.5262 -0.1144  0.2073
  583loPI   C3B 9327  17.450  14.939   8.913 -0.1351 -0.1810 -0.5756
  583loPI   C4B 9328  17.496  15.006   8.509  0.1471 -0.2496  0.1305
  584loPI    C1 9329  10.158  17.863  11.046 -0.2920  0.0567 -0.0367
  584loPI    C2 9330  10.164  17.611  11.356 -0.1266  0.0725 -0.0264
  584loPI    C3 9331   9.913  17.922  11.356  0.0605  0.2272  0.2162
  584loPI   PO4 9332  10.127  17.662  10.835 -0.1822 -0.1736  0.0339
  584loPI   GL1 9333   9.877  17.609  10.409  0.3326  0.0936  0.1116
  584loPI   GL2 9334   9.657  17.477  10.223 -0.1009  0.2694  0.0576
  584loPI   C1A 9335  10.083  17.675  10.000 -0.0759  0.6320  0.0064
  584loPI   C2A 9336  10.063  17.684   9.563 -0.0886  0.5764 -0.3764
  584loPI   C3A 9337  10.090  17.695   9.139 -0.3279  0.2388 -0.0204
  584loPI   C4A 9338  10.040  17.688   8.791 -0.2003  0.0430  0.3008
  584loPI   C5A 9339   9.943  17.646   8.326  0.3102  0.0473  0.4184
  584loPI   C6A 9340   9.562  17.444   8.155  0.0177 -0.0321 -0.0855
  584loPI   C1B 9341   9.647  17.383   9.766  0.1339 -0.1287  0.1856
  584loPI   C2B 9342   9.568  17.451   9.338 -0.2469  0.2141 -0.0444
  584loPI   C3B 9343   9.664  17.395   9.046  0.0379  0.2202 -0.2953
  584loPI   C4B 9344   9.602  17.412   8.666 -0.2082 -0.3174 -0.1300
  585loPI    C1 9345   7.033   7.215  10.465  0.1683 -0.0573  0.0354
  585loPI    C2 9346   6.803   6.934  10.634 -0.1375  0.2229  0.0970
  585loPI    C3 9347   7.146   7.044  10.808 -0.0757 -0.0248  0.1345
  585loPI   PO4 9348   6.880   7.303  10.285 -0.0212 -0.0816  0.0634
  585loPI   GL1 9349   7.036   7.407   9.942 -0.2426  0.2250  0.1435
  585loPI   GL2 9350   7.218   7.647   9.961  0.3593  0.0341  0.0678
  585loPI   C1A 9351   6.781   7.307   9.620 -0.0382 -0.0118  0.1053
  585loPI   C2A 9352   6.782   7.277   9.099 -0.0750  0.0689 -0.0061
  585loPI   C3A 9353   6.793   7.237   8.700 -0.1874  0.2434 -0.1103
  585loPI   C4A 9354   6.868   7.309   8.205 -0.1992 -0.1025 -0.2910
  585loPI   C5A 9355   6.792   6.831   8.015 -0.2548 -0.1091 -0.0615
  585loPI   C6A 9356   6.869   6.494   7.735  0.3813  0.4369  0.0234
  585loPI   C1B 9357   7.218   7.567   9.506 -0.0679  0.3401 -0.1936
  585loPI   C2B 9358   7.320   7.543   9.091 -0.1309  0.2098 -0.0592
  585loPI   C3B 9359   7.230   7.496   8.589 -0.0753  0.1154  0.0864
  585loPI   C4B 9360   7.355   7.607   8.139  0.0507 -0.3055  0.0361
  586loPI    C1 9361   8.088   6.179  10.697  0.1429  0.3526 -0.1871
  586loPI    C2 9362   8.421   6.171  10.918 -0.0176 -0.2580  0.0539
  586loPI    C3 9363   8.114   6.402  11.027  0.0897 -0.1782  0.1890
  586loPI   PO4 9364   8.247   6.204  10.475 -0.0395  0.0401  0.0757
  586loPI   GL1 9365   8.370   6.031  10.152  0.1608 -0.1840  0.0660
  586loPI   GL2 9366   8.510   6.325  10.051 -0.0650  0.0952  0.0222
  586loPI   C1A 9367   8.165   5.980   9.768  0.0169  0.2574 -0.1324
  586loPI   C2A 9368   8.108   5.993   9.361  0.2845  0.2504 -0.2690
  586loPI   C3A 9369   8.083   5.875   8.938 -0.1153 -0.4600 -0.0942
  586loPI   C4A 9370   8.135   6.002   8.531  0.3369  0.1218 -0.0161
  586loPI   C5A 9371   8.201   6.002   8.173  0.1248 -0.0007  0.1655
  586loPI   C6A 9372   8.506   6.318   7.977 -0.1791  0.0506  0.1727
  586loPI   C1B 9373   8.517   6.282   9.592  0.0102 -0.0835 -0.1104
  586loPI   C2B 9374   8.605   6.202   9.151  0.1275 -0.2916  0.1974
  586loPI   C3B 9375   8.504   6.104   8.859 -0.3334 -0.0465 -0.0944
  586loPI   C4B 9376   8.672   6.201   8.397  0.0928  0.2800  0.0109
  587loPI    C1 9377  13.044  12.206  11.038 -0.1393 -0.1341  0.1217
  587loPI    C2 9378  13.343  12.380  11.239  0.1013 -0.0898 -0.2644
  587loPI    C3 9379  12.965  12.498  11.301  0.1635 -0.1112  0.1901
  587loPI   PO4 9380  13.086  12.204  10.782 -0.0675  0.0523 -0.2676
  587loPI   GL1 9381  12.898  12.006  10.443  0.0367 -0.3362  0.0946
  587loPI   GL2 9382  12.887  11.673  10.334 -0.3880  0.4334  0.0803
  587loPI   C1A 9383  12.775  11.956   9.980 -0.0982  0.1679  0.0867
  587loPI   C2A 9384  12.842  11.937   9.573 -0.2850 -0.0641  0.0606
  587loPI   C3A 9385  12.853  11.888   9.195  0.0631  0.0739  0.2073
  587loPI   C4A 9386  12.784  12.012   8.687  0.1522  0.0994 -0.1815
  587loPI   C5A 9387  12.722  12.418   8.384 -0.0146  0.0925  0.3743
  587loPI   C6A 9388  13.048  12.646   8.110 -0.3282 -0.0282  0.1247
  587loPI   C1B 9389  12.863  11.404   9.921  0.1181 -0.2959 -0.3517
  587loPI   C2B 9390  12.925  11.452   9.514  0.3531  0.1402 -0.1891
  587loPI   C3B 9391  12.774  11.449   9.002  0.1168 -0.0976 -0.0762
  587loPI   C4B 9392  12.855  11.536   8.599 -0.1051 -0.0737 -0.2107
  588loPI    C1 9393   3.621  10.994  10.673 -0.2374  0.2571  0.0614
  588loPI    C2 9394   3.779  10.796  10.982 -0.1173  0.0816 -0.1093
  588loPI    C3 9395   3.560  11.125  11.046 -0.4559 -0.1941  0.1908
  588loPI   PO4 9396   3.716  11.115  10.480 -0.1178 -0.0952  0.2737
  588loPI   GL1 9397   3.690  11.019  10.080 -0.0423 -0.1934  0.1723
  588loPI   GL2 9398   3.475  11.093   9.947 -0.1414 -0.3770  0.0421
  588loPI   C1A 9399   3.905  10.859   9.774 -0.1990  0.0895 -0.1873
  588loPI   C2A 9400   3.876  10.878   9.298  0.2217 -0.1844  0.2175
  588loPI   C3A 9401   3.941  10.891   8.788 -0.1192  0.1570 -0.2899
  588loPI   C4A 9402   4.045  11.000   8.302  0.1501  0.4465 -0.4153
  588loPI   C5A 9403   4.152  10.710   7.991 -0.4499 -0.1669 -0.4599
  588loPI   C6A 9404   4.595  10.639   7.771  0.0822 -0.1273 -0.1252
  588loPI   C1B 9405   3.390  11.115   9.423  0.2869  0.2190 -0.1738
  588loPI   C2B 9406   3.345  11.122   9.045 -0.1320  0.2326  0.1253
  588loPI   C3B 9407   3.440  11.172   8.567 -0.2236  0.0666 -0.3680
  588loPI   C4B 9408   3.591  11.202   8.316  0.0560  0.1710 -0.1507
  589loPI    C1 9409   8.963   7.600  10.788 -0.0835  0.0438 -0.1783
  589loPI    C2 9410   8.598   7.441  10.823 -0.0776  0.0965  0.1545
  589loPI    C3 9411   8.642   7.837  10.792 -0.0505  0.0871  0.0690
  589loPI   PO4 9412   9.036   7.439  10.546  0.1041 -0.4284  0.0182
  589loPI   GL1 9413   9.142   7.538  10.210 -0.1273 -0.3068  0.4252
  589loPI   GL2 9414   9.390   7.607  10.074 -0.1829  0.0735 -0.1207
  589loPI   C1A 9415   8.978   7.533   9.787 -0.1048 -0.2655  0.3603
  589loPI   C2A 9416   9.039   7.505   9.349  0.0574 -0.2206 -0.2250
  589loPI   C3A 9417   9.079   7.495   8.956 -0.0923 -0.2135  0.1360
  589loPI   C4A 9418   9.172   7.565   8.574  0.0905 -0.1911  0.0089
  589loPI   C5A 9419   9.049   7.732   8.224  0.1158  0.2170 -0.1666
  589loPI   C6A 9420   9.512   7.914   8.045  0.3266 -0.1244 -0.0550
  589loPI   C1B 9421   9.518   7.779   9.691 -0.0243 -0.2174  0.1632
  589loPI   C2B 9422   9.511   7.761   9.259 -0.0311 -0.0869  0.1824
  589loPI   C3B 9423   9.557   7.686   8.860 -0.1556 -0.1093  0.2976
  589loPI   C4B 9424   9.653   7.697   8.479  0.0767 -0.1414 -0.2242
  590loPI    C1 9425   8.440  18.375  10.792  0.2098 -0.2429 -0.1493
  590loPI    C2 9426   8.611  18.293  11.144 -0.1547 -0.2043  0.0419
  590loPI    C3 9427   8.220  18.376  11.127 -0.1418 -0.2110 -0.3751
  590loPI   PO4 9428   8.544  18.402  10.618  0.0312  0.1354  0.1003
  590loPI   GL1 9429   8.778  18.326  10.389  0.3617 -0.3493 -0.2957
  590loPI   GL2 9430   9.042  18.151  10.421  0.0901  0.0305 -0.0863
  590loPI   C1A 9431   8.700  18.420   9.993  0.1563 -0.1745  0.2155
  590loPI   C2A 9432   8.701  18.530   9.527  0.0008 -0.2367  0.0326
  590loPI   C3A 9433   8.687  18.508   9.035  0.0952  0.0098  0.3169
  590loPI   C4A 9434   8.775  18.417   8.590 -0.3366  0.1437  0.2468
  590loPI   C5A 9435   9.086  18.279   8.283 -0.2537  0.3022 -0.3527
  590loPI   C6A 9436   9.106  18.294   7.838 -0.0997 -0.0614  0.0554
  590loPI   C1B 9437   9.243  18.147  10.002  0.0535 -0.0429 -0.0918
  590loPI   C2B 9438   9.152  18.227   9.587  0.1718  0.3913 -0.1273
  590loPI   C3B 9439   9.068  18.210   9.277 -0.0237  0.0503  0.0524
  590loPI   C4B 9440   9.163  18.130   8.852 -0.4879  0.1504  0.3900
  591loPI    C1 9441  14.093   4.589  10.077  0.1772 -0.0482  0.1098
  591loPI    C2 9442  14.272   4.382  10.369  0.0328 -0.1505  0.1271
  591loPI    C3 9443  13.911   4.542  10.430  0.0894  0.0011  0.0714
  591loPI   PO4 9444  14.283   4.701   9.984  0.0793  0.0726  0.1457
  591loPI   GL1 9445  14.275   4.506   9.576 -0.1031 -0.3012 -0.0638
  591loPI   GL2 9446  14.093   4.237   9.721 -0.0661 -0.3287  0.0788
  591loPI   C1A 9447  14.351   4.479   9.129 -0.2120 -0.0035 -0.1685
  591loPI   C2A 9448  14.367   4.557   8.666 -0.1159 -0.0046 -0.0807
  591loPI   C3A 9449  14.367   4.578   8.188 -0.1495 -0.0651 -0.2441
  591loPI   C4A 9450  14.344   4.767   7.877 -0.1392  0.0292 -0.2106
  591loPI   C5A 9451  14.367   5.165   7.760 -0.2305 -0.1930  0.2941
  591loPI   C6A 9452  14.404   5.604   7.921  0.0509 -0.1208  0.0573
  591loPI   C1B 9453  13.877   4.373   9.398 -0.0098 -0.0103 -0.0423
  591loPI   C2B 9454  13.927   4.358   8.987  0.0094 -0.1446 -0.0037
  591loPI   C3B 9455  13.906   4.378   8.498 -0.4040  0.0971  0.2347
  591loPI   C4B 9456  13.908   4.217   8.202 -0.0062 -0.0324  0.0812
  592loPI    C1 9457  16.431  11.613  10.905  0.3978  0.0269  0.3684
  592loPI    C2 9458  16.752  11.466  10.717  0.0522 -0.3161  0.0290
  592loPI    C3 9459  16.561  11.244  10.990  0.1753 -0.0624  0.3272
  592loPI   PO4 9460  16.295  11.687  10.727 -0.2222  0.2967  0.2462
  592loPI   GL1 9461  16.301  11.682  10.345 -0.2750 -0.0241 -0.1595
  592loPI   GL2 9462  16.184  11.426  10.140 -0.2207 -0.0137  0.3208
  592loPI   C1A 9463  16.519  11.811   9.962  0.0459 -0.1381  0.0800
  592loPI   C2A 9464  16.475  11.937   9.482  0.0034  0.1381  0.2595
  592loPI   C3A 9465  16.542  11.852   9.030 -0.0567 -0.1843  0.2111
  592loPI   C4A 9466  16.492  11.873   8.599 -0.0348 -0.1433  0.0177
  592loPI   C5A 9467  16.467  11.835   8.208 -0.2478  0.0937 -0.2115
  592loPI   C6A 9468  16.308  11.808   7.805  0.0117  0.2835 -0.2259
  592loPI   C1B 9469  16.045  11.577   9.807  0.0375 -0.2136  0.3129
  592loPI   C2B 9470  16.077  11.693   9.311  0.2629 -0.0586  0.1267
  592loPI   C3B 9471  16.072  11.646   8.893 -0.1660 -0.0220 -0.2624
  592loPI   C4B 9472  16.018  11.663   8.481  0.0512 -0.2338  0.0146
  593loPI    C1 9473  13.477  15.982  10.864  0.0918  0.2147  0.0151
  593loPI    C2 9474  13.120  16.162  10.867 -0.1055 -0.1674  0.0394
  593loPI    C3 9475  13.326  16.122  11.207 -0.1699 -0.1972  0.0750
  593loPI   PO4 9476  13.539  16.059  10.672 -0.1531 -0.0815 -0.0877
  593loPI   GL1 9477  13.516  16.156  10.217 -0.5263 -0.1712  0.1727
  593loPI   GL2 9478  13.545  15.817  10.170  0.1816 -0.2830 -0.1950
  593loPI   C1A 9479  13.485  16.405   9.809 -0.0358 -0.2982 -0.0208
  593loPI   C2A 9480  13.575  16.369   9.402 -0.0047  0.0206  0.2181
  593loPI   C3A 9481  13.648  16.442   9.005 -0.1455 -0.1495 -0.1180
  593loPI   C4A 9482  13.613  16.513   8.572 -0.0363 -0.0094 -0.2178
  593loPI   C5A 9483  13.393  16.618   8.225  0.2207  0.1475 -0.0383
  593loPI   C6A 9484  13.033  16.656   7.906  0.3852  0.0911  0.1101
  593loPI   C1B 9485  13.536  15.872   9.807  0.2187  0.0179  0.2012
  593loPI   C2B 9486  13.601  15.850   9.386 -0.1488  0.1404  0.0680
  593loPI   C3B 9487  13.511  15.975   8.975 -0.1055  0.0933  0.0285
  593loPI   C4B 9488  13.438  15.991   8.478  0.1842 -0.4415 -0.2152
  594loPI    C1 9489  10.800   3.663  10.826 -0.1017 -0.4623  0.0801
  594loPI    C2 9490  10.468   3.708  11.045 -0.0467  0.0732  0.0655
  594loPI    C3 9491  10.814   3.867  11.169  0.1106 -0.1066 -0.1337
  594loPI   PO4 9492  10.860   3.755  10.536  0.1568 -0.2364 -0.0507
  594loPI   GL1 9493  10.800   3.703  10.161  0.0110  0.3018 -0.0483
  594loPI   GL2 9494  10.602   3.505  10.015 -0.3019 -0.1090 -0.0759
  594loPI   C1A 9495  10.999   3.913   9.862  0.0414  0.0754  0.0276
  594loPI   C2A 9496  11.099   3.866   9.503 -0.2244  0.3475  0.1330
  594loPI   C3A 9497  11.119   3.919   9.046  0.2523  0.0959  0.0155
  594loPI   C4A 9498  11.003   3.972   8.502  0.0398 -0.1054  0.2125
  594loPI   C5A 9499  10.735   4.108   8.238 -0.1307  0.1078  0.2737
  594loPI   C6A 9500  10.578   4.197   7.881 -0.2705  0.0132  0.0504
  594loPI   C1B 9501  10.579   3.733   9.627 -0.1751  0.2091 -0.0638
  594loPI   C2B 9502  10.623   3.607   9.228  0.0733 -0.2512  0.0324
  594loPI   C3B 9503  10.619   3.657   8.771 -0.2940  0.0168 -0.1767
  594loPI   C4B 9504  10.637   3.618   8.329  0.2301 -0.0791  0.1011
  595loPI    C1 9505   1.617  18.251  10.824 -0.0360 -0.0993 -0.0713
  595loPI    C2 9506   1.383  18.119  11.121  0.1472  0.0107  0.1243
  595loPI    C3 9507   1.403  18.511  11.040  0.1957 -0.0068  0.0510
  595loPI   PO4 9508   1.586  18.094  10.687 -0.2500 -0.1377 -0.2421
  595loPI   GL1 9509   1.448  17.908  10.326  0.2132  0.1015 -0.0712
  595loPI   GL2 9510   1.588  17.780  10.119  0.0677 -0.1453 -0.3197
  595loPI   C1A 9511   1.120  18.040   9.988 -0.2905  0.3853 -0.1968
  595loPI   C2A 9512   0.998  17.983   9.584  0.2348  0.2028  0.0660
  595loPI   C3A 9513   0.960  18.084   9.232 -0.1336 -0.1602 -0.2613
  595loPI   C4A 9514   1.042  18.058   8.834  0.1565  0.1238  0.0499
  595loPI   C5A 9515   1.018  18.019   8.369  0.0701  0.1217  0.1299
  595loPI   C6A 9516   0.858  17.701   8.128 -0.2159  0.0213 -0.3382
  595loPI   C1B 9517   1.521  17.864   9.735  0.3246  0.0375 -0.0223
  595loPI   C2B 9518   1.440  17.867   9.367 -0.0743  0.0127  0.0539
  595loPI   C3B 9519   1.444  17.762   8.894 -0.0252 -0.0801  0.1646
  595loPI   C4B 9520   1.482  17.727   8.358  0.3428 -0.1880 -0.1478
  596loPI    C1 9521   7.158  16.023  10.702 -0.0367 -0.0751 -0.0505
  596loPI    C2 9522   6.832  16.192  10.861 -0.0357 -0.1334  0.0134
  596loPI    C3 9523   6.841  15.797  10.794  0.0982 -0.1645  0.2048
  596loPI   PO4 9524   7.274  16.224  10.536  0.3976 -0.0753  0.2111
  596loPI   GL1 9525   7.142  16.579  10.189 -0.0410 -0.0185 -0.0871
  596loPI   GL2 9526   7.267  16.893  10.089 -0.2866 -0.0859 -0.2943
  596loPI   C1A 9527   7.225  16.301   9.797 -0.1802  0.0391  0.0041
  596loPI   C2A 9528   7.272  16.226   9.347  0.1360  0.2067 -0.1335
  596loPI   C3A 9529   7.244  16.281   8.888 -0.0811  0.0981  0.1399
  596loPI   C4A 9530   7.368  16.381   8.461  0.1587 -0.1192 -0.0017
  596loPI   C5A 9531   7.697  16.533   8.134  0.0748  0.1714 -0.0900
  596loPI   C6A 9532   8.048  16.796   8.020  0.2634 -0.4330  0.1346
  596loPI   C1B 9533   7.290  16.826   9.658  0.1414 -0.0485 -0.2645
  596loPI   C2B 9534   7.244  16.713   9.255 -0.0324  0.2216 -0.2219
  596loPI   C3B 9535   7.289  16.773   8.804 -0.2128 -0.1645 -0.2504
  596loPI   C4B 9536   7.270  16.806   8.290 -0.2124  0.0904  0.1151
  597loPI    C1 9537   9.236  17.789  10.957 -0.0423 -0.0310 -0.1294
  597loPI    C2 9538   9.183  17.417  11.093  0.1992  0.1247  0.4190
  597loPI    C3 9539   9.498  17.631  11.215  0.0405  0.5270  0.1431
  597loPI   PO4 9540   9.159  17.769  10.704 -0.3033 -0.0559 -0.1442
  597loPI   GL1 9541   9.168  17.568  10.312  0.0875  0.2573 -0.2000
  597loPI   GL2 9542   9.213  17.215  10.112 -0.2043  0.0882  0.2514
  597loPI   C1A 9543   9.224  17.643   9.896 -0.2630  0.1487 -0.0422
  597loPI   C2A 9544   9.155  17.756   9.551  0.0347  0.0568  0.4789
  597loPI   C3A 9545   9.178  17.603   9.020  0.2252 -0.0146 -0.3600
  597loPI   C4A 9546   9.183  17.656   8.585  0.0848 -0.3791  0.0176
  597loPI   C5A 9547   8.998  17.467   8.315 -0.0242  0.1574  0.1943
  597loPI   C6A 9548   8.788  17.200   8.118  0.1641  0.0296  0.1224
  597loPI   C1B 9549   9.171  17.215   9.594  0.4522  0.2104 -0.0320
  597loPI   C2B 9550   9.139  17.144   9.204  0.0969 -0.2612  0.1047
  597loPI   C3B 9551   9.218  17.141   8.781 -0.0965  0.0463  0.1167
  597loPI   C4B 9552   9.003  16.823   8.353 -0.1855  0.0360 -0.1799
  598loPI    C1 9553  14.193   9.051  10.546  0.1578  0.0861  0.2330
  598loPI    C2 9554  14.300   8.912  10.905  0.1171  0.1917  0.2866
  598loPI    C3 9555  14.216   9.300  10.859  0.0261  0.1601  0.1844
  598loPI   PO4 9556  14.346   8.948  10.426  0.3259 -0.2100  0.0635
  598loPI   GL1 9557  14.526   8.975   9.975  0.1386 -0.0455 -0.4723
  598loPI   GL2 9558  14.143   8.813   9.907 -0.0153  0.1024  0.2907
  598loPI   C1A 9559  14.616   8.770   9.609  0.0136 -0.2684 -0.1907
  598loPI   C2A 9560  14.595   8.770   9.131  0.0326  0.0644 -0.2534
  598loPI   C3A 9561  14.538   8.762   8.694  0.1751  0.0019  0.2477
  598loPI   C4A 9562  14.519   8.782   8.238  0.0912  0.2013 -0.0551
  598loPI   C5A 9563  14.544   8.918   7.792  0.0062  0.1694  0.0504
  598loPI   C6A 9564  14.538   8.823   7.331 -0.0327  0.2302 -0.2857
  598loPI   C1B 9565  14.096   8.945   9.437 -0.0981 -0.2253  0.0591
  598loPI   C2B 9566  14.109   9.014   9.009  0.0129  0.1055 -0.1355
  598loPI   C3B 9567  14.118   8.977   8.493  0.0441  0.2219 -0.1828
  598loPI   C4B 9568  13.977   9.003   8.010 -0.1961 -0.0373  0.1372
  599loPI    C1 9569  12.705   5.426  10.555 -0.0865 -0.1114 -0.0287
  599loPI    C2 9570  12.847   5.144  10.801 -0.1447 -0.0996  0.0186
  599loPI    C3 9571  12.863   5.530  10.908 -0.1494 -0.0926 -0.0060
  599loPI   PO4 9572  12.431   5.309  10.418  0.2920 -0.1099 -0.1040
  599loPI   GL1 9573  12.450   5.018  10.136 -0.2887  0.0725 -0.1473
  599loPI   GL2 9574  12.498   4.719  10.020  0.2680 -0.2669  0.0937
  599loPI   C1A 9575  12.499   5.253   9.769 -0.1513 -0.0626  0.0819
  599loPI   C2A 9576  12.482   5.197   9.329 -0.2395  0.2534 -0.1156
  599loPI   C3A 9577  12.471   5.192   8.906 -0.2444  0.0227 -0.3026
  599loPI   C4A 9578  12.464   5.199   8.455  0.0326  0.3199 -0.2414
  599loPI   C5A 9579  12.407   5.228   8.089  0.3850 -0.0570  0.0398
  599loPI   C6A 9580  12.177   5.238   7.728 -0.0768 -0.1047  0.0408
  599loPI   C1B 9581  12.507   4.668   9.575  0.1125 -0.1293 -0.1714
  599loPI   C2B 9582  12.462   4.706   9.115 -0.3770 -0.4997 -0.0743
  599loPI   C3B 9583  12.501   4.730   8.663  0.1133 -0.2038 -0.0839
  599loPI   C4B 9584  12.694   4.793   8.262  0.1293 -0.1397 -0.3876
  600loPI    C1 9585   1.859   7.428  10.465  0.0106 -0.1571 -0.0104
  600loPI    C2 9586   1.667   7.314  10.796  0.0080 -0.1109  0.0041
  600loPI    C3 9587   1.696   7.064  10.485  0.1229 -0.2027  0.0876
  600loPI   PO4 9588   1.813   7.693  10.344  0.0782 -0.0904  0.0219
  600loPI   GL1 9589   1.897   7.832   9.930  0.4051  0.0459  0.0377
  600loPI   GL2 9590   2.118   7.495   9.923 -0.1356  0.0576 -0.0189
  600loPI   C1A 9591   1.759   8.021   9.623  0.0762  0.0197 -0.3182
  600loPI   C2A 9592   1.689   8.047   9.235 -0.1585 -0.1806 -0.1264
  600loPI   C3A 9593   1.740   7.980   8.819  0.1369 -0.1945 -0.0701
  600loPI   C4A 9594   1.700   8.033   8.336 -0.0858 -0.1347  0.0232
  600loPI   C5A 9595   1.649   8.010   7.886  0.0377 -0.3527 -0.3356
  600loPI   C6A 9596   1.651   7.810   7.523 -0.2733  0.1093  0.0540
  600loPI   C1B 9597   2.146   7.682   9.519  0.3432  0.2928 -0.2563
  600loPI   C2B 9598   2.107   7.704   9.141  0.1553  0.2855  0.2689
  600loPI   C3B 9599   2.160   7.718   8.729 -0.0643 -0.2228  0.0242
  600loPI   C4B 9600   2.199   7.858   8.330  0.1324  0.1730  0.0349
  601loPI    C1 9601   5.778  12.891  11.068  0.1244  0.1412  0.2182
  601loPI    C2 9602   5.637  12.776  11.424  0.0386  0.0482  0.1545
  601loPI    C3 9603   5.768  13.150  11.372 -0.1426  0.1229  0.2275
  601loPI   PO4 9604   5.612  12.836  10.902  0.1483  0.3283 -0.0610
  601loPI   GL1 9605   5.529  12.966  10.542  0.3013 -0.1429  0.0114
  601loPI   GL2 9606   5.348  12.684  10.465 -0.0097 -0.1193 -0.2569
  601loPI   C1A 9607   5.252  13.161  10.161  0.3696  0.3948 -0.1864
  601loPI   C2A 9608   5.256  13.161   9.698 -0.1630  0.1510 -0.2593
  601loPI   C3A 9609   5.284  13.128   9.255 -0.1654  0.0802  0.1587
  601loPI   C4A 9610   5.228  13.193   8.864  0.1386 -0.2813  0.1372
  601loPI   C5A 9611   5.234  13.223   8.455  0.1142 -0.0750  0.0367
  601loPI   C6A 9612   5.178  13.489   8.118  0.1256  0.0792  0.0185
  601loPI   C1B 9613   5.356  12.683   9.974  0.2613  0.0417  0.0040
  601loPI   C2B 9614   5.298  12.589   9.636 -0.4818  0.1423  0.0348
  601loPI   C3B 9615   5.251  12.556   9.160  0.2695 -0.0310 -0.1854
  601loPI   C4B 9616   5.245  12.688   8.832  0.0577  0.0715 -0.0249
  602loPI    C1 9617  15.609  14.937  10.983 -0.0361 -0.0576 -0.0758
  602loPI    C2 9618  15.520  14.638  11.233  0.1176 -0.0908 -0.0601
  602loPI    C3 9619  15.695  14.969  11.372  0.0886 -0.0574 -0.1029
  602loPI   PO4 9620  15.442  14.899  10.808  0.1047 -0.0942  0.0296
  602loPI   GL1 9621  15.713  14.885  10.407  0.0205 -0.4138 -0.6035
  602loPI   GL2 9622  15.378  14.837  10.307 -0.0053  0.4652 -0.0174
  602loPI   C1A 9623  15.720  15.053  10.029  0.1830  0.2480  0.0418
  602loPI   C2A 9624  15.625  14.975   9.558 -0.1813 -0.2742 -0.0423
  602loPI   C3A 9625  15.750  14.984   9.224 -0.4275  0.1141  0.0564
  602loPI   C4A 9626  15.651  15.013   8.755  0.1239  0.0752 -0.2875
  602loPI   C5A 9627  15.748  14.982   8.404  0.0843 -0.2306 -0.0142
  602loPI   C6A 9628  15.446  14.701   8.091 -0.1910 -0.1547 -0.0855
  602loPI   C1B 9629  15.197  14.705   9.806 -0.1180 -0.2718 -0.1601
  602loPI   C2B 9630  15.242  14.705   9.356  0.2597 -0.1481 -0.2689
  602loPI   C3B 9631  15.272  14.791   8.920 -0.1255 -0.2797 -0.3221
  602loPI   C4B 9632  15.326  14.732   8.567  0.0149  0.1168  0.0421
  603loPI    C1 9633  13.552   7.413  10.530 -0.1724  0.2138  0.2198
  603loPI    C2 9634  13.933   7.513  10.455 -0.0669 -0.1582  0.2423
  603loPI    C3 9635  13.823   7.401  10.823 -0.2754  0.2749  0.3181
  603loPI   PO4 9636  13.554   7.203  10.319  0.1394  0.0057  0.2549
  603loPI   GL1 9637  13.877   7.136   9.976 -0.0367 -0.1001 -0.0763
  603loPI   GL2 9638  13.727   6.841  10.055 -0.0163 -0.2362 -0.2585
  603loPI   C1A 9639  13.929   7.029   9.570 -0.2240 -0.0953  0.1396
  603loPI   C2A 9640  13.976   6.937   9.110 -0.0615 -0.0018 -0.0534
  603loPI   C3A 9641  13.927   6.954   8.664  0.2581 -0.1406  0.3327
  603loPI   C4A 9642  14.015   6.851   8.190 -0.0566  0.2579  0.0754
  603loPI   C5A 9643  14.028   6.726   7.803  0.2667 -0.2127 -0.3226
  603loPI   C6A 9644  14.217   6.703   7.345 -0.1291 -0.0744 -0.0626
  603loPI   C1B 9645  13.602   6.629   9.688 -0.1690 -0.0989  0.2438
  603loPI   C2B 9646  13.453   6.657   9.394  0.3878 -0.2877 -0.1026
  603loPI   C3B 9647  13.447   6.681   8.953 -0.0599 -0.1668  0.0544
  603loPI   C4B 9648  13.436   6.611   8.456 -0.0874 -0.2266  0.0142
  604loPI    C1 9649   9.782  13.438  10.920 -0.0147  0.0609  0.0907
  604loPI    C2 9650   9.912  13.630  11.245 -0.0464  0.1901  0.0275
  604loPI    C3 9651   9.570  13.424  11.258  0.1836 -0.1903  0.2080
  604loPI   PO4 9652   9.765  13.574  10.731  0.2636  0.1641  0.2651
  604loPI   GL1 9653   9.812  13.562  10.346  0.0956  0.1302  0.0411
  604loPI   GL2 9654  10.106  13.773  10.426 -0.0357 -0.4704 -0.4268
  604loPI   C1A 9655   9.754  13.556   9.907 -0.0906 -0.1090  0.0077
  604loPI   C2A 9656   9.778  13.380   9.484 -0.3517  0.0259  0.0215
  604loPI   C3A 9657   9.906  13.451   9.087  0.0215  0.1959 -0.1877
  604loPI   C4A 9658   9.787  13.454   8.632 -0.1776  0.0945 -0.0522
  604loPI   C5A 9659   9.735  13.351   8.175  0.1413 -0.0390 -0.0638
  604loPI   C6A 9660   9.584  13.002   7.948  0.0258  0.0096  0.0384
  604loPI   C1B 9661  10.299  13.785  10.098  0.0303  0.2121 -0.1490
  604loPI   C2B 9662  10.351  13.708   9.625  0.1604  0.0505  0.0836
  604loPI   C3B 9663  10.274  13.730   9.311  0.0660 -0.0143  0.0243
  604loPI   C4B 9664  10.231  13.769   8.847  0.2881 -0.2754  0.3269
  605loPI    C1 9665  13.564  10.031  10.468  0.0906  0.0013  0.0410
  605loPI    C2 9666  13.660   9.986  10.854 -0.1252  0.0451  0.1010
  605loPI    C3 9667  13.874  10.232  10.622  0.2156 -0.2368  0.1068
  605loPI   PO4 9668  13.439   9.743  10.469 -0.1951 -0.2506 -0.2646
  605loPI   GL1 9669  13.132   9.785  10.155  0.1495 -0.2404 -0.1766
  605loPI   GL2 9670  13.267  10.043  10.087  0.1906 -0.1660  0.1535
  605loPI   C1A 9671  13.284   9.616   9.787 -0.0918  0.0434  0.1174
  605loPI   C2A 9672  13.253   9.671   9.376 -0.0730 -0.1128 -0.1047
  605loPI   C3A 9673  13.265   9.657   8.898 -0.0863  0.2162 -0.0419
  605loPI   C4A 9674  13.247   9.523   8.532 -0.0761 -0.1174  0.4445
  605loPI   C5A 9675  13.131   9.484   8.144  0.1117  0.2692  0.0950
  605loPI   C6A 9676  13.046   9.432   7.699  0.1755 -0.1501 -0.1125
  605loPI   C1B 9677  13.187  10.166   9.679  0.3039  0.1322 -0.3680
  605loPI   C2B 9678  13.292  10.203   9.247 -0.0296  0.0260  0.1067
  605loPI   C3B 9679  13.200  10.182   8.764 -0.0811 -0.0662  0.0859
  605loPI   C4B 9680  13.310  10.398   8.335  0.1355  0.2149 -0.0856
  606loPI    C1 9681   4.876  18.003  10.832 -0.1674  0.1900  0.0036
  606loPI    C2 9682   4.712  18.079  11.189  0.1249  0.1582  0.1478
  606loPI    C3 9683   5.092  17.955  11.165  0.0986  0.1299 -0.1738
  606loPI   PO4 9684   4.794  17.934  10.698  0.0160 -0.1017  0.0694
  606loPI   GL1 9685   4.688  18.103  10.404 -0.0020 -0.0880  0.1885
  606loPI   GL2 9686   4.602  17.953  10.149  0.1951 -0.0388  0.1926
  606loPI   C1A 9687   4.952  18.297  10.109 -0.1539  0.1078  0.0703
  606loPI   C2A 9688   5.099  18.262   9.765 -0.0419 -0.4101  0.1436
  606loPI   C3A 9689   5.057  18.228   9.230 -0.0077  0.1129 -0.0820
  606loPI   C4A 9690   4.968  18.181   8.865  0.0606 -0.2661  0.0726
  606loPI   C5A 9691   5.090  18.175   8.504  0.0973 -0.2926 -0.2278
  606loPI   C6A 9692   4.971  18.247   8.112  0.1205  0.0367  0.0886
  606loPI   C1B 9693   4.600  18.004   9.630 -0.3700 -0.1515 -0.2269
  606loPI   C2B 9694   4.609  17.913   9.245 -0.0449 -0.1990 -0.1338
  606loPI   C3B 9695   4.542  17.915   8.898  0.1430 -0.3590 -0.0533
  606loPI   C4B 9696   4.687  17.925   8.423 -0.2640  0.1572  0.4570
  607loPI    C1 9697  16.317   1.008  10.512 -0.1333 -0.1023 -0.0123
  607loPI    C2 9698  16.020   1.258  10.417  0.0166  0.0819 -0.0013
  607loPI    C3 9699  16.058   1.126  10.793  0.0059  0.1354  0.0186
  607loPI   PO4 9700  16.349   0.869  10.338  0.0515 -0.1117  0.2284
  607loPI   GL1 9701  16.260   0.603  10.093  0.2607 -0.0775  0.1252
  607loPI   GL2 9702  16.428   0.380  10.183  0.0326  0.1740  0.1332
  607loPI   C1A 9703  16.270   0.514   9.663  0.2176  0.0066  0.1403
  607loPI   C2A 9704  16.405   0.508   9.214 -0.0120 -0.0427 -0.1169
  607loPI   C3A 9705  16.440   0.449   8.752  0.3849  0.0628 -0.2128
  607loPI   C4A 9706  16.369   0.524   8.306 -0.3000  0.0791 -0.4844
  607loPI   C5A 9707  16.256   0.559   7.858 -0.3209  0.1729  0.1914
  607loPI   C6A 9708  16.024   0.794   7.490  0.1371  0.0046 -0.0894
  607loPI   C1B 9709  16.672   0.224   9.739 -0.3882 -0.2744  0.4416
  607loPI   C2B 9710  16.771   0.172   9.362  0.1465 -0.1492  0.1799
  607loPI   C3B 9711  16.827   0.214   8.976  0.2414  0.0057  0.0196
  607loPI   C4B 9712  16.748   0.143   8.494  0.1896  0.4029 -0.0546
  608loPI    C1 9713  14.990   5.126  10.288  0.3859 -0.0600 -0.0007
  608loPI    C2 9714  14.782   5.439  10.424  0.2388 -0.2125  0.1293
  608loPI    C3 9715  14.794   5.100  10.636  0.1175 -0.4090 -0.1727
  608loPI   PO4 9716  14.915   5.123  10.039  0.0539 -0.3394 -0.2759
  608loPI   GL1 9717  14.972   5.013   9.703  0.2794  0.0891 -0.3058
  608loPI   GL2 9718  14.734   4.775   9.650  0.6149 -0.1593 -0.0205
  608loPI   C1A 9719  14.831   5.349   9.337  0.0507  0.0925  0.1026
  608loPI   C2A 9720  14.815   5.402   8.929 -0.5178  0.3314 -0.0692
  608loPI   C3A 9721  14.835   5.359   8.497 -0.0963  0.0688 -0.1128
  608loPI   C4A 9722  14.979   5.243   8.129  0.0112  0.0179  0.2007
  608loPI   C5A 9723  15.057   5.383   7.772  0.0584 -0.1472 -0.2124
  608loPI   C6A 9724  15.232   5.725   7.394  0.1201  0.2477  0.0087
  608loPI   C1B 9725  14.849   4.801   9.237  0.1999  0.2223  0.1616
  608loPI   C2B 9726  14.785   4.762   8.819  0.0932  0.1940 -0.0402
  608loPI   C3B 9727  14.824   4.761   8.387 -0.0090  0.0468  0.2540
  608loPI   C4B 9728  14.802   4.802   7.977 -0.3280  0.0775  0.0261
  609loPI    C1 9729   1.789  10.833  10.412 -0.1873 -0.1861 -0.0215
  609loPI    C2 9730   1.929  10.898  10.781 -0.1293 -0.3384 -0.0160
  609loPI    C3 9731   1.674  10.597  10.715 -0.2076 -0.2574 -0.0845
  609loPI   PO4 9732   1.679  11.046  10.392  0.0644 -0.0677 -0.1213
  609loPI   GL1 9733   1.714  11.193  10.005  0.3797 -0.0528  0.1981
  609loPI   GL2 9734   1.861  11.438  10.063 -0.0573 -0.0609 -0.0566
  609loPI   C1A 9735   1.575  11.256   9.590 -0.1520 -0.0208  0.2179
  609loPI   C2A 9736   1.588  11.213   9.136 -0.1176  0.1291 -0.1260
  609loPI   C3A 9737   1.592  11.311   8.706 -0.0614  0.3225  0.0596
  609loPI   C4A 9738   1.646  11.313   8.212  0.0909  0.0804 -0.0339
  609loPI   C5A 9739   1.405  11.231   7.866  0.2240  0.0012  0.2839
  609loPI   C6A 9740   1.127  11.382   7.583  0.2374  0.0376  0.0803
  609loPI   C1B 9741   2.086  11.487   9.591 -0.1975 -0.1469 -0.1187
  609loPI   C2B 9742   2.123  11.545   9.194  0.0898  0.0391 -0.1145
  609loPI   C3B 9743   2.046  11.578   8.814 -0.2272  0.0931 -0.2838
  609loPI   C4B 9744   2.181  11.556   8.414 -0.0108  0.3127  0.3467
  610loPI    C1 9745   3.426   8.075  10.806  0.1035 -0.0940 -0.1754
  610loPI    C2 9746   3.254   7.820  10.550 -0.0848  0.1234 -0.2688
  610loPI    C3 9747   3.235   7.752  10.944  0.0227 -0.1006 -0.3007
  610loPI   PO4 9748   3.645   8.131  10.673  0.2143  0.0653 -0.1587
  610loPI   GL1 9749   3.597   8.192  10.325 -0.1336  0.3884 -0.2798
  610loPI   GL2 9750   3.324   8.402  10.315 -0.1190  0.1020  0.2118
  610loPI   C1A 9751   3.656   8.318   9.924  0.2399 -0.2053 -0.0184
  610loPI   C2A 9752   3.666   8.215   9.394  0.1526 -0.0300  0.2465
  610loPI   C3A 9753   3.616   8.230   9.008 -0.0713 -0.0771 -0.0639
  610loPI   C4A 9754   3.649   8.286   8.640  0.0169 -0.0089 -0.2156
  610loPI   C5A 9755   3.600   8.188   8.228  0.0770 -0.0354  0.1500
  610loPI   C6A 9756   3.246   8.041   8.006 -0.0692  0.0746  0.2230
  610loPI   C1B 9757   3.279   8.668   9.889 -0.0151  0.2071 -0.2701
  610loPI   C2B 9758   3.192   8.567   9.386 -0.1686  0.1731  0.2790
  610loPI   C3B 9759   3.193   8.523   9.015  0.1055 -0.2971 -0.0151
  610loPI   C4B 9760   3.199   8.656   8.609 -0.1121 -0.1540 -0.0985
  611loPI    C1 9761   7.005   2.840  10.883 -0.0401 -0.2095 -0.0357
  611loPI    C2 9762   6.709   3.109  10.881  0.1092 -0.0435 -0.1312
  611loPI    C3 9763   6.728   2.835  11.172 -0.0674  0.0226 -0.0557
  611loPI   PO4 9764   7.022   2.722  10.576 -0.2373 -0.0685 -0.2082
  611loPI   GL1 9765   7.120   2.533  10.290 -0.1116 -0.0986  0.1575
  611loPI   GL2 9766   7.344   2.283  10.156  0.2492 -0.1520  0.0439
  611loPI   C1A 9767   7.298   2.602   9.819  0.2814 -0.4248 -0.1581
  611loPI   C2A 9768   7.404   2.578   9.297 -0.0633  0.0904 -0.1016
  611loPI   C3A 9769   7.469   2.562   8.860 -0.2248 -0.0716 -0.2415
  611loPI   C4A 9770   7.538   2.430   8.404  0.0243  0.1214 -0.5296
  611loPI   C5A 9771   7.400   2.428   8.056  0.1699 -0.3605 -0.1837
  611loPI   C6A 9772   7.482   2.377   7.579 -0.0242 -0.2565 -0.1990
  611loPI   C1B 9773   7.365   2.013   9.727  0.2234  0.1819  0.0421
  611loPI   C2B 9774   7.443   2.021   9.320 -0.0199 -0.0014  0.0250
  611loPI   C3B 9775   7.483   1.995   8.944 -0.1235 -0.1553  0.1039
  611loPI   C4B 9776   7.484   1.890   8.437  0.0949  0.0879  0.2667
  612loPI    C1 9777  13.156   8.150  10.899  0.0731 -0.0733 -0.0208
  612loPI    C2 9778  12.873   7.883  10.989  0.1266 -0.0878  0.1068
  612loPI    C3 9779  13.009   8.132  11.271  0.0493  0.1008 -0.0209
  612loPI   PO4 9780  13.089   8.168  10.586 -0.0642 -0.2586  0.0804
  612loPI   GL1 9781  13.083   8.069  10.141 -0.0242 -0.0949  0.1234
  612loPI   GL2 9782  13.112   8.347   9.967 -0.0879 -0.0458 -0.1284
  612loPI   C1A 9783  13.098   7.920   9.676  0.3902  0.0260 -0.2442
  612loPI   C2A 9784  13.117   7.998   9.267 -0.2084 -0.0808 -0.1927
  612loPI   C3A 9785  13.217   7.990   8.807 -0.1699 -0.0376 -0.1339
  612loPI   C4A 9786  13.087   7.999   8.423 -0.2543 -0.2141 -0.2788
  612loPI   C5A 9787  13.106   7.891   8.047 -0.1486  0.1793 -0.1451
  612loPI   C6A 9788  12.827   8.010   7.595 -0.0509 -0.0684 -0.0230
  612loPI   C1B 9789  13.233   8.397   9.603 -0.0266  0.0693 -0.0937
  612loPI   C2B 9790  13.193   8.497   9.119 -0.0318 -0.2300 -0.3622
  612loPI   C3B 9791  13.204   8.565   8.631 -0.1118  0.1655  0.2645
  612loPI   C4B 9792  13.152   8.545   8.270 -0.1757  0.0598  0.0689
  613loPI    C1 9793   5.348   2.977  10.558 -0.0890  0.1969  0.1435
  613loPI    C2 9794   5.557   2.708  10.768 -0.1512 -0.0397 -0.0928
  613loPI    C3 9795   5.494   3.074  10.918  0.1054 -0.0896  0.1448
  613loPI   PO4 9796   5.492   3.017  10.329 -0.1178  0.0130 -0.1751
  613loPI   GL1 9797   5.779   2.924  10.000 -0.1583  0.2068  0.3045
  613loPI   GL2 9798   5.681   2.657   9.815 -0.2733 -0.0529 -0.0308
  613loPI   C1A 9799   6.073   2.883   9.612 -0.3117 -0.3867 -0.3157
  613loPI   C2A 9800   6.086   2.808   9.139 -0.4348 -0.1091 -0.3581
  613loPI   C3A 9801   6.126   2.751   8.715  0.0084 -0.3398 -0.2076
  613loPI   C4A 9802   6.152   2.785   8.264 -0.0658  0.2507  0.0234
  613loPI   C5A 9803   6.085   2.719   7.775  0.0816  0.1843  0.1581
  613loPI   C6A 9804   5.827   3.068   7.501  0.1718  0.2081  0.0110
  613loPI   C1B 9805   5.609   2.643   9.383  0.0228 -0.0963  0.1293
  613loPI   C2B 9806   5.664   2.583   8.946  0.0799  0.1674 -0.0347
  613loPI   C3B 9807   5.688   2.554   8.548 -0.1976 -0.1170  0.1868
  613loPI   C4B 9808   5.734   2.586   8.117  0.1677  0.2779 -0.1122
  614loPI    C1 9809   8.476  12.471  11.411 -0.1508 -0.2608 -0.1300
  614loPI    C2 9810   8.730  12.367  11.702  0.0903 -0.0495 -0.2608
  614loPI    C3 9811   8.420  12.607  11.783  0.0042 -0.2036 -0.1268
  614loPI   PO4 9812   8.613  12.586  11.156  0.0219  0.0913 -0.0946
  614loPI   GL1 9813   8.600  12.477  10.798 -0.1078 -0.1350  0.1425
  614loPI   GL2 9814   8.386  12.597  10.493  0.0344  0.1739 -0.3174
  614loPI   C1A 9815   8.855  12.492  10.455  0.2628 -0.0236  0.4385
  614loPI   C2A 9816   8.988  12.482  10.098 -0.1321 -0.1266 -0.0720
  614loPI   C3A 9817   8.959  12.403   9.603  0.0603  0.1463  0.1766
  614loPI   C4A 9818   8.881  12.405   9.183  0.2341  0.1769 -0.1513
  614loPI   C5A 9819   8.829  12.444   8.699 -0.1035 -0.0108  0.0424
  614loPI   C6A 9820   8.661  12.482   8.272  0.5722  0.3860  0.2153
  614loPI   C1B 9821   8.522  12.790  10.052 -0.0994  0.2211  0.2941
  614loPI   C2B 9822   8.446  12.782   9.669  0.4268  0.2809  0.1102
  614loPI   C3B 9823   8.420  12.818   9.190  0.0746  0.0607  0.0007
  614loPI   C4B 9824   8.426  12.733   8.801 -0.3670 -0.1193  0.1428
  615loPI    C1 9825   4.618  14.767  10.795 -0.0228  0.1658 -0.1010
  615loPI    C2 9826   4.479  14.785  11.169 -0.3156  0.0965 -0.2040
  615loPI    C3 9827   4.762  14.519  11.074  0.1412  0.4632  0.0843
  615loPI   PO4 9828   4.734  15.033  10.787 -0.3358  0.2278 -0.4198
  615loPI   GL1 9829   5.130  15.037  10.497  0.1720 -0.3163 -0.0157
  615loPI   GL2 9830   5.033  15.373  10.494  0.1415  0.0325  0.1285
  615loPI   C1A 9831   5.312  14.706  10.214 -0.1462 -0.5120  0.1105
  615loPI   C2A 9832   5.392  14.726   9.789  0.2854  0.2897 -0.1452
  615loPI   C3A 9833   5.336  14.725   9.443  0.1173  0.1725  0.0372
  615loPI   C4A 9834   5.285  14.741   9.033 -0.0425  0.0461 -0.0454
  615loPI   C5A 9835   5.374  14.850   8.627  0.0037  0.0763 -0.1326
  615loPI   C6A 9836   5.464  15.272   8.327 -0.0271  0.0031 -0.1462
  615loPI   C1B 9837   4.792  15.122  10.149 -0.3703 -0.1092  0.2154
  615loPI   C2B 9838   4.818  15.059   9.765 -0.0161 -0.2550  0.1403
  615loPI   C3B 9839   4.911  14.971   9.362  0.3492 -0.0201 -0.0803
  615loPI   C4B 9840   4.930  15.082   8.973  0.1780  0.2961  0.0138
  616loPI    C1 9841   3.000   5.662  10.296  0.0614 -0.0850 -0.1825
  616loPI    C2 9842   2.683   5.498  10.476  0.0046  0.0900 -0.1210
  616loPI    C3 9843   2.988   5.636  10.695  0.0046  0.1625 -0.1663
  616loPI   PO4 9844   3.061   5.524  10.044 -0.0201  0.0827 -0.0417
  616loPI   GL1 9845   3.113   5.716   9.553 -0.1623  0.0708 -0.2559
  616loPI   GL2 9846   3.344   5.628   9.612  0.2020 -0.1165  0.0774
  616loPI   C1A 9847   2.827   5.611   9.289  0.1245 -0.2603 -0.0995
  616loPI   C2A 9848   2.836   5.501   8.925  0.0396 -0.0283  0.3450
  616loPI   C3A 9849   2.929   5.386   8.514  0.1045  0.0585 -0.1213
  616loPI   C4A 9850   3.059   5.352   8.131  0.1430 -0.3121 -0.1588
  616loPI   C5A 9851   3.028   5.568   7.744 -0.0765  0.2440  0.3151
  616loPI   C6A 9852   2.931   5.718   7.389  0.0896 -0.0903 -0.0465
  616loPI   C1B 9853   3.312   5.449   9.142  0.0585  0.2040  0.2818
  616loPI   C2B 9854   3.353   5.510   8.688 -0.0465 -0.0635  0.1586
  616loPI   C3B 9855   3.453   5.642   8.307  0.1381 -0.0261  0.3099
  616loPI   C4B 9856   3.432   5.699   7.994 -0.0445  0.3168  0.0987
  617loPI    C1 9857   4.449  10.717  11.029  0.2080 -0.0238  0.2823
  617loPI    C2 9858   4.675  10.988  10.840  0.0491 -0.0755  0.0123
  617loPI    C3 9859   4.600  11.028  11.231 -0.1316  0.3792 -0.0625
  617loPI   PO4 9860   4.527  10.521  10.879  0.1853  0.1940 -0.1706
  617loPI   GL1 9861   4.528  10.403  10.409 -0.1083  0.1315 -0.1495
  617loPI   GL2 9862   4.799  10.171  10.289  0.0024 -0.0661  0.1740
  617loPI   C1A 9863   4.287  10.469   9.945 -0.2098 -0.2832  0.3158
  617loPI   C2A 9864   4.350  10.552   9.532 -0.0464  0.3336  0.3104
  617loPI   C3A 9865   4.243  10.578   9.216 -0.0561 -0.0073 -0.0016
  617loPI   C4A 9866   4.366  10.564   8.858  0.4270  0.3540  0.0679
  617loPI   C5A 9867   4.357  10.685   8.453  0.2763 -0.1023 -0.1807
  617loPI   C6A 9868   4.549  10.954   8.213  0.1301 -0.1299 -0.0954
  617loPI   C1B 9869   4.722  10.193   9.833  0.3413  0.0824  0.3935
  617loPI   C2B 9870   4.778  10.235   9.381  0.1730 -0.2203  0.0104
  617loPI   C3B 9871   4.790  10.303   8.898 -0.1825  0.1453  0.1542
  617loPI   C4B 9872   4.848  10.460   8.486 -0.1738  0.1205  0.1192
  618loPI    C1 9873  16.236  16.316  10.824 -0.2093 -0.0332  0.0759
  618loPI    C2 9874  16.561  16.544  10.775 -0.3168  0.1022 -0.0168
  618loPI    C3 9875  16.571  16.234  11.028 -0.1605  0.1921  0.0895
  618loPI   PO4 9876  16.192  16.233  10.518  0.1158  0.1374 -0.3230
  618loPI   GL1 9877  15.866  16.208  10.163 -0.2464 -0.0115  0.0957
  618loPI   GL2 9878  15.617  16.042  10.134  0.1479  0.0949 -0.0807
  618loPI   C1A 9879  16.158  16.323   9.786 -0.1070  0.3764  0.0828
  618loPI   C2A 9880  16.228  16.261   9.405  0.0243 -0.2072  0.0872
  618loPI   C3A 9881  16.176  16.305   9.041  0.1888  0.2913 -0.0149
  618loPI   C4A 9882  16.190  16.364   8.628 -0.2129  0.4569 -0.0938
  618loPI   C5A 9883  16.447  16.332   8.137 -0.2929  0.2635  0.1122
  618loPI   C6A 9884  16.534  16.724   7.934  0.1117 -0.0687 -0.0415
  618loPI   C1B 9885  15.719  16.013   9.716  0.2047  0.1677  0.0820
  618loPI   C2B 9886  15.714  16.065   9.253 -0.0339  0.0960 -0.1763
  618loPI   C3B 9887  15.750  16.118   8.828  0.0244  0.1418  0.1549
  618loPI   C4B 9888  15.737  16.111   8.380  0.1732  0.1301  0.0445
  619loPI    C1 9889  14.787   1.576  10.498  0.1533 -0.2620  0.0572
  619loPI    C2 9890  15.111   1.620  10.268  0.1183 -0.0562  0.0452
  619loPI    C3 9891  15.146   1.469  10.637  0.2092 -0.1531 -0.0026
  619loPI   PO4 9892  14.617   1.520  10.315 -0.3630 -0.0873  0.1867
  619loPI   GL1 9893  14.700   1.775   9.966 -0.0444  0.0510  0.0228
  619loPI   GL2 9894  14.968   1.845   9.815  0.1065  0.0418  0.0768
  619loPI   C1A 9895  14.577   1.685   9.546 -0.0429 -0.0949 -0.1163
  619loPI   C2A 9896  14.673   1.669   9.077  0.3118  0.0817  0.2122
  619loPI   C3A 9897  14.570   1.602   8.691  0.0023  0.0812 -0.2254
  619loPI   C4A 9898  14.623   1.661   8.363  0.2028  0.0440 -0.2353
  619loPI   C5A 9899  14.488   2.047   8.030 -0.0620  0.0976  0.0623
  619loPI   C6A 9900  14.517   2.179   7.599  0.4504  0.1257  0.0684
  619loPI   C1B 9901  15.058   1.952   9.484 -0.1167  0.3133  0.4794
  619loPI   C2B 9902  15.013   1.933   8.963 -0.1452 -0.0612  0.0349
  619loPI   C3B 9903  15.059   1.846   8.531  0.0285 -0.0437  0.0181
  619loPI   C4B 9904  14.984   1.876   8.072  0.1116 -0.0738  0.1583
  620loPI    C1 9905  12.678   4.312  10.552 -0.0666  0.1033 -0.0592
  620loPI    C2 9906  12.527   4.347  10.921 -0.1324  0.0131 -0.0775
  620loPI    C3 9907  12.886   4.501  10.837 -0.1018  0.0028  0.0338
  620loPI   PO4 9908  12.501   4.384  10.412 -0.3042  0.4545 -0.1504
  620loPI   GL1 9909  12.397   4.158  10.029  0.0391  0.0324 -0.2983
  620loPI   GL2 9910  12.256   3.847  10.071 -0.0788  0.1709 -0.0302
  620loPI   C1A 9911  12.537   4.159   9.531 -0.1082 -0.0381  0.2243
  620loPI   C2A 9912  12.535   4.133   9.067 -0.0088  0.1766  0.1993
  620loPI   C3A 9913  12.541   4.206   8.633  0.0501 -0.2660 -0.1185
  620loPI   C4A 9914  12.467   4.283   8.240 -0.0778  0.0097 -0.0536
  620loPI   C5A 9915  12.440   4.187   7.812  0.1706  0.0462 -0.0594
  620loPI   C6A 9916  12.733   4.070   7.687  0.0192 -0.0076  0.1048
  620loPI   C1B 9917  12.383   3.620   9.670 -0.3644 -0.2025  0.4780
  620loPI   C2B 9918  12.511   3.612   9.204 -0.2629  0.1435 -0.1397
  620loPI   C3B 9919  12.469   3.574   8.817  0.0866 -0.1120  0.0486
  620loPI   C4B 9920  12.424   3.741   8.505 -0.0071  0.1179 -0.2958
  621loPI    C1 9921   8.117  15.000  10.984  0.2123  0.0161 -0.1008
  621loPI    C2 9922   8.072  15.269  11.277  0.0877 -0.1270  0.0133
  621loPI    C3 9923   8.345  14.979  11.312  0.1069 -0.1148 -0.0351
  621loPI   PO4 9924   8.050  15.227  10.797  0.2045 -0.2073  0.0203
  621loPI   GL1 9925   8.030  15.108  10.444  0.0273 -0.0236  0.1214
  621loPI   GL2 9926   7.877  15.405  10.332 -0.0920 -0.0776  0.2021
  621loPI   C1A 9927   8.047  15.143   9.953  0.2738 -0.0668  0.0641
  621loPI   C2A 9928   8.083  15.297   9.509 -0.0604  0.2571 -0.1662
  621loPI   C3A 9929   8.077  15.130   9.156 -0.2290 -0.1291  0.0896
  621loPI   C4A 9930   8.030  15.183   8.752  0.0851 -0.2879 -0.2999
  621loPI   C5A 9931   8.078  15.140   8.408  0.0791  0.2417  0.1432
  621loPI   C6A 9932   8.393  15.054   8.157 -0.5212  0.3804  0.1160
  621loPI   C1B 9933   7.657  15.449   9.975  0.3153 -0.2749  0.1187
  621loPI   C2B 9934   7.624  15.443   9.500 -0.1017  0.1041 -0.5792
  621loPI   C3B 9935   7.651  15.481   8.991 -0.3593 -0.0037  0.2674
  621loPI   C4B 9936   7.550  15.595   8.499  0.2346 -0.4720  0.1649
  622loPI    C1 9937  17.083   4.734  10.471  0.4279 -0.0418 -0.1794
  622loPI    C2 9938  17.022   4.729  10.866 -0.0364 -0.0143 -0.2459
  622loPI    C3 9939  17.162   4.403  10.681 -0.0263 -0.0994 -0.0895
  622loPI   PO4 9940  16.930   4.857  10.378 -0.0316  0.1020 -0.1580
  622loPI   GL1 9941  16.929   4.848   9.908 -0.1455  0.3250 -0.3789
  622loPI   GL2 9942  17.034   5.112   9.711  0.0503 -0.0643  0.1802
  622loPI   C1A 9943  16.840   4.760   9.406 -0.0881  0.3460 -0.0485
  622loPI   C2A 9944  16.667   4.778   9.025  0.1818 -0.0222  0.1748
  622loPI   C3A 9945  16.556   4.699   8.589  0.1930  0.0555  0.0099
  622loPI   C4A 9946  16.641   4.653   8.201 -0.2376 -0.0057 -0.0201
  622loPI   C5A 9947  16.559   4.702   7.714 -0.1259 -0.2181  0.1577
  622loPI   C6A 9948  16.383   4.581   7.315 -0.0850  0.2431  0.2605
  622loPI   C1B 9949  17.237   5.095   9.344 -0.1797 -0.1238  0.0876
  622loPI   C2B 9950  17.092   5.008   8.941 -0.4092 -0.1585  0.2797
  622loPI   C3B 9951  17.069   4.894   8.529 -0.0546  0.2787 -0.2892
  622loPI   C4B 9952  17.092   4.886   8.014  0.2557  0.3370 -0.0042
  623loPI    C1 9953  16.210  17.414  10.762  0.2904 -0.1939 -0.0209
  623loPI    C2 9954  16.060  17.366  11.129  0.1394 -0.3141 -0.0971
  623loPI    C3 9955  16.350  17.633  11.065 -0.1504  0.0388  0.0237
  623loPI   PO4 9956  15.958  17.566  10.616 -0.2045  0.1743  0.4825
  623loPI   GL1 9957  15.768  17.444  10.204  0.4343 -0.0684 -0.2486
  623loPI   GL2 9958  15.748  17.124  10.099  0.2564  0.0616  0.4653
  623loPI   C1A 9959  15.863  17.523   9.801  0.0239  0.0005  0.1203
  623loPI   C2A 9960  15.765  17.579   9.424  0.5077  0.2621  0.0934
  623loPI   C3A 9961  15.826  17.623   8.944  0.0827  0.0050  0.1312
  623loPI   C4A 9962  15.738  17.592   8.460 -0.0464 -0.0287 -0.2111
  623loPI   C5A 9963  15.835  17.636   8.053 -0.1288  0.0229  0.1929
  623loPI   C6A 9964  16.040  17.522   7.628 -0.2998 -0.3192 -0.1650
  623loPI   C1B 9965  15.806  17.024   9.605 -0.0695 -0.1082  0.2696
  623loPI   C2B 9966  15.824  17.102   9.191 -0.1196 -0.0236 -0.0099
  623loPI   C3B 9967  15.751  17.040   8.819 -0.1190 -0.0105  0.0325
  623loPI   C4B 9968  15.776  17.140   8.328  0.0340  0.0612  0.0843
  624loPI    C1 9969   2.251  13.270  11.071 -0.0761  0.1474 -0.0924
  624loPI    C2 9970   2.305  12.953  11.309  0.0824  0.0234 -0.2904
  624loPI    C3 9971   2.174  13.298  11.463  0.3010 -0.0180 -0.0019
  624loPI   PO4 9972   2.425  13.227  10.846  0.2994  0.1560 -0.0303
  624loPI   GL1 9973   2.402  12.980  10.537 -0.0387 -0.1248 -0.4563
  624loPI   GL2 9974   2.136  12.930  10.397  0.2205 -0.1442  0.0544
  624loPI   C1A 9975   2.613  13.205  10.281  0.1630  0.0606 -0.2099
  624loPI   C2A 9976   2.730  13.247   9.837 -0.1291 -0.0540  0.1920
  624loPI   C3A 9977   2.656  13.216   9.415 -0.0983  0.0217 -0.1311
  624loPI   C4A 9978   2.612  13.424   9.051  0.2647 -0.0583 -0.2216
  624loPI   C5A 9979   2.588  13.504   8.566 -0.1153 -0.3021 -0.1536
  624loPI   C6A 9980   2.436  13.508   8.147 -0.0754 -0.0662 -0.1632
  624loPI   C1B 9981   2.245  13.010   9.941 -0.0017 -0.0568 -0.1013
  624loPI   C2B 9982   2.207  13.087   9.510  0.2242 -0.0710  0.3225
  624loPI   C3B 9983   2.203  13.002   9.071  0.2653 -0.1950  0.2302
  624loPI   C4B 9984   2.170  13.163   8.618  0.0024  0.2076  0.1708
  625loPI    C1 9985  17.210   2.898  10.380 -0.0533  0.1376  0.0371
  625loPI    C2 9986  17.290   3.073  10.731  0.1240 -0.0264  0.0802
  625loPI    C3 9987  17.438   2.710  10.650 -0.0671 -0.0678 -0.0919
  625loPI   PO4 9988  17.225   3.101  10.221 -0.0530  0.1619 -0.1502
  625loPI   GL1 9989  17.087   3.162   9.899 -0.0512  0.3042  0.2003
  625loPI   GL2 9990  16.901   3.442   9.776  0.0921 -0.1379  0.1288
  625loPI   C1A 9991  17.002   2.931   9.552  0.2596 -0.2682 -0.1541
  625loPI   C2A 9992  16.970   2.849   9.055  0.0338  0.2053  0.0933
  625loPI   C3A 9993  16.981   2.823   8.652  0.0350 -0.0829 -0.0052
  625loPI   C4A 9994  16.993   2.835   8.193  0.2465  0.2117  0.1093
  625loPI   C5A 9995  16.823   2.687   7.817  0.1160 -0.1825 -0.3999
  625loPI   C6A 9996  16.677   2.484   7.462  0.3183  0.0566  0.1378
  625loPI   C1B 9997  16.937   3.457   9.410 -0.4124 -0.4379  0.0011
  625loPI   C2B 9998  17.040   3.377   8.948  0.0788 -0.1055 -0.0421
  625loPI   C3B 9999  16.987   3.304   8.557 -0.1083 -0.0598 -0.1099
  625loPI   C4B10000  17.029   3.316   8.140 -0.0818 -0.1241  0.1248
  626loPI    C110001  12.223  18.307  10.729  0.0246 -0.2874  0.0685
  626loPI    C210002  11.993  18.151  11.016  0.0098 -0.0887  0.1666
  626loPI    C310003  12.337  18.331  11.111 -0.0800  0.1327  0.0779
  626loPI   PO410004  11.970  18.410  10.498 -0.2196 -0.2229 -0.3348
  626loPI   GL110005  11.938  18.505  10.088 -0.1831  0.1262  0.2078
  626loPI   GL210006  12.300  18.768  10.084 -0.0821 -0.2657  0.1667
  626loPI   C1A10007  11.855  18.632   9.729 -0.0548 -0.0675 -0.2286
  626loPI   C2A10008  11.816  18.690   9.247 -0.0090 -0.0976  0.0443
  626loPI   C3A10009  11.813  18.696   8.785 -0.0830  0.0911  0.0833
  626loPI   C4A10010  11.786  18.804   8.313 -0.1531  0.1920  0.0334
  626loPI   C5A10011  11.765  18.918   7.927 -0.0704 -0.1051  0.1128
  626loPI   C6A10012  11.661  19.251   7.639 -0.4345 -0.0312 -0.0764
  626loPI   C1B10013  12.303  18.879   9.650  0.2346  0.1061  0.1241
  626loPI   C2B10014  12.357  18.920   9.267 -0.1605 -0.0133 -0.0169
  626loPI   C3B10015  12.341  18.899   8.818  0.0039 -0.0991 -0.1276
  626loPI   C4B10016  12.259  18.956   8.374 -0.2261  0.0783  0.0462
  627loPI    C110017   0.167   8.343  10.629 -0.1504 -0.0247 -0.2412
  627loPI    C210018  -0.105   8.101  10.796 -0.2440  0.1127 -0.1922
  627loPI    C310019   0.009   8.435  10.985 -0.0986  0.0961 -0.2489
  627loPI   PO410020   0.240   8.139  10.376 -0.3192 -0.0423 -0.0228
  627loPI   GL110021   0.418   8.130   9.955 -0.0513 -0.0113  0.0371
  627loPI   GL210022   0.410   8.453   9.764 -0.1422  0.0202  0.1691
  627loPI   C1A10023   0.394   7.903   9.519  0.2668 -0.1729  0.0275
  627loPI   C2A10024   0.404   7.884   9.111  0.3958  0.2802  0.2206
  627loPI   C3A10025   0.388   7.917   8.824  0.2217 -0.0316  0.2289
  627loPI   C4A10026   0.252   7.879   8.472 -0.2593  0.0485  0.1759
  627loPI   C5A10027   0.093   7.874   8.120 -0.0823  0.1393 -0.0533
  627loPI   C6A10028   0.008   7.674   7.683  0.0100 -0.0617  0.2211
  627loPI   C1B10029   0.410   8.409   9.323  0.2253  0.0554  0.1117
  627loPI   C2B10030   0.431   8.405   8.837 -0.1489  0.1656 -0.1344
  627loPI   C3B10031   0.294   8.439   8.509  0.2024 -0.1971 -0.0058
  627loPI   C4B10032   0.247   8.480   8.106  0.4000 -0.1159 -0.1297
  628loPI    C110033  11.280   4.411  10.940 -0.3873  0.2971 -0.0256
  628loPI    C210034  11.394   4.603  11.272 -0.2405  0.1448  0.0129
  628loPI    C310035  11.252   4.229  11.295  0.1000  0.0016 -0.1289
  628loPI   PO410036  11.146   4.643  10.848 -0.0466 -0.1447 -0.1351
  628loPI   GL110037  11.066   4.667  10.457 -0.0437 -0.1897 -0.1212
  628loPI   GL210038  11.096   5.042  10.358  0.1872  0.3296  0.2056
  628loPI   C1A10039  11.122   4.464  10.020  0.1994  0.1371 -0.0024
  628loPI   C2A10040  11.074   4.411   9.579  0.0976 -0.1116  0.2129
  628loPI   C3A10041  11.163   4.430   9.085  0.0183  0.2401 -0.0306
  628loPI   C4A10042  11.116   4.457   8.622  0.3028 -0.3178 -0.2048
  628loPI   C5A10043  11.152   4.410   8.220  0.0973  0.0768  0.1882
  628loPI   C6A10044  10.969   4.485   7.850  0.0270 -0.1567  0.0471
  628loPI   C1B10045  11.100   5.006   9.927 -0.1953  0.0996  0.0772
  628loPI   C2B10046  11.183   4.987   9.522  0.1179  0.0518  0.1420
  628loPI   C3B10047  11.144   5.004   9.077 -0.4103  0.3374  0.0497
  628loPI   C4B10048  11.116   4.948   8.585  0.0411  0.1334 -0.0479
  629loPI    C110049   6.533  14.040  11.183 -0.0526 -0.1685 -0.2382
  629loPI    C210050   6.848  13.950  10.953  0.3276  0.0090  0.1966
  629loPI    C310051   6.802  13.771  11.308 -0.1709 -0.1527  0.0593
  629loPI   PO410052   6.399  14.115  11.003  0.1307 -0.1401  0.1318
  629loPI   GL110053   6.300  14.047  10.665  0.1015 -0.1990 -0.2345
  629loPI   GL210054   6.579  13.844  10.479 -0.0101  0.1035 -0.0316
  629loPI   C1A10055   6.094  14.147  10.252 -0.1958  0.1287  0.1136
  629loPI   C2A10056   6.277  14.181   9.834  0.0699 -0.1472 -0.1275
  629loPI   C3A10057   6.193  14.207   9.306  0.1161 -0.3510 -0.0174
  629loPI   C4A10058   6.119  14.180   8.938 -0.3971 -0.2168 -0.2429
  629loPI   C5A10059   6.122  14.225   8.520 -0.1288  0.1497  0.1180
  629loPI   C6A10060   6.234  14.107   7.978 -0.0313 -0.0347  0.0602
  629loPI   C1B10061   6.651  13.885  10.005 -0.0846  0.2120  0.0348
  629loPI   C2B10062   6.722  13.921   9.591  0.1673  0.1333 -0.0967
  629loPI   C3B10063   6.632  13.888   9.190  0.0499  0.2381 -0.1283
  629loPI   C4B10064   6.685  13.978   8.769  0.3442  0.0473 -0.2632
  630loPI    C110065  13.473   2.554  10.285  0.1682  0.0055  0.0532
  630loPI    C210066  13.110   2.390  10.324  0.2016 -0.0802  0.0072
  630loPI    C310067  13.415   2.255  10.544  0.2019  0.0041  0.0592
  630loPI   PO410068  13.467   2.573  10.045  0.0541 -0.0544  0.1762
  630loPI   GL110069  13.209   2.710   9.825  0.0386  0.1458 -0.4652
  630loPI   GL210070  13.014   3.033   9.766 -0.5477  0.1896 -0.1595
  630loPI   C1A10071  13.271   2.512   9.458 -0.1620  0.1859  0.0654
  630loPI   C2A10072  13.438   2.517   9.034 -0.1473 -0.1385 -0.0268
  630loPI   C3A10073  13.429   2.504   8.561 -0.1980  0.0698 -0.0833
  630loPI   C4A10074  13.302   2.596   8.141 -0.3612  0.0783 -0.0008
  630loPI   C5A10075  13.339   2.553   7.717 -0.5216  0.0167  0.0372
  630loPI   C6A10076  13.291   2.657   7.264  0.1319  0.2352  0.0065
  630loPI   C1B10077  13.315   2.978   9.395 -0.1350  0.1628  0.1107
  630loPI   C2B10078  13.394   3.030   8.935 -0.0470 -0.1100  0.1028
  630loPI   C3B10079  13.409   3.052   8.406 -0.3965  0.0512 -0.1508
  630loPI   C4B10080  13.332   3.131   8.017  0.0216 -0.1364 -0.2213
  631loPI    C110081   3.559   5.109   9.783  0.2321  0.2268 -0.0189
  631loPI    C210082   3.321   5.090  10.103  0.1511  0.2719 -0.0761
  631loPI    C310083   3.163   5.139   9.739  0.2244 -0.0453 -0.1537
  631loPI   PO410084   3.751   5.021   9.823 -0.2487  0.5337  0.0926
  631loPI   GL110085   3.968   4.970   9.513 -0.1878  0.1231 -0.0887
  631loPI   GL210086   3.790   4.775   9.360 -0.0843  0.0875  0.1215
  631loPI   C1A10087   4.264   5.162   9.347 -0.1668  0.2720 -0.2151
  631loPI   C2A10088   4.655   5.375   9.082 -0.1620  0.0271  0.2737
  631loPI   C3A10089   4.644   5.255   8.748 -0.0608 -0.3328  0.0715
  631loPI   C4A10090   4.389   5.009   8.538  0.1734 -0.0391  0.2253
  631loPI   C5A10091   4.223   5.068   8.157 -0.1865  0.1199  0.1641
  631loPI   C6A10092   3.920   5.144   7.794 -0.1133  0.2144 -0.0923
  631loPI   C1B10093   4.064   4.923   8.928 -0.4338 -0.3624 -0.1158
  631loPI   C2B10094   3.940   4.806   8.488  0.0307 -0.0915 -0.0897
  631loPI   C3B10095   3.798   4.741   8.074  0.0093 -0.1191  0.1429
  631loPI   C4B10096   3.564   4.740   7.691 -0.0069  0.0486  0.1153
  632loPI    C110097  12.698  11.163  11.024 -0.0824  0.1928 -0.1896
  632loPI    C210098  12.783  11.411  11.326  0.0855 -0.1660  0.0648
  632loPI    C310099  12.402  11.333  11.232  0.0295  0.2719 -0.0938
  632loPI   PO410100  12.923  11.259  10.786 -0.1204  0.0270  0.1135
  632loPI   GL110101  12.981  11.118  10.404  0.2082  0.1925  0.1726
  632loPI   GL210102  12.833  10.851  10.137 -0.3194  0.1085  0.2553
  632loPI   C1A10103  13.329  11.125  10.191 -0.0289  0.2073  0.2363
  632loPI   C2A10104  13.353  11.216   9.788 -0.0482 -0.1858  0.1987
  632loPI   C3A10105  13.351  11.143   9.339  0.0396  0.0686  0.0549
  632loPI   C4A10106  13.236  11.200   8.925 -0.1445  0.0765 -0.0379
  632loPI   C5A10107  13.385  11.257   8.490 -0.0385 -0.1714 -0.2561
  632loPI   C6A10108  13.337  11.565   8.091 -0.4035 -0.0406 -0.1902
  632loPI   C1B10109  12.878  10.932   9.677  0.1355  0.0092  0.0159
  632loPI   C2B10110  12.803  10.971   9.208  0.1509 -0.1044  0.0599
  632loPI   C3B10111  12.796  10.970   8.782 -0.0256 -0.0731  0.2103
  632loPI   C4B10112  12.713  10.959   8.419  0.1063  0.2298 -0.2249
  633loPI    C110113  15.246  13.044  11.094 -0.2717 -0.0524  0.1189
  633loPI    C210114  15.557  12.861  11.267 -0.2093  0.1429  0.2159
  633loPI    C310115  15.200  12.862  11.447 -0.2693 -0.0876  0.1011
  633loPI   PO410116  15.245  12.942  10.749 -0.0422 -0.0129  0.2338
  633loPI   GL110117  15.262  13.099  10.372 -0.1725 -0.1241 -0.0394
  633loPI   GL210118  15.281  12.658  10.369 -0.1216  0.1913 -0.3201
  633loPI   C1A10119  15.176  13.279   9.904  0.0376 -0.0432 -0.0364
  633loPI   C2A10120  15.174  13.292   9.436 -0.3342  0.3907  0.2388
  633loPI   C3A10121  15.220  13.217   8.980 -0.0374 -0.1792  0.1093
  633loPI   C4A10122  15.273  13.136   8.562 -0.2676 -0.1075 -0.0373
  633loPI   C5A10123  15.132  13.095   8.203 -0.1111  0.4098 -0.0217
  633loPI   C6A10124  15.055  12.772   7.898 -0.0517 -0.2002  0.2079
  633loPI   C1B10125  15.216  12.763   9.943 -0.3257  0.3478 -0.2812
  633loPI   C2B10126  15.194  12.756   9.508  0.2798 -0.2037 -0.1432
  633loPI   C3B10127  15.210  12.566   9.078 -0.1842  0.2363  0.0195
  633loPI   C4B10128  15.261  12.626   8.634  0.0205 -0.1341 -0.0357
  634loPI    C110129   5.878   0.559  11.024  0.2929  0.0630  0.0567
  634loPI    C210130   5.874   0.210  11.221  0.1255  0.1079  0.1352
  634loPI    C310131   6.208   0.431  11.210  0.2084 -0.0157  0.1537
  634loPI   PO410132   5.831   0.555  10.779  0.2851 -0.0343 -0.0087
  634loPI   GL110133   5.892   0.358  10.342  0.1951 -0.1135 -0.2069
  634loPI   GL210134   6.174   0.363  10.245 -0.1377 -0.3486  0.1505
  634loPI   C1A10135   5.642   0.577  10.059 -0.2123 -0.1510  0.2457
  634loPI   C2A10136   5.609   0.552   9.529 -0.0332 -0.0741 -0.0598
  634loPI   C3A10137   5.561   0.506   9.039  0.1543  0.0872  0.0257
  634loPI   C4A10138   5.607   0.496   8.584 -0.2026  0.1460  0.0236
  634loPI   C5A10139   5.631   0.563   8.176  0.2159 -0.3478 -0.0815
  634loPI   C6A10140   5.655   0.537   7.742  0.1657  0.1801 -0.2958
  634loPI   C1B10141   6.007   0.399   9.799  0.2303  0.1225 -0.0806
  634loPI   C2B10142   6.002   0.276   9.384 -0.2164  0.0332  0.3771
  634loPI   C3B10143   5.933   0.126   8.873 -0.0858 -0.0832  0.2196
  634loPI   C4B10144   5.980   0.233   8.387 -0.0372  0.0327  0.0181
  635loPI    C110145   9.168   2.246  10.886  0.1713 -0.2430 -0.3960
  635loPI    C210146   9.486   2.439  10.740  0.1720 -0.0726 -0.1754
  635loPI    C310147   9.529   2.189  11.050  0.0433  0.2009  0.0675
  635loPI   PO410148   8.919   2.303  10.665  0.1493 -0.1707  0.1722
  635loPI   GL110149   9.045   2.161  10.343 -0.1677  0.2375  0.0422
  635loPI   GL210150   8.718   2.212  10.169 -0.0556 -0.0684  0.0356
  635loPI   C1A10151   9.140   1.887   9.974 -0.1536  0.0781  0.2116
  635loPI   C2A10152   9.221   1.954   9.570  0.1941  0.0314 -0.0072
  635loPI   C3A10153   9.170   1.985   9.162  0.1724 -0.0239 -0.2801
  635loPI   C4A10154   9.270   2.030   8.755  0.0562 -0.0130 -0.1472
  635loPI   C5A10155   9.115   1.915   8.382  0.0036 -0.0352 -0.0789
  635loPI   C6A10156   8.854   1.852   8.040 -0.1614  0.1227  0.3116
  635loPI   C1B10157   8.841   2.217   9.736 -0.0536 -0.2457 -0.2124
  635loPI   C2B10158   8.686   2.303   9.401 -0.1190 -0.1539  0.1662
  635loPI   C3B10159   8.770   2.311   8.971 -0.0332  0.1518 -0.1611
  635loPI   C4B10160   8.771   2.198   8.550  0.0291 -0.0199 -0.1923
  636loPI    C110161   5.326   3.479  10.474  0.0094 -0.0583 -0.2081
  636loPI    C210162   5.000   3.325  10.649 -0.0109  0.1500 -0.0589
  636loPI    C310163   5.236   3.577  10.851  0.2512 -0.0088 -0.1619
  636loPI   PO410164   5.330   3.540  10.302 -0.0890  0.5076  0.0493
  636loPI   GL110165   5.430   3.348   9.908  0.4287 -0.1141 -0.1370
  636loPI   GL210166   5.559   3.653   9.807  0.1407 -0.0498  0.1854
  636loPI   C1A10167   5.632   3.178   9.502 -0.0400 -0.2218  0.0980
  636loPI   C2A10168   5.681   3.072   9.111 -0.1348  0.0021 -0.1826
  636loPI   C3A10169   5.668   3.072   8.736  0.1815  0.1323 -0.1115
  636loPI   C4A10170   5.669   3.211   8.264  0.2563  0.1227 -0.1247
  636loPI   C5A10171   5.898   3.333   7.876  0.1465 -0.0500 -0.0324
  636loPI   C6A10172   6.118   3.726   7.665 -0.2150 -0.1378  0.0028
  636loPI   C1B10173   5.639   3.717   9.392 -0.1028  0.0167 -0.2850
  636loPI   C2B10174   5.737   3.567   9.003 -0.2528 -0.0227 -0.2604
  636loPI   C3B10175   5.648   3.637   8.543  0.1132  0.0531  0.3042
  636loPI   C4B10176   5.828   3.735   8.123 -0.0636  0.2413 -0.2521
  637loPI    C110177  15.597  15.429  11.168 -0.3018  0.1001 -0.1685
  637loPI    C210178  15.383  15.375  11.502  0.0518 -0.1296  0.0276
  637loPI    C310179  15.529  15.737  11.415  0.1134 -0.1067  0.2204
  637loPI   PO410180  15.363  15.361  10.955 -0.2525  0.1765 -0.0660
  637loPI   GL110181  15.259  15.529  10.546 -0.3267 -0.3067  0.2639
  637loPI   GL210182  15.248  15.777  10.331 -0.2123  0.1414  0.3215
  637loPI   C1A10183  15.261  15.252  10.167 -0.3332 -0.0644  0.2652
  637loPI   C2A10184  15.197  15.247   9.689  0.1574  0.0001 -0.0149
  637loPI   C3A10185  15.287  15.237   9.281  0.0296  0.2426  0.0681
  637loPI   C4A10186  15.284  15.345   8.882  0.0517 -0.1254 -0.0309
  637loPI   C5A10187  15.301  15.184   8.382 -0.0865  0.0864 -0.2622
  637loPI   C6A10188  15.536  15.206   8.023  0.0578  0.1108 -0.0954
  637loPI   C1B10189  15.196  15.763   9.818 -0.1242  0.5261  0.0270
  637loPI   C2B10190  15.284  15.837   9.350 -0.0922 -0.3587  0.2701
  637loPI   C3B10191  15.293  15.893   8.892  0.1616  0.2049 -0.2683
  637loPI   C4B10192  15.236  15.928   8.513  0.1876 -0.0668 -0.0852
  638loPI    C110193   1.447   0.837  10.737  0.1888  0.2436  0.0116
  638loPI    C210194   1.356   0.665  11.086  0.0481  0.0438 -0.1211
  638loPI    C310195   1.699   0.867  11.045  0.0532  0.0912  0.1390
  638loPI   PO410196   1.228   0.715  10.635 -0.1306 -0.2767  0.0507
  638loPI   GL110197   1.178   0.485  10.229  0.2101 -0.0472 -0.2557
  638loPI   GL210198   0.933   0.734  10.164 -0.1405  0.1035  0.0924
  638loPI   C1A10199   1.190   0.467   9.799  0.1524  0.0855  0.0195
  638loPI   C2A10200   1.492   0.542   9.469  0.2456  0.1998 -0.1885
  638loPI   C3A10201   1.417   0.516   9.013  0.2007 -0.0915 -0.1815
  638loPI   C4A10202   1.548   0.415   8.641 -0.4426  0.0579  0.1783
  638loPI   C5A10203   1.543   0.260   8.090 -0.1085  0.0360 -0.0788
  638loPI   C6A10204   1.657   0.079   7.729  0.0361  0.2388 -0.2699
  638loPI   C1B10205   1.050   0.942   9.782  0.0376 -0.2342  0.0359
  638loPI   C2B10206   1.014   0.816   9.391 -0.0128 -0.2964  0.3399
  638loPI   C3B10207   1.004   0.819   8.951 -0.0685  0.1458  0.0527
  638loPI   C4B10208   0.955   0.586   8.592  0.3726  0.2156 -0.6149
  639loPI    C110209   2.970   3.682  10.170  0.1215 -0.0613  0.1087
  639loPI    C210210   2.789   3.741  10.521 -0.0537 -0.0452  0.0168
  639loPI    C310211   2.731   3.399  10.322 -0.1270  0.0337 -0.0983
  639loPI   PO410212   3.067   3.913  10.136 -0.1008 -0.0318  0.1060
  639loPI   GL110213   3.123   4.013   9.797 -0.0667  0.0622  0.1521
  639loPI   GL210214   3.220   4.187   9.600 -0.0508 -0.0250  0.1797
  639loPI   C1A10215   2.902   3.857   9.363  0.2279 -0.2427  0.0178
  639loPI   C2A10216   2.998   3.774   8.970  0.1371  0.2009 -0.1408
  639loPI   C3A10217   2.897   3.842   8.493 -0.1282  0.4639 -0.2137
  639loPI   C4A10218   2.907   3.663   8.112  0.2146 -0.0029 -0.0560
  639loPI   C5A10219   2.771   3.584   7.721 -0.1451  0.1088 -0.1147
  639loPI   C6A10220   2.415   3.552   7.549 -0.0136 -0.5240 -0.0168
  639loPI   C1B10221   3.384   4.006   9.285  0.0512 -0.0216 -0.1118
  639loPI   C2B10222   3.454   4.015   8.927  0.2364  0.1929  0.1653
  639loPI   C3B10223   3.517   4.055   8.496 -0.0905 -0.0571  0.2193
  639loPI   C4B10224   3.430   3.924   8.135  0.2769  0.0971 -0.0455
  640loPI    C110225  13.471   8.867  10.658  0.1523  0.0498  0.1629
  640loPI    C210226  13.659   9.066  10.950  0.2794  0.1662  0.0039
  640loPI    C310227  13.833   8.747  10.781  0.0969 -0.0549  0.2250
  640loPI   PO410228  13.301   9.049  10.510  0.0641 -0.1068  0.2120
  640loPI   GL110229  13.349   9.355  10.216  0.0956  0.0050 -0.0500
  640loPI   GL210230  13.062   9.299  10.076  0.5340  0.3967  0.0566
  640loPI   C1A10231  13.634   9.261   9.831  0.2539 -0.0684  0.0025
  640loPI   C2A10232  13.672   9.367   9.500  0.0292 -0.0441  0.2249
  640loPI   C3A10233  13.632   9.364   9.061  0.3822  0.0357  0.2461
  640loPI   C4A10234  13.658   9.284   8.615  0.4089 -0.3213 -0.2936
  640loPI   C5A10235  13.639   9.437   8.160 -0.1496 -0.1361  0.0618
  640loPI   C6A10236  13.883   9.507   7.832 -0.2072  0.0059 -0.0611
  640loPI   C1B10237  12.790   9.323   9.725  0.3325 -0.1602  0.1900
  640loPI   C2B10238  12.738   9.392   9.288  0.0376  0.1218 -0.3242
  640loPI   C3B10239  12.790   9.356   8.882  0.0103  0.0673  0.2410
  640loPI   C4B10240  12.715   9.480   8.438  0.0439 -0.2530  0.1511
  641loPI    C110241   2.901   8.166  10.878 -0.1676  0.3742  0.0109
  641loPI    C210242   2.826   8.443  11.157  0.0706  0.2649  0.1856
  641loPI    C310243   3.125   8.182  11.208 -0.1289 -0.0040  0.0066
  641loPI   PO410244   2.956   8.272  10.582  0.2267 -0.0753  0.0995
  641loPI   GL110245   2.767   8.272  10.177  0.1069  0.0532 -0.0337
  641loPI   GL210246   2.946   7.965  10.087  0.0122 -0.0600 -0.0819
  641loPI   C1A10247   2.689   8.380   9.668  0.0163 -0.1297  0.0353
  641loPI   C2A10248   2.704   8.372   9.224  0.0547 -0.2579  0.0404
  641loPI   C3A10249   2.797   8.380   8.805 -0.2585  0.1522 -0.0401
  641loPI   C4A10250   2.867   8.383   8.340  0.1407  0.0195  0.1487
  641loPI   C5A10251   3.171   8.544   8.128  0.4025  0.0416 -0.0229
  641loPI   C6A10252   3.548   8.810   8.087  0.0105 -0.1230 -0.1485
  641loPI   C1B10253   3.180   8.164   9.805  0.2141 -0.0632 -0.1050
  641loPI   C2B10254   3.073   8.090   9.405  0.2093  0.2692  0.2229
  641loPI   C3B10255   3.156   8.012   8.989  0.0645 -0.3809 -0.1286
  641loPI   C4B10256   3.179   8.090   8.508 -0.3090  0.1727 -0.0160
  642loPI    C110257   9.364  16.766  11.010  0.0955 -0.1236  0.1619
  642loPI    C210258   9.008  16.931  11.087 -0.0053 -0.1464 -0.2357
  642loPI    C310259   9.069  16.543  11.164 -0.0179 -0.1082 -0.0299
  642loPI   PO410260   9.434  17.008  10.904  0.0565  0.0982 -0.1762
  642loPI   GL110261   9.500  17.047  10.491 -0.0619 -0.2071  0.4580
  642loPI   GL210262   9.276  16.791  10.506  0.4407  0.0066  0.1238
  642loPI   C1A10263   9.643  16.984  10.031 -0.2402 -0.0962  0.0236
  642loPI   C2A10264   9.559  16.877   9.575 -0.1800 -0.1772  0.1607
  642loPI   C3A10265   9.554  16.908   9.149 -0.0130  0.1883  0.0564
  642loPI   C4A10266   9.617  16.873   8.702 -0.3592  0.0146  0.0032
  642loPI   C5A10267   9.459  17.021   8.326 -0.2176  0.1848 -0.1924
  642loPI   C6A10268   9.266  17.096   7.902 -0.0987 -0.0256 -0.1141
  642loPI   C1B10269   9.197  16.732  10.074  0.1960 -0.1038 -0.4185
  642loPI   C2B10270   9.044  16.658   9.714 -0.1497 -0.2393  0.0882
  642loPI   C3B10271   9.044  16.611   9.274 -0.0870  0.2787  0.1885
  642loPI   C4B10272   9.095  16.691   8.833  0.1657  0.2538 -0.0675
  643loPI    C110273  18.230  18.004  10.893 -0.0837  0.1185 -0.0406
  643loPI    C210274  18.543  18.241  10.970 -0.0138 -0.0233  0.1195
  643loPI    C310275  18.371  18.036  11.266 -0.3571  0.1721  0.0600
  643loPI   PO410276  18.180  18.103  10.608 -0.0666  0.0994  0.0864
  643loPI   GL110277  18.320  18.040  10.157  0.0585 -0.3442 -0.2924
  643loPI   GL210278  18.616  18.176  10.058 -0.3262 -0.0964 -0.1467
  643loPI   C1A10279  18.073  17.830   9.817 -0.0668  0.0060 -0.1559
  643loPI   C2A10280  18.142  17.815   9.380  0.2570 -0.0079 -0.0819
  643loPI   C3A10281  18.126  17.786   8.927 -0.2972 -0.1099  0.0009
  643loPI   C4A10282  18.023  17.708   8.455  0.1566 -0.2065  0.0947
  643loPI   C5A10283  18.101  17.949   8.114 -0.2022  0.0682  0.1416
  643loPI   C6A10284  17.792  18.224   7.921  0.2575 -0.0918  0.0133
  643loPI   C1B10285  18.495  18.114   9.584 -0.0025  0.0784 -0.0711
  643loPI   C2B10286  18.473  18.057   9.159  0.0279  0.0250  0.0532
  643loPI   C3B10287  18.523  18.016   8.678  0.0009 -0.0625  0.0359
  643loPI   C4B10288  18.560  17.988   8.289 -0.2102 -0.2133 -0.1716
  644loPI    C110289   6.982  14.428  11.136  0.0832  0.0761 -0.2842
  644loPI    C210290   7.246  14.492  11.430  0.0092  0.1263 -0.2287
  644loPI    C310291   6.909  14.708  11.412 -0.2009 -0.1823 -0.0906
  644loPI   PO410292   7.178  14.449  10.943 -0.1009  0.3724 -0.0076
  644loPI   GL110293   7.106  14.471  10.534  0.0849  0.3665 -0.0139
  644loPI   GL210294   7.484  14.334  10.427  0.1779  0.0785  0.1967
  644loPI   C1A10295   7.104  14.621  10.135 -0.1637 -0.1421 -0.0195
  644loPI   C2A10296   7.142  14.677   9.635 -0.1828  0.2111  0.0204
  644loPI   C3A10297   7.264  14.680   9.219 -0.0842 -0.4650  0.2856
  644loPI   C4A10298   7.213  14.658   8.765 -0.1245 -0.1569 -0.1620
  644loPI   C5A10299   7.168  14.652   8.397  0.0628  0.2808  0.0150
  644loPI   C6A10300   7.152  14.370   8.001 -0.1410 -0.1482 -0.2081
  644loPI   C1B10301   7.497  14.426   9.908 -0.2170  0.0711  0.2405
  644loPI   C2B10302   7.588  14.400   9.469 -0.0078  0.0480  0.1534
  644loPI   C3B10303   7.653  14.366   9.035  0.0863  0.1746 -0.1953
  644loPI   C4B10304   7.583  14.385   8.602 -0.3738  0.0465 -0.0220
  645loPI    C110305   2.382  15.016  11.214 -0.1626 -0.2862 -0.1928
  645loPI    C210306   2.497  14.705  11.438  0.0907 -0.0645 -0.0072
  645loPI    C310307   2.147  14.885  11.509  0.0414 -0.1722  0.0243
  645loPI   PO410308   2.404  14.978  10.903 -0.0379  0.1555  0.1294
  645loPI   GL110309   2.614  14.735  10.582  0.1234 -0.1354  0.2184
  645loPI   GL210310   2.263  14.658  10.508 -0.0137 -0.5304  0.2177
  645loPI   C1A10311   2.689  14.891   9.963  0.1923  0.0952 -0.3270
  645loPI   C2A10312   2.657  14.842   9.534 -0.0362  0.1118  0.2080
  645loPI   C3A10313   2.671  14.924   9.095 -0.0509  0.1016  0.3673
  645loPI   C4A10314   2.721  14.868   8.594  0.0929  0.0931 -0.2641
  645loPI   C5A10315   2.460  14.896   8.280 -0.3003 -0.0360 -0.1785
  645loPI   C6A10316   2.002  14.957   8.346  0.0541  0.4245 -0.0395
  645loPI   C1B10317   2.318  14.579  10.130  0.1322 -0.0470  0.1546
  645loPI   C2B10318   2.209  14.642   9.684  0.1042 -0.1189 -0.0113
  645loPI   C3B10319   2.122  14.634   9.216 -0.0853 -0.0596 -0.2301
  645loPI   C4B10320   2.204  14.584   8.866 -0.0698  0.2043 -0.1358
  646loPI    C110321  13.824  13.092  10.875  0.4240 -0.0292 -0.0110
  646loPI    C210322  13.810  13.258  11.239  0.1382  0.0295 -0.0461
  646loPI    C310323  13.879  12.866  11.200  0.0014 -0.0079  0.0806
  646loPI   PO410324  13.771  13.394  10.697  0.0472 -0.0007  0.0622
  646loPI   GL110325  13.743  13.424  10.186 -0.1872 -0.2655 -0.2213
  646loPI   GL210326  13.514  13.641  10.342  0.0288  0.0859  0.0157
  646loPI   C1A10327  13.858  13.424   9.780 -0.0495 -0.0672 -0.1664
  646loPI   C2A10328  13.916  13.562   9.417 -0.0508 -0.0965  0.2908
  646loPI   C3A10329  13.906  13.556   9.001  0.2606  0.1488 -0.0037
  646loPI   C4A10330  13.765  13.607   8.586 -0.2241 -0.2384  0.1689
  646loPI   C5A10331  13.446  13.642   8.267  0.0962 -0.3146  0.0980
  646loPI   C6A10332  13.200  13.404   7.986  0.3282  0.1458 -0.1836
  646loPI   C1B10333  13.355  13.761  10.001  0.0873  0.0304 -0.2994
  646loPI   C2B10334  13.457  13.758   9.559  0.0317 -0.1351 -0.3451
  646loPI   C3B10335  13.433  13.839   9.135  0.1527  0.1207  0.2925
  646loPI   C4B10336  13.422  13.931   8.750 -0.0415  0.1672 -0.2540
  647loPI    C110337   0.248   9.300  10.646 -0.0661  0.1506  0.2839
  647loPI    C210338   0.389   8.925  10.649 -0.4416 -0.0027 -0.1190
  647loPI    C310339   0.377   9.137  10.988 -0.1908 -0.3389  0.1068
  647loPI   PO410340   0.057   9.317  10.550 -0.3580 -0.0017  0.3816
  647loPI   GL110341  -0.231   9.274  10.178 -0.2216 -0.0042 -0.0937
  647loPI   GL210342  -0.189   9.067   9.968  0.0691 -0.1855  0.0191
  647loPI   C1A10343  -0.524   9.322   9.743 -0.0859  0.2752  0.1902
  647loPI   C2A10344  -0.529   9.425   9.275 -0.2672 -0.2449  0.0632
  647loPI   C3A10345  -0.650   9.506   8.893 -0.0111  0.0622  0.1032
  647loPI   C4A10346  -0.637   9.519   8.481 -0.4054  0.0476  0.0344
  647loPI   C5A10347  -0.739   9.436   8.058 -0.2396  0.4798  0.0245
  647loPI   C6A10348  -0.593   9.461   7.708  0.2617  0.2787 -0.4935
  647loPI   C1B10349   0.058   9.392   9.752  0.1812  0.0962 -0.0845
  647loPI   C2B10350   0.249   9.416   9.380  0.0532 -0.2691  0.2306
  647loPI   C3B10351   0.312   9.531   8.886 -0.0227 -0.1710 -0.0232
  647loPI   C4B10352   0.271   9.387   8.518  0.0080  0.0571 -0.3000
  648loPI    C110353  13.371   5.132  10.906  0.0266 -0.0694  0.2232
  648loPI    C210354  13.165   5.263  11.222  0.0104  0.0018  0.1833
  648loPI    C310355  13.154   4.876  11.124 -0.0318 -0.0102  0.2348
  648loPI   PO410356  13.252   5.331  10.612 -0.1771 -0.1116 -0.1062
  648loPI   GL110357  13.012   5.211  10.202 -0.1356 -0.0990  0.1944
  648loPI   GL210358  13.153   5.053   9.999  0.0104  0.2080 -0.1765
  648loPI   C1A10359  12.939   5.492   9.822 -0.1342 -0.1407  0.0560
  648loPI   C2A10360  12.995   5.427   9.425 -0.1530  0.0060 -0.3360
  648loPI   C3A10361  12.937   5.413   9.015  0.1639 -0.1023  0.0824
  648loPI   C4A10362  13.056   5.339   8.600 -0.2973 -0.1512  0.1122
  648loPI   C5A10363  12.889   5.378   8.298  0.3029 -0.1907  0.1545
  648loPI   C6A10364  12.886   5.153   8.016  0.0372 -0.0374 -0.0143
  648loPI   C1B10365  13.372   5.130   9.607 -0.0646 -0.0561 -0.2165
  648loPI   C2B10366  13.371   5.127   9.235 -0.2071  0.3050  0.0794
  648loPI   C3B10367  13.482   5.125   8.762 -0.0049 -0.0056 -0.0927
  648loPI   C4B10368  13.570   5.225   8.381  0.1014  0.3706 -0.2454
  649loPI    C110369  15.959   6.931  10.319 -0.0572  0.1269  0.1453
  649loPI    C210370  16.327   6.873  10.464  0.0022 -0.2556 -0.1420
  649loPI    C310371  16.044   7.032  10.697  0.3899  0.2133  0.0281
  649loPI   PO410372  15.993   6.767  10.112  0.2046  0.3188  0.5657
  649loPI   GL110373  15.998   6.887   9.718 -0.0787  0.1253 -0.0051
  649loPI   GL210374  15.735   6.915   9.564  0.0908  0.3634  0.0461
  649loPI   C1A10375  16.244   7.018   9.471  0.0088  0.1109 -0.1820
  649loPI   C2A10376  16.226   7.101   9.025 -0.2346 -0.2694  0.1654
  649loPI   C3A10377  16.212   7.104   8.548  0.3430 -0.3112  0.2193
  649loPI   C4A10378  16.241   7.117   8.126  0.0177  0.3433  0.2148
  649loPI   C5A10379  16.209   7.234   7.619 -0.0180 -0.1487 -0.1021
  649loPI   C6A10380  16.513   7.496   7.381 -0.0567  0.3620  0.0704
  649loPI   C1B10381  15.713   6.822   9.092  0.1225 -0.2248 -0.0573
  649loPI   C2B10382  15.820   6.796   8.637  0.1969  0.1377  0.3903
  649loPI   C3B10383  15.824   6.860   8.241  0.0326  0.2082 -0.1682
  649loPI   C4B10384  15.825   6.980   7.821  0.1228 -0.0425 -0.1481
  650loPI    C110385   0.974  13.630  11.329 -0.0068  0.0448  0.2227
  650loPI    C210386   1.031  13.947  11.567  0.2956  0.0334  0.1699
  650loPI    C310387   1.204  13.597  11.655  0.1839 -0.0451  0.0810
  650loPI   PO410388   1.055  13.686  11.054  0.0058  0.1095  0.0652
  650loPI   GL110389   1.300  13.573  10.763 -0.1619 -0.2291 -0.0011
  650loPI   GL210390   0.938  13.638  10.523 -0.0327 -0.0126  0.0105
  650loPI   C1A10391   1.362  13.580  10.270 -0.0732 -0.0794 -0.0401
  650loPI   C2A10392   1.349  13.567   9.789 -0.1110  0.0501 -0.0059
  650loPI   C3A10393   1.328  13.741   9.375 -0.1390  0.0134  0.2270
  650loPI   C4A10394   1.253  13.609   8.922  0.0556  0.1199  0.1585
  650loPI   C5A10395   1.211  13.603   8.441 -0.2141  0.3051 -0.0850
  650loPI   C6A10396   1.017  13.792   8.117 -0.2122 -0.1937 -0.3147
  650loPI   C1B10397   0.894  13.512  10.017 -0.0131  0.0168 -0.2120
  650loPI   C2B10398   0.883  13.467   9.523  0.2098  0.1777 -0.2242
  650loPI   C3B10399   0.737  13.372   9.083 -0.1519  0.2265 -0.0957
  650loPI   C4B10400   0.783  13.435   8.688  0.0985  0.1808  0.2014
  651loPI    C110401  11.156   8.545  10.889  0.1946 -0.1544  0.1393
  651loPI    C210402  10.873   8.826  10.923  0.2063 -0.1580  0.2715
  651loPI    C310403  11.159   8.796  11.201  0.3799 -0.1066  0.1001
  651loPI   PO410404  11.218   8.611  10.660  0.0963 -0.0080 -0.2742
  651loPI   GL110405  11.203   8.640  10.260 -0.3375 -0.2972 -0.2554
  651loPI   GL210406  11.365   8.656  10.121 -0.3394 -0.0108 -0.3209
  651loPI   C1A10407  10.914   8.866   9.940 -0.0667  0.1375 -0.3058
  651loPI   C2A10408  10.928   8.898   9.502 -0.2891 -0.0607  0.0022
  651loPI   C3A10409  10.807   8.898   9.166 -0.1459 -0.0643 -0.1653
  651loPI   C4A10410  10.981   8.991   8.799 -0.1535 -0.1379  0.2296
  651loPI   C5A10411  10.933   8.917   8.438 -0.0023  0.1403 -0.0565
  651loPI   C6A10412  11.020   8.901   8.022 -0.1897  0.2642  0.1231
  651loPI   C1B10413  11.288   8.629   9.692  0.2089 -0.1815  0.2251
  651loPI   C2B10414  11.255   8.635   9.247  0.0327  0.0740  0.0128
  651loPI   C3B10415  11.457   8.600   8.867 -0.1949 -0.1467 -0.4816
  651loPI   C4B10416  11.381   8.668   8.305 -0.2864  0.2847  0.0431
  652loPI    C110417  17.358  15.138  11.309  0.1080  0.1174 -0.0830
  652loPI    C210418  17.368  14.818  11.550 -0.1322  0.1178 -0.0700
  652loPI    C310419  17.704  14.949  11.376 -0.0466 -0.1947 -0.1451
  652loPI   PO410420  17.227  15.120  11.080  0.1912 -0.1808 -0.0828
  652loPI   GL110421  17.073  15.206  10.641 -0.2753 -0.0572  0.1389
  652loPI   GL210422  17.281  15.375  10.607 -0.0601 -0.1928 -0.3281
  652loPI   C1A10423  16.892  15.177  10.282  0.0561 -0.2837 -0.0493
  652loPI   C2A10424  16.990  15.280   9.926  0.3943 -0.1426 -0.0349
  652loPI   C3A10425  17.089  15.196   9.549  0.0676  0.1553  0.2732
  652loPI   C4A10426  17.057  15.133   9.130  0.1565  0.2570 -0.2594
  652loPI   C5A10427  17.031  15.225   8.720  0.1166 -0.2029 -0.1119
  652loPI   C6A10428  17.066  15.076   8.283 -0.0314  0.0484 -0.0088
  652loPI   C1B10429  17.289  15.445  10.211 -0.3089 -0.2573  0.0956
  652loPI   C2B10430  17.465  15.558   9.812 -0.0733 -0.3377  0.1712
  652loPI   C3B10431  17.611  15.521   9.311  0.4614  0.1599 -0.0291
  652loPI   C4B10432  17.482  15.549   8.921 -0.1255  0.2184 -0.3845
  653loPI    C110433   0.988   2.884  10.275  0.2122  0.2096  0.3048
  653loPI    C210434   0.909   2.578  10.521 -0.0175  0.0048 -0.0167
  653loPI    C310435   0.680   2.906  10.529 -0.1254 -0.0685 -0.0675
  653loPI   PO410436   1.052   2.780  10.045  0.1039  0.2582 -0.0545
  653loPI   GL110437   1.125   2.497   9.726 -0.1166  0.0468 -0.0932
  653loPI   GL210438   1.300   2.293   9.718 -0.0002 -0.1519  0.3439
  653loPI   C1A10439   0.891   2.351   9.508 -0.4917 -0.3359 -0.2717
  653loPI   C2A10440   0.922   2.345   9.083  0.0618  0.1822 -0.0660
  653loPI   C3A10441   0.926   2.230   8.643  0.2618 -0.1389 -0.2379
  653loPI   C4A10442   1.074   2.077   8.278  0.3110  0.2316 -0.0549
  653loPI   C5A10443   1.095   1.994   7.821 -0.0835 -0.1369  0.5582
  653loPI   C6A10444   1.336   1.750   7.654  0.0483 -0.0782  0.2543
  653loPI   C1B10445   1.350   2.121   9.304  0.0251 -0.0672 -0.2284
  653loPI   C2B10446   1.356   2.054   8.849  0.5059 -0.0561  0.0645
  653loPI   C3B10447   1.539   2.046   8.491  0.2987  0.2100  0.1359
  653loPI   C4B10448   1.562   1.812   8.188 -0.0679  0.0745  0.1293
  654loPI    C110449   6.759   7.739  10.747 -0.0250 -0.2581 -0.2981
  654loPI    C210450   6.727   7.361  10.876  0.0361 -0.2617 -0.2935
  654loPI    C310451   7.052   7.577  10.965 -0.2146 -0.0451  0.1268
  654loPI   PO410452   6.654   7.762  10.487  0.1396  0.2833  0.1135
  654loPI   GL110453   6.602   7.996  10.162  0.1109 -0.0080 -0.0725
  654loPI   GL210454   6.347   8.023   9.914 -0.1726 -0.1845 -0.0091
  654loPI   C1A10455   6.831   7.873   9.785 -0.0397  0.1462  0.0353
  654loPI   C2A10456   6.808   7.735   9.348  0.3484  0.2326 -0.2509
  654loPI   C3A10457   6.900   7.767   8.904  0.0964 -0.1712  0.1078
  654loPI   C4A10458   6.887   7.819   8.372 -0.4386 -0.2056  0.0646
  654loPI   C5A10459   6.825   8.202   8.278 -0.0325  0.0615 -0.2166
  654loPI   C6A10460   6.983   8.632   8.250  0.1632 -0.3280 -0.1870
  654loPI   C1B10461   6.389   8.067   9.390  0.1794 -0.0777  0.1092
  654loPI   C2B10462   6.375   8.053   8.975 -0.2868 -0.0700  0.1523
  654loPI   C3B10463   6.392   8.100   8.482 -0.1967  0.2620  0.0884
  654loPI   C4B10464   6.113   8.052   8.049  0.2535 -0.1212 -0.0648
  655loPI    C110465  15.432   8.964  10.308  0.0124  0.1796  0.0473
  655loPI    C210466  15.737   8.735  10.428  0.0286  0.2820  0.2041
  655loPI    C310467  15.361   8.625  10.509  0.0017 -0.0293 -0.3004
  655loPI   PO410468  15.466   9.056  10.081  0.0843 -0.1798 -0.1875
  655loPI   GL110469  15.210   9.276   9.933  0.1802  0.2149 -0.0844
  655loPI   GL210470  14.937   9.213   9.790 -0.0475 -0.1907  0.0445
  655loPI   C1A10471  15.399   9.325   9.568 -0.3472  0.0314  0.0540
  655loPI   C2A10472  15.370   9.352   9.024 -0.2358  0.2377 -0.2156
  655loPI   C3A10473  15.487   9.258   8.587 -0.0648  0.4779  0.0678
  655loPI   C4A10474  15.444   9.372   8.163  0.0236 -0.2273 -0.3865
  655loPI   C5A10475  15.483   9.647   7.913  0.0800  0.1567  0.0104
  655loPI   C6A10476  15.289  10.126   7.929 -0.0096 -0.2036  0.0054
  655loPI   C1B10477  14.980   9.112   9.378 -0.1445 -0.0553  0.0057
  655loPI   C2B10478  14.975   9.052   8.886  0.0740  0.2540 -0.0573
  655loPI   C3B10479  14.973   8.986   8.498 -0.1965  0.2469 -0.3163
  655loPI   C4B10480  15.008   9.124   8.055 -0.0998  0.0782  0.0338
  656loPI    C110481  18.181  11.649  10.897 -0.0310 -0.0191 -0.0469
  656loPI    C210482  18.077  11.320  11.101 -0.0956  0.2257  0.3246
  656loPI    C310483  18.124  11.668  11.292  0.1710  0.3934 -0.0330
  656loPI   PO410484  17.985  11.593  10.683  0.3253  0.1151 -0.3001
  656loPI   GL110485  18.038  11.648  10.282 -0.2241  0.3756  0.4159
  656loPI   GL210486  17.724  11.617  10.068  0.1066  0.0667 -0.2134
  656loPI   C1A10487  18.168  11.433   9.878 -0.2023 -0.0173  0.2727
  656loPI   C2A10488  18.174  11.367   9.490  0.1719 -0.3057 -0.1722
  656loPI   C3A10489  18.247  11.369   9.098 -0.1193 -0.2057 -0.2074
  656loPI   C4A10490  18.247  11.334   8.721 -0.2207  0.0773 -0.0834
  656loPI   C5A10491  18.118  11.512   8.406  0.0195  0.2269 -0.3029
  656loPI   C6A10492  18.237  11.574   8.005  0.1036  0.0605 -0.0542
  656loPI   C1B10493  17.807  11.662   9.680 -0.1597 -0.0195 -0.1649
  656loPI   C2B10494  17.750  11.657   9.253  0.0702  0.0057 -0.0122
  656loPI   C3B10495  17.776  11.553   8.794 -0.0393 -0.3533 -0.1802
  656loPI   C4B10496  17.637  11.616   8.292  0.2013  0.0702 -0.2654
  657loPI    C110497  12.396  14.852  10.892 -0.1368  0.1379 -0.2602
  657loPI    C210498  12.327  15.174  11.120 -0.0141 -0.0207  0.0058
  657loPI    C310499  12.333  14.809  11.285 -0.0654 -0.1528 -0.2780
  657loPI   PO410500  12.192  14.931  10.668  0.1165 -0.0783  0.1608
  657loPI   GL110501  12.221  14.967  10.179 -0.1738 -0.0689  0.0531
  657loPI   GL210502  12.190  14.599  10.236 -0.1242 -0.1137 -0.0964
  657loPI   C1A10503  12.150  15.082   9.775 -0.0565 -0.0897 -0.2075
  657loPI   C2A10504  12.117  15.167   9.315  0.2708  0.0034 -0.1446
  657loPI   C3A10505  12.172  15.266   8.828 -0.1614  0.1943 -0.3112
  657loPI   C4A10506  11.987  15.055   8.506 -0.2050 -0.0651  0.0113
  657loPI   C5A10507  11.713  15.105   8.159 -0.0019 -0.2758 -0.0172
  657loPI   C6A10508  11.388  15.166   8.067 -0.3375  0.4035 -0.1544
  657loPI   C1B10509  12.053  14.570   9.801 -0.3097 -0.0892 -0.1878
  657loPI   C2B10510  12.127  14.657   9.361  0.2456 -0.1847  0.0409
  657loPI   C3B10511  12.222  14.677   8.944 -0.0263 -0.0461 -0.0239
  657loPI   C4B10512  12.330  14.677   8.492 -0.0976 -0.0763  0.1021
  658loPI    C110513  13.242  16.830  10.608  0.0221  0.1420  0.1061
  658loPI    C210514  13.375  17.033  10.925 -0.1342  0.1373  0.1757
  658loPI    C310515  12.997  17.079  10.803 -0.1288 -0.0033  0.1045
  658loPI   PO410516  13.275  16.545  10.593 -0.2298  0.0268  0.1195
  658loPI   GL110517  13.060  16.296  10.380  0.2014 -0.0320  0.1486
  658loPI   GL210518  13.102  15.935  10.329 -0.0001 -0.0343 -0.2172
  658loPI   C1A10519  13.063  16.185   9.901 -0.0308  0.0476 -0.0635
  658loPI   C2A10520  13.123  16.178   9.465  0.1452  0.2457 -0.2190
  658loPI   C3A10521  13.114  16.257   9.041  0.2040 -0.0500  0.0270
  658loPI   C4A10522  13.134  16.359   8.610  0.0444 -0.0887 -0.1314
  658loPI   C5A10523  12.879  16.233   8.253  0.1071 -0.3542  0.1119
  658loPI   C6A10524  12.820  16.048   7.811  0.0231 -0.1092 -0.2095
  658loPI   C1B10525  13.102  15.682   9.977  0.0608 -0.3596 -0.2375
  658loPI   C2B10526  13.099  15.634   9.607 -0.0635  0.1237 -0.2278
  658loPI   C3B10527  13.100  15.699   9.222  0.3989 -0.2954  0.0310
  658loPI   C4B10528  13.081  15.768   8.765  0.4097  0.1565  0.1158
  659loPI    C110529  17.338  12.075  11.128 -0.2861 -0.1253 -0.0644
  659loPI    C210530  17.425  12.279  11.460 -0.3893 -0.0197 -0.1018
  659loPI    C310531  17.621  11.940  11.377 -0.1840  0.0875 -0.0632
  659loPI   PO410532  17.333  12.228  10.942  0.1068  0.2178 -0.1743
  659loPI   GL110533  17.175  12.256  10.580 -0.0173  0.2601 -0.2045
  659loPI   GL210534  17.465  12.370  10.375  0.0140 -0.5327  0.0557
  659loPI   C1A10535  16.934  12.156  10.211  0.0415 -0.1704 -0.1321
  659loPI   C2A10536  16.870  12.183   9.743  0.2677 -0.0051 -0.5847
  659loPI   C3A10537  16.943  12.191   9.399 -0.2234 -0.3532  0.1713
  659loPI   C4A10538  16.985  12.164   8.971  0.1332 -0.0309 -0.1341
  659loPI   C5A10539  16.911  12.095   8.464  0.1309 -0.0912 -0.1691
  659loPI   C6A10540  16.903  12.187   7.966  0.0333  0.0884 -0.1704
  659loPI   C1B10541  17.430  12.482   9.904  0.1007  0.2165 -0.0441
  659loPI   C2B10542  17.383  12.484   9.551 -0.0641  0.0799 -0.0833
  659loPI   C3B10543  17.380  12.451   9.180  0.0809  0.1843 -0.1696
  659loPI   C4B10544  17.338  12.364   8.682 -0.2075 -0.1743 -0.1468
  660loPI    C110545   4.805   4.961  10.352 -0.1789 -0.1286  0.1175
  660loPI    C210546   5.119   4.766  10.506 -0.0138 -0.1215 -0.2027
  660loPI    C310547   4.789   4.818  10.725  0.1382 -0.2928  0.0720
  660loPI   PO410548   4.786   4.889  10.084  0.0283 -0.0909 -0.0050
  660loPI   GL110549   4.985   4.694   9.753  0.1113  0.1934 -0.1566
  660loPI   GL210550   5.162   4.990   9.672  0.1502 -0.1076 -0.0708
  660loPI   C1A10551   5.235   4.455   9.340  0.1456  0.1695 -0.4309
  660loPI   C2A10552   5.316   4.361   8.966  0.1676 -0.3375 -0.2070
  660loPI   C3A10553   5.345   4.477   8.470 -0.3393  0.0830 -0.3004
  660loPI   C4A10554   5.297   4.458   8.060 -0.0456 -0.0175 -0.0102
  660loPI   C5A10555   5.179   4.227   7.660  0.0087 -0.1574  0.0546
  660loPI   C6A10556   5.354   4.114   7.311  0.1209  0.1203 -0.0697
  660loPI   C1B10557   5.275   4.952   9.234 -0.3005 -0.2102  0.1671
  660loPI   C2B10558   5.406   4.981   8.820 -0.0840  0.0074  0.1425
  660loPI   C3B10559   5.333   4.929   8.286 -0.0515  0.0129  0.0623
  660loPI   C4B10560   5.682   5.079   8.024  0.3620  0.0119 -0.1765
  661loPI    C110561  17.748  12.956  11.157  0.1748 -0.0559 -0.0272
  661loPI    C210562  17.668  13.219  11.447  0.1302  0.1070 -0.1857
  661loPI    C310563  18.028  13.047  11.427  0.1805  0.2038 -0.1188
  661loPI   PO410564  17.620  13.100  10.904 -0.0761 -0.0275  0.0147
  661loPI   GL110565  17.562  13.054  10.457 -0.2475 -0.3434 -0.0223
  661loPI   GL210566  17.330  12.889  10.318 -0.2356 -0.0127  0.0197
  661loPI   C1A10567  17.446  13.412  10.081 -0.0829 -0.0483 -0.0606
  661loPI   C2A10568  17.401  13.413   9.630  0.3657  0.0372 -0.0336
  661loPI   C3A10569  17.396  13.369   9.189  0.0762 -0.2258 -0.2628
  661loPI   C4A10570  17.417  13.358   8.722 -0.0733  0.1259 -0.0197
  661loPI   C5A10571  17.371  13.274   8.346 -0.1585  0.2655 -0.0795
  661loPI   C6A10572  17.592  13.151   7.930  0.1346  0.3009 -0.2631
  661loPI   C1B10573  17.421  12.986   9.888  0.0907  0.1022  0.0010
  661loPI   C2B10574  17.447  12.925   9.445 -0.2339  0.5370  0.1562
  661loPI   C3B10575  17.443  12.923   8.982  0.0331  0.0743  0.0435
  661loPI   C4B10576  17.367  12.869   8.591 -0.1077  0.2458 -0.0789
  662loPI    C110577  11.816   0.221  10.995  0.0026 -0.1823 -0.1965
  662loPI    C210578  11.573   0.192  11.311  0.1562  0.0356 -0.0550
  662loPI    C310579  11.968   0.155  11.359  0.1995  0.3119 -0.1808
  662loPI   PO410580  11.507   0.204  10.800 -0.0999 -0.0116  0.1247
  662loPI   GL110581  11.459   0.072  10.395  0.1311  0.2022 -0.0426
  662loPI   GL210582  11.434   0.354  10.265  0.1812  0.1398  0.0715
  662loPI   C1A10583  11.490  -0.087  10.010 -0.0560  0.1421 -0.1945
  662loPI   C2A10584  11.358  -0.115   9.645  0.0598 -0.1325  0.1585
  662loPI   C3A10585  11.395   0.010   9.279 -0.0103 -0.1320  0.0028
  662loPI   C4A10586  11.426   0.017   8.878 -0.0166  0.0301 -0.1028
  662loPI   C5A10587  11.403   0.039   8.523  0.0797 -0.0980  0.1366
  662loPI   C6A10588  11.263  -0.214   8.148 -0.0920 -0.1711 -0.0256
  662loPI   C1B10589  11.472   0.503   9.885  0.0391  0.0806 -0.1279
  662loPI   C2B10590  11.409   0.508   9.460  0.1214  0.1449 -0.1319
  662loPI   C3B10591  11.335   0.567   8.958  0.1545  0.0619  0.2473
  662loPI   C4B10592  11.363   0.597   8.593 -0.1379  0.1460  0.0855
  663loPI    C110593   9.291  12.276  10.938 -0.1799  0.0860 -0.0048
  663loPI    C210594   9.294  12.282  11.338  0.0918  0.2486 -0.0067
  663loPI    C310595   8.956  12.200  11.142 -0.0210  0.0708  0.2562
  663loPI   PO410596   9.488  12.465  10.892 -0.0387 -0.0657  0.0705
  663loPI   GL110597   9.643  12.666  10.538 -0.7186  0.3265  0.0171
  663loPI   GL210598   9.305  12.737  10.427  0.0693 -0.0118  0.0851
  663loPI   C1A10599   9.783  12.414  10.005 -0.1739 -0.0542 -0.0731
  663loPI   C2A10600   9.799  12.376   9.538  0.0299  0.1069 -0.0366
  663loPI   C3A10601   9.773  12.416   9.110  0.2202 -0.1905  0.0428
  663loPI   C4A10602   9.612  12.365   8.642  0.1357  0.2376  0.1253
  663loPI   C5A10603   9.655  12.031   8.305  0.1027 -0.2270  0.1519
  663loPI   C6A10604   9.658  11.726   8.128  0.3205 -0.0781  0.2261
  663loPI   C1B10605   9.382  12.803  10.020 -0.1230 -0.0735 -0.0259
  663loPI   C2B10606   9.328  12.680   9.677  0.1101 -0.6468  0.0405
  663loPI   C3B10607   9.317  12.759   9.383 -0.4036 -0.2148 -0.3427
  663loPI   C4B10608   9.271  12.604   8.959 -0.0521  0.1476 -0.0967
  664loPI    C110609   3.720   9.794  10.936 -0.0743  0.0102  0.0196
  664loPI    C210610   3.513   9.702  11.265 -0.0379  0.1382  0.0791
  664loPI    C310611   3.748  10.026  11.261  0.3468 -0.1342  0.0932
  664loPI   PO410612   3.474   9.572  10.721 -0.0150 -0.3255  0.2253
  664loPI   GL110613   3.277   9.605  10.305 -0.2317  0.1865  0.3343
  664loPI   GL210614   3.258   9.845  10.132 -0.6613  0.2561  0.2090
  664loPI   C1A10615   3.370   9.507   9.806 -0.0740  0.0359  0.2447
  664loPI   C2A10616   3.310   9.640   9.480  0.0317 -0.5369  0.2187
  664loPI   C3A10617   3.308   9.578   9.113  0.1479 -0.2566 -0.0001
  664loPI   C4A10618   3.415   9.706   8.751 -0.0124 -0.0001 -0.2557
  664loPI   C5A10619   3.366   9.612   8.311  0.1010 -0.0975  0.0230
  664loPI   C6A10620   3.680   9.852   8.011 -0.1729  0.1195  0.2230
  664loPI   C1B10621   3.481  10.025   9.772 -0.0040 -0.0566  0.1810
  664loPI   C2B10622   3.364  10.099   9.274 -0.0818  0.0489 -0.1608
  664loPI   C3B10623   3.386  10.165   8.783  0.1202 -0.3542  0.2217
  664loPI   C4B10624   3.470  10.144   8.351 -0.0002 -0.2023 -0.0905
  665loPI    C110625   7.006  12.471  11.438 -0.1031  0.2638 -0.1019
  665loPI    C210626   6.810  12.291  11.736  0.0407 -0.3206 -0.3465
  665loPI    C310627   7.099  12.555  11.818 -0.2699 -0.0824  0.0194
  665loPI   PO410628   6.902  12.498  11.219  0.2264  0.2297  0.2130
  665loPI   GL110629   6.730  12.571  10.881 -0.2498 -0.4658  0.1715
  665loPI   GL210630   6.566  12.549  10.688  0.1805 -0.0623  0.1373
  665loPI   C1A10631   6.960  12.550  10.468 -0.2535  0.1124  0.1261
  665loPI   C2A10632   7.097  12.570  10.108 -0.3170  0.1245  0.1006
  665loPI   C3A10633   7.104  12.538   9.666  0.1520  0.1356 -0.2092
  665loPI   C4A10634   7.063  12.495   9.165  0.1108 -0.0208  0.0413
  665loPI   C5A10635   6.997  12.570   8.746  0.1424 -0.5460 -0.0959
  665loPI   C6A10636   7.236  12.788   8.526  0.3170 -0.1419 -0.1088
  665loPI   C1B10637   6.601  12.825  10.388 -0.1027  0.1203  0.2040
  665loPI   C2B10638   6.625  12.821   9.892  0.2374 -0.1076  0.0483
  665loPI   C3B10639   6.614  12.890   9.462  0.2010  0.1510  0.2051
  665loPI   C4B10640   6.603  12.784   9.079  0.0089 -0.1375 -0.1835
  666loPI    C110641  18.256  17.487  11.069 -0.2405  0.0209 -0.0254
  666loPI    C210642  17.947  17.314  11.254  0.0569 -0.2082  0.2691
  666loPI    C310643  17.990  17.712  11.266 -0.2189 -0.1754  0.2333
  666loPI   PO410644  18.313  17.509  10.824  0.2110 -0.0294  0.0569
  666loPI   GL110645  18.421  17.564  10.366 -0.0866 -0.0476 -0.1661
  666loPI   GL210646  18.153  17.512  10.333 -0.0379  0.0708  0.2539
  666loPI   C1A10647  18.503  17.603   9.875  0.0693  0.1215  0.0880
  666loPI   C2A10648  18.517  17.557   9.533 -0.2632  0.2303 -0.1340
  666loPI   C3A10649  18.522  17.561   9.097 -0.0728 -0.0668 -0.1919
  666loPI   C4A10650  18.510  17.470   8.677 -0.0792 -0.0194  0.4126
  666loPI   C5A10651  18.345  17.376   8.336  0.0357 -0.1321  0.0952
  666loPI   C6A10652  18.209  17.132   7.932  0.2687 -0.0189 -0.2185
  666loPI   C1B10653  18.030  17.347   9.980 -0.0088 -0.1732 -0.1356
  666loPI   C2B10654  17.962  17.398   9.531  0.3099 -0.1427 -0.1475
  666loPI   C3B10655  18.075  17.341   9.181  0.2134 -0.1929  0.0750
  666loPI   C4B10656  18.022  17.244   8.729  0.2052  0.2914  0.1867
  667loPI    C110657   5.939   2.975  10.620 -0.4105 -0.1825 -0.0113
  667loPI    C210658   6.247   2.895  10.863 -0.1520  0.1016 -0.2369
  667loPI    C310659   5.963   3.152  10.978 -0.2509 -0.0786 -0.0723
  667loPI   PO410660   6.082   2.994  10.376  0.0618  0.0310  0.3351
  667loPI   GL110661   6.319   3.145  10.026  0.2863  0.0551  0.2582
  667loPI   GL210662   6.200   3.438   9.998  0.0758 -0.2924 -0.0487
  667loPI   C1A10663   6.478   3.156   9.670 -0.3162  0.0364 -0.3272
  667loPI   C2A10664   6.510   3.139   9.233  0.2610  0.2048  0.0953
  667loPI   C3A10665   6.565   2.971   8.797  0.0871 -0.1163  0.1755
  667loPI   C4A10666   6.529   3.042   8.398  0.2636  0.0874 -0.0332
  667loPI   C5A10667   6.476   3.113   7.945  0.1201 -0.0079  0.2453
  667loPI   C6A10668   6.604   2.751   7.644  0.1490  0.0133  0.1804
  667loPI   C1B10669   6.020   3.363   9.670 -0.1337  0.1767  0.0130
  667loPI   C2B10670   6.102   3.386   9.292  0.3001  0.2160 -0.0684
  667loPI   C3B10671   6.115   3.220   8.839 -0.2316 -0.2895 -0.1446
  667loPI   C4B10672   6.153   3.349   8.370  0.1918  0.0505 -0.0303
  668loPI    C110673   3.844   4.501  10.387 -0.0271 -0.0388  0.1118
  668loPI    C210674   3.962   4.608  10.754 -0.0889 -0.0586  0.1376
  668loPI    C310675   3.624   4.399  10.705 -0.0547 -0.0995  0.0735
  668loPI   PO410676   3.900   4.675  10.190 -0.0016 -0.2025 -0.2279
  668loPI   GL110677   3.950   4.542   9.783  0.2278  0.0571  0.0044
  668loPI   GL210678   3.717   4.372   9.660  0.2204 -0.0774 -0.0266
  668loPI   C1A10679   4.291   4.597   9.505 -0.2536  0.0732  0.0078
  668loPI   C2A10680   4.338   4.568   9.142  0.1816 -0.0914 -0.0029
  668loPI   C3A10681   4.340   4.593   8.721  0.0322  0.2330 -0.0776
  668loPI   C4A10682   4.427   4.479   8.327 -0.0641  0.1851  0.2208
  668loPI   C5A10683   4.224   4.520   7.983  0.2057  0.0924 -0.1572
  668loPI   C6A10684   4.090   4.694   7.607  0.1524 -0.1160  0.0299
  668loPI   C1B10685   3.845   4.330   9.218  0.2920 -0.2001 -0.2014
  668loPI   C2B10686   3.870   4.339   8.777 -0.0651 -0.0731  0.0312
  668loPI   C3B10687   3.945   4.256   8.366 -0.0781 -0.1885 -0.0220
  668loPI   C4B10688   3.834   4.153   7.952 -0.1377 -0.1697  0.2817
  669loPI    C110689   8.343  17.079  10.934  0.1257 -0.1677 -0.0470
  669loPI    C210690   8.350  17.281  11.280  0.1727 -0.2330 -0.0097
  669loPI    C310691   8.045  17.035  11.198  0.1198 -0.1539 -0.0514
  669loPI   PO410692   8.576  17.069  10.808 -0.0473 -0.0078  0.2293
  669loPI   GL110693   8.669  17.072  10.402  0.2168  0.1317 -0.0936
  669loPI   GL210694   8.701  17.393  10.251 -0.0550 -0.1572  0.0272
  669loPI   C1A10695   8.684  16.956   9.914  0.1245  0.0198 -0.0499
  669loPI   C2A10696   8.686  16.981   9.529  0.0607  0.0535 -0.0893
  669loPI   C3A10697   8.654  16.936   9.127 -0.1347 -0.0375  0.1443
  669loPI   C4A10698   8.712  17.014   8.659  0.0539 -0.0243  0.0813
  669loPI   C5A10699   8.488  16.904   8.317  0.1771  0.1784 -0.0535
  669loPI   C6A10700   8.208  16.562   8.380 -0.0054 -0.0440 -0.2303
  669loPI   C1B10701   8.796  17.431   9.824  0.0106 -0.1021  0.2057
  669loPI   C2B10702   8.708  17.549   9.428  0.0618 -0.0616  0.0923
  669loPI   C3B10703   8.685  17.454   9.020 -0.1431 -0.2117 -0.0701
  669loPI   C4B10704   8.583  17.444   8.547  0.0280 -0.4850 -0.2669
  670loPI    C110705   0.510  16.008  11.112 -0.2864  0.1017  0.0829
  670loPI    C210706   0.483  16.205  11.460  0.1498  0.3355 -0.0085
  670loPI    C310707   0.290  15.857  11.411  0.0084  0.3462  0.4314
  670loPI   PO410708   0.572  16.233  10.940  0.1922 -0.0059 -0.2475
  670loPI   GL110709   0.286  16.223  10.579  0.3517  0.0422 -0.0590
  670loPI   GL210710   0.540  16.413  10.429  0.0897  0.2824 -0.4004
  670loPI   C1A10711   0.313  15.852  10.325  0.1846  0.1734  0.1063
  670loPI   C2A10712   0.474  15.784  10.002 -0.1552 -0.1793 -0.1890
  670loPI   C3A10713   0.488  15.827   9.576  0.2376  0.1101  0.0452
  670loPI   C4A10714   0.527  15.810   9.177 -0.0212  0.0926 -0.1387
  670loPI   C5A10715   0.511  15.724   8.714 -0.0293 -0.0919 -0.2769
  670loPI   C6A10716   0.108  15.468   8.302 -0.0862  0.1713  0.1141
  670loPI   C1B10717   0.383  16.308  10.092 -0.4076 -0.2085  0.4478
  670loPI   C2B10718   0.435  16.290   9.727  0.0441 -0.1569  0.1096
  670loPI   C3B10719   0.572  16.290   9.252  0.0053 -0.0165 -0.1819
  670loPI   C4B10720   0.609  16.275   8.834 -0.0479  0.0949  0.1723
  671loPI    C110721  11.704   8.829  10.614  0.3030  0.0112 -0.1013
  671loPI    C210722  11.704   8.523  10.871  0.1569 -0.1284 -0.2652
  671loPI    C310723  11.708   8.898  11.008 -0.2390 -0.1966 -0.0504
  671loPI   PO410724  11.868   8.770  10.462 -0.1041 -0.1718  0.2656
  671loPI   GL110725  12.084   9.031  10.094 -0.0667 -0.1059  0.2125
  671loPI   GL210726  12.224   9.072   9.968 -0.2342  0.0526 -0.2518
  671loPI   C1A10727  11.878   9.383   9.795 -0.1116  0.2206  0.0180
  671loPI   C2A10728  11.974   9.452   9.346 -0.1028 -0.2141 -0.0380
  671loPI   C3A10729  11.931   9.354   8.909 -0.1544 -0.0836 -0.1495
  671loPI   C4A10730  11.864   9.444   8.432 -0.3979  0.4729 -0.0243
  671loPI   C5A10731  11.859   9.448   8.015 -0.3897 -0.1551 -0.1872
  671loPI   C6A10732  12.052   9.414   7.671  0.1683 -0.1361  0.1693
  671loPI   C1B10733  12.375   9.114   9.552 -0.0949 -0.0845  0.0481
  671loPI   C2B10734  12.334   9.171   9.121  0.0611 -0.1337 -0.4166
  671loPI   C3B10735  12.395   8.978   8.775  0.2022  0.2715  0.0117
  671loPI   C4B10736  12.333   9.171   8.495 -0.1269  0.1582 -0.0821
  672loPI    C110737   8.563  14.666  10.977  0.1910 -0.2527  0.1413
  672loPI    C210738   8.790  14.992  11.026 -0.0360 -0.0339 -0.2213
  672loPI    C310739   8.959  14.630  11.026  0.2971  0.1168 -0.3602
  672loPI   PO410740   8.457  14.617  10.739  0.0920  0.1232  0.0978
  672loPI   GL110741   8.459  14.504  10.326 -0.2741  0.0953  0.1063
  672loPI   GL210742   8.343  14.810  10.259 -0.1144 -0.1480  0.0991
  672loPI   C1A10743   8.439  14.321   9.994  0.4238  0.2936 -0.0390
  672loPI   C2A10744   8.454  14.326   9.473 -0.1916  0.1029 -0.2077
  672loPI   C3A10745   8.456  14.342   9.002  0.2079 -0.1919  0.0353
  672loPI   C4A10746   8.388  14.235   8.601 -0.4487 -0.2492  0.2834
  672loPI   C5A10747   8.049  14.380   8.318  0.0256 -0.0963  0.0622
  672loPI   C6A10748   7.869  14.756   8.339 -0.0549  0.0034  0.3154
  672loPI   C1B10749   8.489  14.819   9.898 -0.1936  0.0015 -0.1952
  672loPI   C2B10750   8.424  14.881   9.427 -0.1206 -0.0284  0.0931
  672loPI   C3B10751   8.507  14.831   8.944 -0.1021 -0.1563 -0.0982
  672loPI   C4B10752   8.534  14.659   8.449 -0.3116 -0.0313  0.0354
  673loPI    C110753  13.143   1.878  10.346 -0.1652  0.0184  0.2367
  673loPI    C210754  12.919   1.687  10.617 -0.1933 -0.1056  0.1272
  673loPI    C310755  13.271   1.845  10.724 -0.0952 -0.3576  0.1836
  673loPI   PO410756  13.197   1.718  10.156 -0.0751 -0.0852 -0.2876
  673loPI   GL110757  13.197   1.617   9.766  0.0450 -0.2053  0.0898
  673loPI   GL210758  12.924   1.661   9.817  0.1746 -0.0479  0.1957
  673loPI   C1A10759  13.260   1.525   9.300  0.2727 -0.1137 -0.0350
  673loPI   C2A10760  13.256   1.464   8.908  0.1004  0.0532 -0.0137
  673loPI   C3A10761  13.282   1.523   8.446 -0.3096 -0.0602 -0.1702
  673loPI   C4A10762  13.322   1.478   8.017  0.1672 -0.0967  0.1664
  673loPI   C5A10763  13.053   1.519   7.707 -0.1065 -0.0366  0.1968
  673loPI   C6A10764  12.941   1.601   7.254  0.0580  0.0490  0.0889
  673loPI   C1B10765  12.782   1.777   9.412 -0.1929  0.1015  0.0656
  673loPI   C2B10766  12.741   1.766   8.933  0.1156 -0.1605  0.0058
  673loPI   C3B10767  12.896   1.875   8.496  0.0164 -0.0847  0.3295
  673loPI   C4B10768  12.711   1.928   8.066  0.0629 -0.1012 -0.4940
  674loPI    C110769   6.151   9.245  10.960  0.1272  0.3947 -0.0631
  674loPI    C210770   6.435   9.063  11.174 -0.0944  0.0952 -0.0172
  674loPI    C310771   6.190   9.326  11.349  0.1015  0.2956 -0.0397
  674loPI   PO410772   6.174   9.083  10.755  0.0148 -0.1443  0.0483
  674loPI   GL110773   6.339   9.155  10.278 -0.0642 -0.0926 -0.2274
  674loPI   GL210774   5.934   9.210  10.342 -0.0870  0.1742 -0.2137
  674loPI   C1A10775   6.475   9.231   9.826 -0.0847  0.0127  0.0061
  674loPI   C2A10776   6.446   9.209   9.352 -0.1314 -0.1413  0.0272
  674loPI   C3A10777   6.413   9.115   8.992 -0.0753  0.0471  0.0181
  674loPI   C4A10778   6.368   9.207   8.571  0.1776  0.1514 -0.2727
  674loPI   C5A10779   6.652   9.302   8.115  0.1699 -0.0023 -0.1678
  674loPI   C6A10780   6.762   8.980   7.761  0.1097 -0.0331 -0.0317
  674loPI   C1B10781   6.033   9.417   9.992 -0.2312 -0.1061  0.0520
  674loPI   C2B10782   6.023   9.447   9.613 -0.1011  0.1286 -0.0019
  674loPI   C3B10783   5.968   9.464   9.187 -0.2777 -0.0096 -0.2291
  674loPI   C4B10784   5.925   9.372   8.782 -0.2060  0.0571 -0.0466
  675loPI    C110785   1.673  17.558  10.738  0.0291 -0.3138  0.0749
  675loPI    C210786   1.974  17.475  10.988  0.0499  0.1012  0.1938
  675loPI    C310787   1.710  17.762  11.080  0.0155  0.2093 -0.2250
  675loPI   PO410788   1.794  17.492  10.510 -0.0019  0.1222  0.2672
  675loPI   GL110789   1.909  17.169  10.277  0.0129 -0.0065  0.2269
  675loPI   GL210790   2.188  17.146  10.183 -0.3586  0.1229 -0.0998
  675loPI   C1A10791   1.865  17.011   9.833 -0.0251 -0.1295  0.1547
  675loPI   C2A10792   1.858  16.955   9.397 -0.2118  0.0820  0.2724
  675loPI   C3A10793   1.982  17.078   8.948  0.2151 -0.0290 -0.0279
  675loPI   C4A10794   2.034  16.922   8.505  0.2580  0.1716 -0.0928
  675loPI   C5A10795   1.758  16.626   8.240 -0.0299 -0.1836 -0.0262
  675loPI   C6A10796   1.355  16.477   7.981 -0.0240  0.2719 -0.1027
  675loPI   C1B10797   2.293  17.255   9.736 -0.0548  0.3455 -0.1513
  675loPI   C2B10798   2.296  17.282   9.301  0.1765 -0.3439  0.0804
  675loPI   C3B10799   2.493  17.200   8.947  0.1369 -0.0196  0.0224
  675loPI   C4B10800   2.427  17.276   8.620  0.2707  0.2888  0.3087
  676loPI    C110801  11.877  14.688  11.013 -0.1490 -0.1279  0.0219
  676loPI    C210802  12.095  14.479  10.751  0.1461  0.1397  0.0481
  676loPI    C310803  12.128  14.404  11.143 -0.0505 -0.0367  0.0325
  676loPI   PO410804  11.697  14.776  10.757 -0.1139 -0.1148 -0.0678
  676loPI   GL110805  11.744  14.844  10.334  0.0515  0.1481  0.0529
  676loPI   GL210806  11.436  14.878  10.321  0.2488  0.1745 -0.1635
  676loPI   C1A10807  11.701  14.886   9.870 -0.1414 -0.2719 -0.3617
  676loPI   C2A10808  11.671  15.001   9.459  0.0494 -0.3177 -0.0677
  676loPI   C3A10809  11.745  14.960   9.010 -0.2551  0.1412 -0.1775
  676loPI   C4A10810  11.538  14.942   8.594  0.3125  0.0469 -0.0936
  676loPI   C5A10811  11.460  14.624   8.239 -0.3024 -0.2106 -0.2853
  676loPI   C6A10812  11.270  14.623   7.812 -0.0673  0.0999  0.0178
  676loPI   C1B10813  11.294  14.659  10.017  0.1361 -0.2778 -0.1252
  676loPI   C2B10814  11.272  14.706   9.591 -0.4682  0.0668  0.0465
  676loPI   C3B10815  11.279  14.730   9.077 -0.0685 -0.0871  0.1510
  676loPI   C4B10816  11.127  14.618   8.647 -0.0987 -0.1564 -0.1201
  677PSPI    C110817  16.945   2.943   5.392 -0.2146 -0.0153 -0.0483
  677PSPI    C210818  16.601   2.740   5.393 -0.1607 -0.1066 -0.0260
  677PSPI    C310819  16.878   2.664   5.115 -0.3209  0.2447 -0.2895
  677PSPI   PO410820  16.845   3.183   5.380 -0.0710 -0.0494  0.0527
  677PSPI   GL110821  16.871   3.369   5.803  0.0871 -0.0465  0.4102
  677PSPI   GL210822  16.763   3.122   5.913  0.0415  0.3100 -0.0580
  677PSPI   C1A10823  17.126   3.596   5.985  0.2892 -0.2638 -0.0418
  677PSPI   C2A10824  17.522   3.541   6.244 -0.1059  0.0211 -0.2326
  677PSPI   C3A10825  17.772   3.409   6.555  0.4552 -0.0420  0.0149
  677PSPI   C4A10826  18.044   3.178   6.813 -0.3571 -0.0114  0.0268
  677PSPI   C1B10827  16.837   3.223   6.333 -0.1266  0.3273 -0.3902
  677PSPI   C2B10828  16.916   3.240   6.736  0.1077 -0.3175  0.0294
  677PSPI   C3B10829  16.797   3.420   7.054 -0.0710  0.1916 -0.0595
  677PSPI   C4B10830  16.520   3.256   7.344  0.2135  0.0650 -0.0142
  678PSPI    C110831  18.150  17.932   5.705  0.0132 -0.1373 -0.0714
  678PSPI    C210832  18.054  18.039   5.332 -0.0698  0.2150  0.0474
  678PSPI    C310833  17.895  17.709   5.492 -0.2765  0.2309 -0.1199
  678PSPI   PO410834  18.095  18.108   5.859  0.0917  0.1253  0.1987
  678PSPI   GL110835  18.182  18.104   6.224  0.0544 -0.1224 -0.2593
  678PSPI   GL210836  18.023  17.873   6.440 -0.3068  0.2029 -0.1139
  678PSPI   C1A10837  18.398  18.306   6.570  0.0887  0.0201 -0.1296
  678PSPI   C2A10838  18.265  18.456   7.015 -0.0106  0.0504 -0.3386
  678PSPI   C3A10839  18.373  18.606   7.425 -0.2237  0.0391  0.2152
  678PSPI   C4A10840  18.407  18.931   7.764 -0.0145  0.2357 -0.0558
  678PSPI   C1B10841  17.828  17.945   6.779  0.0360  0.4185  0.4851
  678PSPI   C2B10842  17.702  17.946   7.133  0.1183  0.1547 -0.2948
  678PSPI   C3B10843  17.335  17.764   7.267  0.2175  0.0144  0.2269
  678PSPI   C4B10844  17.139  17.796   7.579  0.3154 -0.0261  0.0181
  679PSPI    C110845  12.216  15.656   5.900 -0.0876  0.1245  0.0739
  679PSPI    C210846  12.342  15.287   5.988  0.2900  0.1604 -0.2847
  679PSPI    C310847  11.954  15.354   5.919  0.1298 -0.0525  0.3361
  679PSPI   PO410848  12.248  15.845   6.030  0.0235 -0.1375  0.0933
  679PSPI   GL110849  11.985  16.068   6.244 -0.3143  0.2394 -0.1854
  679PSPI   GL210850  11.768  15.698   6.186 -0.0887  0.0546 -0.1142
  679PSPI   C1A10851  12.125  16.084   6.716  0.1101 -0.0074 -0.0667
  679PSPI   C2A10852  12.150  16.386   6.935 -0.0423 -0.2081  0.0084
  679PSPI   C3A10853  12.352  16.534   7.189  0.0135  0.3036 -0.1692
  679PSPI   C4A10854  12.508  16.854   7.308  0.3667 -0.1334 -0.5429
  679PSPI   C1B10855  12.058  15.576   6.560  0.0783  0.3019  0.0250
  679PSPI   C2B10856  12.186  15.612   6.964  0.3345 -0.1897 -0.0108
  679PSPI   C3B10857  12.102  15.646   7.347  0.3708  0.1232  0.0361
  679PSPI   C4B10858  12.180  15.819   7.809 -0.0139  0.2124  0.0047
  680PSPI    C110859  17.929  16.720   5.878 -0.1615 -0.2215 -0.0299
  680PSPI    C210860  17.963  16.424   6.146 -0.0243  0.0237  0.2294
  680PSPI    C310861  18.107  16.377   5.775  0.1533 -0.1700  0.3210
  680PSPI   PO410862  18.027  16.944   5.987  0.2103 -0.0638  0.0440
  680PSPI   GL110863  18.323  17.103   6.231 -0.0175  0.0842  0.3081
  680PSPI   GL210864  18.388  17.425   6.322  0.0995  0.2469  0.0485
  680PSPI   C1A10865  18.336  16.938   6.671 -0.3640  0.1328  0.0546
  680PSPI   C2A10866  18.243  16.940   7.060  0.0678 -0.1854  0.3221
  680PSPI   C3A10867  18.246  16.770   7.533  0.5074 -0.0501  0.3195
  680PSPI   C4A10868  18.590  16.568   7.706 -0.0193  0.2040 -0.1016
  680PSPI   C1B10869  18.557  17.401   6.747  0.3269  0.3267  0.0104
  680PSPI   C2B10870  18.516  17.514   7.171 -0.4143  0.2747  0.0798
  680PSPI   C3B10871  18.444  17.258   7.458  0.0296  0.0201 -0.1572
  680PSPI   C4B10872  18.655  17.031   7.743  0.1018 -0.0599 -0.0562
  681PSPI    C110873  16.852  12.279   5.719  0.1345 -0.0863 -0.0523
  681PSPI    C210874  17.082  12.596   5.803  0.0055  0.0119 -0.0655
  681PSPI    C310875  17.011  12.496   5.422  0.0812 -0.0594 -0.0614
  681PSPI   PO410876  16.710  12.213   5.932  0.2740 -0.2999  0.3425
  681PSPI   GL110877  16.417  11.998   6.151 -0.3233 -0.1794 -0.0568
  681PSPI   GL210878  16.116  11.984   6.193  0.1499 -0.1536 -0.1357
  681PSPI   C1A10879  16.619  11.818   6.576  0.0001 -0.0718  0.0095
  681PSPI   C2A10880  16.582  11.536   6.950  0.0958  0.4633  0.0776
  681PSPI   C3A10881  16.406  11.261   7.257 -0.1503 -0.1486  0.0213
  681PSPI   C4A10882  16.114  11.179   7.549 -0.3643 -0.0992  0.0832
  681PSPI   C1B10883  16.127  11.676   6.498 -0.1566 -0.1629 -0.1152
  681PSPI   C2B10884  16.054  11.380   6.723  0.0611  0.1503  0.0581
  681PSPI   C3B10885  15.882  11.348   7.131  0.0966 -0.3664  0.3375
  681PSPI   C4B10886  15.522  11.249   7.420 -0.0289  0.0653  0.6285
  682PSPI    C110887   5.694   4.541   5.311  0.1251  0.1501  0.0202
  682PSPI    C210888   6.012   4.535   5.070  0.0141  0.0765 -0.1262
  682PSPI    C310889   5.644   4.558   4.915 -0.0632 -0.0742  0.0319
  682PSPI   PO410890   5.658   4.773   5.596  0.1140  0.3419  0.2381
  682PSPI   GL110891   5.560   4.931   6.063  0.0861  0.0358  0.2771
  682PSPI   GL210892   5.226   4.784   6.148  0.1265 -0.2213 -0.1618
  682PSPI   C1A10893   5.714   4.634   6.423  0.2154 -0.1994 -0.1311
  682PSPI   C2A10894   5.691   4.574   6.837 -0.2484  0.2488  0.1119
  682PSPI   C3A10895   5.581   4.542   7.187 -0.3233  0.5227  0.2296
  682PSPI   C4A10896   5.521   4.669   7.603 -0.0115  0.0614 -0.3818
  682PSPI   C1B10897   5.245   4.727   6.636  0.1830 -0.2147  0.3117
  682PSPI   C2B10898   5.370   4.907   6.933 -0.1437 -0.1299 -0.0431
  682PSPI   C3B10899   5.366   5.094   7.371 -0.0521 -0.0266 -0.0402
  682PSPI   C4B10900   5.570   5.345   7.651  0.0175 -0.2377  0.0434
  683PSPI    C110901   9.085   1.886   5.645  0.0967 -0.1480  0.0844
  683PSPI    C210902   9.018   1.574   5.404 -0.0361  0.0525 -0.1428
  683PSPI    C310903   9.096   1.933   5.248 -0.2470  0.2125  0.1116
  683PSPI   PO410904   8.918   1.914   5.824  0.2531  0.2984 -0.0044
  683PSPI   GL110905   8.915   2.067   6.246  0.2148 -0.1360 -0.2561
  683PSPI   GL210906   9.068   2.313   6.352  0.0582  0.0273 -0.0556
  683PSPI   C1A10907   8.923   1.962   6.684  0.0020 -0.0320 -0.3378
  683PSPI   C2A10908   8.860   1.807   7.155  0.1493  0.0023 -0.4034
  683PSPI   C3A10909   9.029   1.747   7.568 -0.3850  0.1392  0.2028
  683PSPI   C4A10910   9.328   1.619   7.886 -0.2674  0.0457  0.2210
  683PSPI   C1B10911   9.105   2.399   6.764  0.2050 -0.2182 -0.0973
  683PSPI   C2B10912   9.079   2.258   7.207  0.1110  0.2452  0.0167
  683PSPI   C3B10913   8.925   2.307   7.607  0.1211  0.0782 -0.2185
  683PSPI   C4B10914   8.957   2.313   8.060 -0.3504  0.0653 -0.0600
  684PSPI    C110915   4.453  12.357   6.325 -0.0771  0.2337  0.3778
  684PSPI    C210916   4.509  12.027   6.543 -0.0913  0.0486  0.1065
  684PSPI    C310917   4.796  12.305   6.524  0.1586 -0.2187 -0.1215
  684PSPI   PO410918   4.264  12.584   6.346  0.0710 -0.3311 -0.0096
  684PSPI   GL110919   4.061  12.905   6.453 -0.3045  0.1813  0.1620
  684PSPI   GL210920   4.285  12.990   6.690  0.0058 -0.2606  0.1982
  684PSPI   C1A10921   3.816  13.092   6.857 -0.1492  0.1609 -0.1379
  684PSPI   C2A10922   3.747  13.327   7.160  0.1616  0.3407  0.0629
  684PSPI   C3A10923   3.735  13.566   7.489 -0.0140  0.1594 -0.0046
  684PSPI   C4A10924   3.553  13.815   7.782  0.0567 -0.2315  0.0524
  684PSPI   C1B10925   4.185  12.880   7.091 -0.2110 -0.2378 -0.1501
  684PSPI   C2B10926   4.138  13.016   7.427  0.0794 -0.1512  0.1940
  684PSPI   C3B10927   3.930  13.260   7.825  0.2933  0.3389  0.2853
  684PSPI   C4B10928   3.848  13.488   8.110  0.1797  0.1418  0.1057
  685PSPI    C110929   3.255   9.358   5.694  0.1458  0.2126 -0.0955
  685PSPI    C210930   2.999   9.234   5.413 -0.1359 -0.2065  0.3310
  685PSPI    C310931   3.393   9.198   5.355 -0.1875 -0.1970 -0.0457
  685PSPI   PO410932   3.103   9.547   5.780  0.0734  0.0234 -0.0268
  685PSPI   GL110933   3.098   9.650   6.264 -0.0325 -0.4533  0.2030
  685PSPI   GL210934   3.482   9.692   6.346 -0.0012 -0.0346  0.0604
  685PSPI   C1A10935   2.823   9.386   6.367  0.0544 -0.2388  0.0151
  685PSPI   C2A10936   2.512   9.055   6.645 -0.1461  0.0213 -0.2213
  685PSPI   C3A10937   2.432   8.963   7.023  0.5420  0.3045 -0.3694
  685PSPI   C4A10938   2.051   9.123   7.205 -0.0823  0.1475  0.2444
  685PSPI   C1B10939   3.396   9.763   6.722  0.0387  0.2399 -0.0594
  685PSPI   C2B10940   3.033   9.667   6.905 -0.1810  0.2558  0.1857
  685PSPI   C3B10941   2.805   9.662   7.313  0.1000  0.0238  0.0359
  685PSPI   C4B10942   2.669   9.750   7.714 -0.1089  0.1108  0.2597
  686PSPI    C110943   4.353   4.385   5.427 -0.0966 -0.2362  0.1889
  686PSPI    C210944   4.364   4.125   5.123 -0.0109 -0.0063 -0.0072
  686PSPI    C310945   4.102   4.427   5.119 -0.2439 -0.1980  0.3128
  686PSPI   PO410946   4.602   4.489   5.507  0.1901  0.0405  0.2709
  686PSPI   GL110947   4.733   4.546   5.942 -0.0554 -0.1582  0.0730
  686PSPI   GL210948   4.897   4.210   5.826 -0.2007 -0.2106 -0.2914
  686PSPI   C1A10949   4.443   4.767   6.298  0.0220 -0.1205  0.0842
  686PSPI   C2A10950   4.333   4.609   6.643 -0.1927  0.1006  0.0027
  686PSPI   C3A10951   4.253   4.591   7.102  0.0758  0.1207 -0.3035
  686PSPI   C4A10952   4.526   4.480   7.399  0.0831 -0.0802 -0.0207
  686PSPI   C1B10953   4.982   4.119   6.227 -0.0268 -0.0648 -0.2443
  686PSPI   C2B10954   5.002   3.983   6.559  0.1279  0.0647  0.1122
  686PSPI   C3B10955   4.914   3.834   6.926  0.0720  0.1833 -0.3762
  686PSPI   C4B10956   4.850   4.113   7.299  0.2075  0.1490  0.0263
  687PSPI    C110957   4.311   6.721   5.127 -0.2022 -0.0563 -0.0944
  687PSPI    C210958   4.638   6.949   5.088 -0.3236  0.1477  0.0622
  687PSPI    C310959   4.365   6.940   4.796 -0.1489 -0.0739 -0.0974
  687PSPI   PO410960   4.091   6.757   5.349 -0.0775 -0.2439 -0.1152
  687PSPI   GL110961   3.997   6.973   5.757  0.1261 -0.1308 -0.1870
  687PSPI   GL210962   4.106   6.652   5.866  0.1714  0.1537 -0.0348
  687PSPI   C1A10963   3.790   7.060   6.223  0.3889 -0.4214  0.0108
  687PSPI   C2A10964   3.876   7.129   6.641 -0.2868 -0.2087  0.1003
  687PSPI   C3A10965   3.967   7.094   7.010  0.3190 -0.2796 -0.1677
  687PSPI   C4A10966   3.854   7.092   7.350  0.1957  0.0376 -0.0112
  687PSPI   C1B10967   4.294   6.619   6.286  0.1398 -0.1486 -0.3999
  687PSPI   C2B10968   4.272   6.732   6.727  0.1248  0.2040 -0.1092
  687PSPI   C3B10969   4.422   6.532   7.036  0.0677 -0.0793 -0.1365
  687PSPI   C4B10970   4.447   6.461   7.501  0.1091 -0.0651 -0.1414
  688PSPI    C110971   7.138  11.356   5.898 -0.0204  0.0712 -0.1486
  688PSPI    C210972   6.988  11.707   5.780 -0.0582  0.0845 -0.0613
  688PSPI    C310973   6.818  11.366   5.659 -0.1774  0.0999  0.0605
  688PSPI   PO410974   7.203  11.268   6.156  0.0681 -0.0675 -0.0220
  688PSPI   GL110975   7.233  11.347   6.557  0.3487 -0.0300  0.0218
  688PSPI   GL210976   7.001  11.116   6.712 -0.1812 -0.0535 -0.1525
  688PSPI   C1A10977   7.346  11.523   6.926  0.1395  0.2749 -0.1581
  688PSPI   C2A10978   7.493  11.506   7.274  0.0065 -0.0611  0.2649
  688PSPI   C3A10979   7.456  11.289   7.596  0.2830 -0.1513  0.1164
  688PSPI   C4A10980   7.622  11.074   8.009 -0.1676  0.1240 -0.1568
  688PSPI   C1B10981   6.784  10.918   7.042 -0.0384 -0.2973 -0.1149
  688PSPI   C2B10982   6.522  10.856   7.334  0.4007  0.0232  0.0082
  688PSPI   C3B10983   6.518  10.954   7.733  0.1077  0.3598  0.0725
  688PSPI   C4B10984   6.307  10.923   8.046 -0.2435  0.2125  0.0486
  689PSPI    C110985  11.634  12.823   6.033  0.0977  0.0989 -0.2894
  689PSPI    C210986  11.613  12.714   5.648 -0.0390 -0.1267 -0.2197
  689PSPI    C310987  11.815  12.488   5.909  0.0563  0.0277 -0.1588
  689PSPI   PO410988  11.348  12.866   6.082  0.1776  0.0626 -0.2472
  689PSPI   GL110989  11.087  12.779   6.456 -0.4189 -0.0664  0.0311
  689PSPI   GL210990  11.080  13.121   6.461 -0.1900  0.0088  0.0359
  689PSPI   C1A10991  11.202  12.496   6.798 -0.1740  0.2463 -0.0549
  689PSPI   C2A10992  11.272  12.618   7.222 -0.1801  0.3225 -0.2884
  689PSPI   C3A10993  11.583  12.603   7.585  0.4758  0.1278  0.2556
  689PSPI   C4A10994  11.860  12.847   7.846  0.3851 -0.2513 -0.0367
  689PSPI   C1B10995  10.972  13.015   6.892  0.4110 -0.2234  0.1780
  689PSPI   C2B10996  10.939  12.934   7.377 -0.2636 -0.2672 -0.0623
  689PSPI   C3B10997  10.850  13.142   7.789  0.4020 -0.1179 -0.1370
  689PSPI   C4B10998  10.603  13.475   7.809 -0.3421 -0.1787  0.1143
  690PSPI    C110999  17.306   0.582   5.686  0.0879 -0.0332  0.2670
  690PSPI    C211000  17.520   0.300   5.500 -0.2859 -0.1777  0.0444
  690PSPI    C311001  17.530   0.677   5.370 -0.0039 -0.1402  0.1686
  690PSPI   PO411002  17.285   0.568   5.858  0.1122 -0.0732  0.1011
  690PSPI   GL111003  17.065   0.362   6.087  0.0791 -0.2076 -0.0034
  690PSPI   GL211004  16.784   0.440   6.104 -0.1957  0.0309 -0.6756
  690PSPI   C1A11005  17.419   0.222   6.438 -0.2092  0.3031  0.1728
  690PSPI   C2A11006  17.582   0.361   6.917  0.1468 -0.0039  0.2043
  690PSPI   C3A11007  17.489   0.687   7.184 -0.0607 -0.3107  0.1625
  690PSPI   C4A11008  17.406   1.070   7.185 -0.3135  0.1549  0.0571
  690PSPI   C1B11009  16.979   0.573   6.527  0.1418  0.1226 -0.0534
  690PSPI   C2B11010  17.137   0.778   6.843 -0.0120 -0.0864  0.0504
  690PSPI   C3B11011  16.947   0.872   7.262  0.2622 -0.1379 -0.3407
  690PSPI   C4B11012  16.568   0.863   7.439  0.1673 -0.0375 -0.1269
  691PSPI    C111013   1.734   4.471   5.218 -0.0367 -0.1685  0.2023
  691PSPI    C211014   1.737   4.098   5.073  0.0566 -0.1321  0.1092
  691PSPI    C311015   2.082   4.290   5.138  0.0075 -0.0425  0.1060
  691PSPI   PO411016   1.434   4.506   5.197  0.0071 -0.0269 -0.1111
  691PSPI   GL111017   1.235   4.723   5.458 -0.0505  0.0919  0.0945
  691PSPI   GL211018   0.938   4.635   5.556  0.2864  0.0349  0.0510
  691PSPI   C1A11019   1.484   5.003   5.764  0.0834  0.1803  0.0570
  691PSPI   C2A11020   1.610   4.927   6.103  0.4435  0.1280  0.1515
  691PSPI   C3A11021   1.814   4.866   6.542  0.0030  0.0220 -0.1850
  691PSPI   C4A11022   2.162   4.607   6.766  0.1056  0.1034 -0.0635
  691PSPI   C1B11023   1.242   4.517   5.950 -0.0905 -0.1215 -0.0230
  691PSPI   C2B11024   1.254   4.604   6.445  0.0543  0.0738  0.3515
  691PSPI   C3B11025   0.989   4.748   6.745  0.0833 -0.0413 -0.0049
  691PSPI   C4B11026   0.746   5.185   6.737  0.0209 -0.2181  0.0429
  692PSPI    C111027  12.590   6.381   5.352  0.0265  0.0270 -0.2069
  692PSPI    C211028  12.591   6.717   5.135  0.0895  0.0130 -0.2288
  692PSPI    C311029  12.249   6.580   5.291  0.0981  0.2048 -0.0363
  692PSPI   PO411030  12.874   6.406   5.534  0.0987  0.0495 -0.2638
  692PSPI   GL111031  12.952   6.374   6.018 -0.3905  0.1723  0.3010
  692PSPI   GL211032  13.256   6.470   5.962  0.1049  0.2538 -0.0659
  692PSPI   C1A11033  12.737   6.694   6.198 -0.0037 -0.1434 -0.3126
  692PSPI   C2A11034  12.709   7.080   6.386  0.2167 -0.0997 -0.1891
  692PSPI   C3A11035  13.013   7.064   6.761 -0.1271 -0.2345 -0.0372
  692PSPI   C4A11036  13.308   7.215   7.084  0.1943  0.0255  0.0770
  692PSPI   C1B11037  13.260   6.727   6.297  0.0990 -0.3362  0.0745
  692PSPI   C2B11038  13.445   7.150   6.541  0.2533  0.2416 -0.1500
  692PSPI   C3B11039  13.803   7.336   6.719 -0.1920 -0.0506  0.0895
  692PSPI   C4B11040  14.209   7.369   6.723 -0.2259  0.1547 -0.1213
  693PSPI    C111041   3.712  13.030   5.975  0.0472 -0.0856  0.0222
  693PSPI    C211042   3.737  12.631   5.985  0.0095 -0.0857  0.1181
  693PSPI    C311043   4.070  12.851   5.960  0.0195 -0.1283 -0.1546
  693PSPI   PO411044   3.635  13.115   6.122  0.1559  0.2135  0.1106
  693PSPI   GL111045   3.537  12.874   6.467  0.1122  0.4820 -0.1447
  693PSPI   GL211046   3.640  12.542   6.466 -0.2547  0.1257 -0.0792
  693PSPI   C1A11047   3.416  12.816   6.913 -0.0071  0.0316  0.2325
  693PSPI   C2A11048   3.365  13.044   7.277 -0.1781  0.0169 -0.1047
  693PSPI   C3A11049   3.404  13.198   7.781  0.0702  0.0183  0.0142
  693PSPI   C4A11050   3.355  13.484   8.070 -0.0292 -0.0833  0.1079
  693PSPI   C1B11051   3.831  12.533   6.891  0.0800  0.3207 -0.0712
  693PSPI   C2B11052   3.732  12.740   7.254  0.2013  0.1406 -0.1195
  693PSPI   C3B11053   3.392  12.649   7.627  0.0565 -0.2090  0.1415
  693PSPI   C4B11054   3.240  12.262   7.705 -0.2655  0.0757  0.2292
  694PSPI    C111055   7.233  18.284   5.693 -0.0031 -0.2328 -0.2181
  694PSPI    C211056   7.589  18.114   5.625  0.3172  0.2132  0.2667
  694PSPI    C311057   7.443  18.383   5.367  0.1790 -0.1949 -0.0909
  694PSPI   PO411058   7.362  18.339   5.990  0.1096 -0.0803 -0.3979
  694PSPI   GL111059   7.141  18.346   6.401  0.2439  0.0465 -0.0818
  694PSPI   GL211060   7.512  18.269   6.554 -0.0026 -0.1023 -0.1759
  694PSPI   C1A11061   7.118  18.079   6.679  0.1537 -0.1185 -0.1406
  694PSPI   C2A11062   7.424  17.955   7.106  0.0874 -0.0062  0.1944
  694PSPI   C3A11063   7.636  17.539   7.316 -0.0198 -0.1497  0.0766
  694PSPI   C4A11064   7.552  17.162   7.436  0.1691 -0.2435  0.0597
  694PSPI   C1B11065   7.315  18.486   6.883 -0.0704 -0.0810  0.3290
  694PSPI   C2B11066   7.339  18.873   7.017  0.3355 -0.0333  0.0981
  694PSPI   C3B11067   7.243  19.228   7.067 -0.2044 -0.3099 -0.1590
  694PSPI   C4B11068   6.952  19.594   7.183 -0.0588  0.2518  0.1895
  695PSPI    C111069  17.721  17.462   6.299 -0.0434 -0.0520 -0.0915
  695PSPI    C211070  17.997  17.514   6.015  0.0814 -0.0237  0.0341
  695PSPI    C311071  17.716  17.792   6.073 -0.0586 -0.1162 -0.1855
  695PSPI   PO411072  17.698  17.223   6.301  0.0707 -0.0597  0.0327
  695PSPI   GL111073  17.836  16.888   6.427 -0.0189  0.0865 -0.1932
  695PSPI   GL211074  17.549  16.641   6.350 -0.0585 -0.0681 -0.0901
  695PSPI   C1A11075  17.799  16.896   6.894  0.1524 -0.3022 -0.2778
  695PSPI   C2A11076  17.643  16.836   7.355  0.3005 -0.1110  0.3085
  695PSPI   C3A11077  17.851  16.739   7.850 -0.0633  0.1854  0.0483
  695PSPI   C4A11078  18.232  16.630   8.041  0.1864  0.3502 -0.0453
  695PSPI   C1B11079  17.337  16.577   6.679  0.1440  0.3968 -0.4550
  695PSPI   C2B11080  17.120  16.843   6.917 -0.1021  0.0429 -0.0146
  695PSPI   C3B11081  16.769  17.000   7.116  0.0481  0.0241 -0.1649
  695PSPI   C4B11082  16.614  17.260   7.381 -0.0378 -0.0464 -0.1673
  696PSPI    C111083   0.678  18.041   5.391  0.0855 -0.0235  0.0079
  696PSPI    C211084   0.317  18.126   5.241  0.2711  0.3419 -0.2505
  696PSPI    C311085   0.521  17.810   5.105 -0.0587 -0.0311  0.0925
  696PSPI   PO411086   0.531  18.065   5.757 -0.1527 -0.1119  0.0430
  696PSPI   GL111087   0.682  17.995   6.184  0.3990  0.0402  0.3085
  696PSPI   GL211088   0.763  18.291   6.101 -0.1839 -0.1002  0.3810
  696PSPI   C1A11089   0.808  17.963   6.542  0.0343 -0.0079 -0.0849
  696PSPI   C2A11090   0.942  18.165   6.941 -0.2410  0.1002  0.0444
  696PSPI   C3A11091   0.806  18.302   7.332 -0.1546 -0.0986 -0.1195
  696PSPI   C4A11092   0.976  18.517   7.770  0.1966  0.1344 -0.1114
  696PSPI   C1B11093   0.583  18.424   6.483 -0.1342  0.0526  0.0012
  696PSPI   C2B11094   0.429  18.242   6.815  0.3659 -0.0641 -0.0499
  696PSPI   C3B11095   0.225  18.263   7.271 -0.0441 -0.0671 -0.1452
  696PSPI   C4B11096   0.421  18.436   7.592  0.1510  0.0684 -0.1041
  697POPI    C111097   2.812   8.239   5.366 -0.0286  0.3704  0.0841
  697POPI    C211098   2.844   8.017   5.035 -0.1808  0.1671  0.2027
  697POPI    C311099   2.977   8.395   5.037 -0.0139  0.1120 -0.0333
  697POPI   PO411100   2.541   8.246   5.518  0.1744 -0.2528  0.1264
  697POPI   GL111101   2.504   8.254   6.012 -0.0739  0.0217  0.1929
  697POPI   GL211102   2.872   8.028   5.978 -0.1098 -0.2049  0.2797
  697POPI   C1A11103   2.093   8.186   6.282  0.1769  0.0045 -0.1570
  697POPI   D2A11104   1.692   8.009   6.375  0.1381 -0.1458 -0.3480
  697POPI   C3A11105   1.685   7.761   6.703 -0.1841 -0.1232  0.1219
  697POPI   C4A11106   1.602   7.544   7.085  0.1340  0.3899 -0.2448
  697POPI   C1B11107   2.949   7.849   6.335 -0.3457 -0.1839  0.0544
  697POPI   C2B11108   2.855   7.618   6.627 -0.3132 -0.1604 -0.1659
  697POPI   C3B11109   2.555   7.725   6.996 -0.1494 -0.3589  0.0415
  697POPI   C4B11110   2.562   8.000   7.356 -0.2955 -0.3849  0.0465
  698POPI    C111111   5.181   3.280   5.390  0.1135  0.0683  0.2564
  698POPI    C211112   5.357   2.924   5.434  0.2312  0.1009  0.0572
  698POPI    C311113   5.384   3.119   5.086  0.0339  0.2330  0.1144
  698POPI   PO411114   4.970   3.218   5.597  0.4494  0.1477  0.1923
  698POPI   GL111115   5.184   3.216   5.924  0.0840  0.1441 -0.0191
  698POPI   GL211116   5.421   2.942   5.935  0.3184 -0.1435 -0.1150
  698POPI   C1A11117   4.945   3.190   6.304  0.0811 -0.0758  0.0812
  698POPI   D2A11118   4.873   3.395   6.667 -0.0934 -0.0355  0.2024
  698POPI   C3A11119   5.016   3.321   7.064 -0.2486 -0.0504  0.2100
  698POPI   C4A11120   4.823   3.220   7.482  0.0003  0.0363  0.1600
  698POPI   C1B11121   5.434   3.023   6.298  0.0502  0.0044  0.1674
  698POPI   C2B11122   5.408   3.007   6.641 -0.2882  0.2583 -0.0392
  698POPI   C3B11123   5.682   2.890   7.050 -0.0934  0.2262 -0.3044
  698POPI   C4B11124   5.737   2.460   7.175  0.4517 -0.3362  0.0587
  699POPI    C111125  18.241   9.829   5.443  0.0825  0.0618  0.1083
  699POPI    C211126  18.445   9.629   5.162  0.1758  0.2347  0.0518
  699POPI    C311127  18.620   9.929   5.361  0.0753  0.1827  0.2207
  699POPI   PO411128  17.998   9.840   5.416 -0.0801 -0.0071 -0.0819
  699POPI   GL111129  17.645   9.841   5.821 -0.1521  0.0039 -0.2099
  699POPI   GL211130  17.623  10.133   6.127  0.0967 -0.0333  0.0971
  699POPI   C1A11131  17.449   9.577   6.218 -0.1745  0.0558  0.0157
  699POPI   D2A11132  17.289   9.434   6.699 -0.0566 -0.0748 -0.0863
  699POPI   C3A11133  17.206   9.182   7.054 -0.1651 -0.2825 -0.0957
  699POPI   C4A11134  17.131   9.015   7.438  0.1390  0.0869  0.0543
  699POPI   C1B11135  17.567   9.861   6.561 -0.3387 -0.1781 -0.0664
  699POPI   C2B11136  17.683   9.625   6.942 -0.1466  0.2423  0.1668
  699POPI   C3B11137  18.010   9.430   7.131 -0.1110  0.0695 -0.1134
  699POPI   C4B11138  18.419   9.244   7.125 -0.1816  0.2192 -0.0107
  700POPI    C111139   0.955  13.683   5.736 -0.0634  0.1032  0.1169
  700POPI    C211140   1.273  13.920   5.786 -0.0007  0.0673 -0.1021
  700POPI    C311141   0.928  14.074   5.654 -0.0337  0.0812  0.0000
  700POPI   PO411142   0.895  13.550   6.049  0.1840 -0.1212  0.2907
  700POPI   GL111143   1.137  13.715   6.462  0.2779 -0.0879 -0.0261
  700POPI   GL211144   1.375  13.375   6.535  0.1118 -0.1073  0.2778
  700POPI   C1A11145   1.217  13.759   6.848  0.1081  0.2839  0.1203
  700POPI   D2A11146   1.255  13.697   7.215  0.1213 -0.2765  0.0715
  700POPI   C3A11147   1.013  13.428   7.325  0.1504  0.0116 -0.0400
  700POPI   C4A11148   0.915  13.366   7.736 -0.1677 -0.0812 -0.2000
  700POPI   C1B11149   1.238  13.280   6.869  0.1321  0.0017  0.1133
  700POPI   C2B11150   0.973  12.998   7.093 -0.0855  0.0304 -0.1239
  700POPI   C3B11151   1.082  12.923   7.531  0.0104 -0.0465 -0.2528
  700POPI   C4B11152   0.996  12.837   7.992 -0.0482 -0.0390  0.2085
  701POPI    C111153  11.058   1.890   5.497  0.0481 -0.0041  0.0068
  701POPI    C211154  11.245   1.537   5.516 -0.1598 -0.1397 -0.3548
  701POPI    C311155  11.382   1.823   5.272 -0.0012  0.0283 -0.0746
  701POPI   PO411156  11.000   1.949   5.819  0.1101  0.1254 -0.4666
  701POPI   GL111157  11.077   1.978   6.239 -0.2009 -0.1637  0.0046
  701POPI   GL211158  11.281   1.862   6.240  0.1454  0.2678  0.0967
  701POPI   C1A11159  10.877   2.196   6.649  0.0801 -0.0430 -0.1703
  701POPI   D2A11160  10.593   2.296   7.005  0.1815  0.0194  0.0917
  701POPI   C3A11161  10.703   2.371   7.370 -0.1912 -0.2553  0.2887
  701POPI   C4A11162  10.829   2.217   7.736 -0.1051 -0.1162 -0.2036
  701POPI   C1B11163  11.364   1.873   6.657  0.0355 -0.2733  0.0614
  701POPI   C2B11164  11.488   1.706   7.104 -0.0248 -0.2513 -0.2508
  701POPI   C3B11165  11.675   1.707   7.518  0.0645  0.0486 -0.4057
  701POPI   C4B11166  12.035   1.690   7.688  0.1456 -0.0479 -0.1748
  702POPI    C111167   0.129  12.657   5.520  0.1077  0.0403  0.1612
  702POPI    C211168   0.122  12.327   5.295 -0.1910  0.1976 -0.0667
  702POPI    C311169   0.325  12.649   5.171 -0.2122  0.2261 -0.0274
  702POPI   PO411170  -0.098  12.689   5.572  0.4319 -0.2888 -0.0148
  702POPI   GL111171  -0.218  12.528   5.956  0.1445  0.1777  0.0457
  702POPI   GL211172  -0.050  12.289   6.242  0.2776 -0.0891  0.0137
  702POPI   C1A11173  -0.587  12.495   6.222 -0.1199  0.1670 -0.0859
  702POPI   D2A11174  -0.802  12.746   6.487 -0.1117 -0.0339 -0.2377
  702POPI   C3A11175  -1.068  12.538   6.822 -0.0806 -0.0002  0.3030
  702POPI   C4A11176  -0.971  12.483   7.260 -0.1901 -0.1000  0.0546
  702POPI   C1B11177   0.160  12.382   6.643  0.2413  0.1665 -0.1970
  702POPI   C2B11178   0.075  12.589   7.000  0.1333 -0.3320  0.0160
  702POPI   C3B11179  -0.164  12.817   7.407 -0.0796 -0.2240  0.2982
  702POPI   C4B11180   0.086  12.844   7.847  0.2591  0.3220  0.2829
  703POPI    C111181   9.671   7.365   5.851 -0.1139 -0.1956 -0.0176
  703POPI    C211182   9.871   7.319   5.508 -0.1094  0.2111 -0.0747
  703POPI    C311183   9.532   7.115   5.571  0.0096 -0.0375 -0.2225
  703POPI   PO411184   9.639   7.646   5.893  0.1188 -0.1838  0.2710
  703POPI   GL111185   9.525   7.793   6.251  0.1506 -0.2915 -0.1063
  703POPI   GL211186   9.230   7.665   6.200 -0.0963  0.0692 -0.2692
  703POPI   C1A11187   9.589   7.756   6.690  0.0105  0.2959  0.1751
  703POPI   D2A11188   9.824   7.417   6.907  0.0452 -0.1802 -0.5227
  703POPI   C3A11189   9.892   7.442   7.391  0.4111  0.3771 -0.0498
  703POPI   C4A11190   9.986   7.832   7.641 -0.0893 -0.0932 -0.0726
  703POPI   C1B11191   9.070   7.554   6.585 -0.4973 -0.0992 -0.1987
  703POPI   C2B11192   9.234   7.270   6.964 -0.1345 -0.2949  0.2253
  703POPI   C3B11193   9.145   6.911   7.079 -0.3128  0.3045  0.1737
  703POPI   C4B11194   9.083   6.755   7.456 -0.1431 -0.2207 -0.4340
  704POPI    C111195   4.010  10.441   5.670  0.0959  0.0023 -0.0516
  704POPI    C211196   3.925  10.323   5.297  0.0795  0.0545 -0.0644
  704POPI    C311197   4.137  10.657   5.358  0.0784  0.0484 -0.0269
  704POPI   PO411198   3.978  10.194   5.796  0.0315 -0.2184 -0.0171
  704POPI   GL111199   3.759  10.226   6.107 -0.3877  0.0054  0.3375
  704POPI   GL211200   3.862  10.535   6.347  0.2258  0.1476  0.0897
  704POPI   C1A11201   3.709  10.038   6.546 -0.2590 -0.1679  0.1484
  704POPI   D2A11202   3.836  10.015   6.961 -0.0689  0.2284  0.0221
  704POPI   C3A11203   3.741  10.003   7.365 -0.0725 -0.2389  0.2819
  704POPI   C4A11204   3.452  10.183   7.610  0.0970 -0.2662  0.0866
  704POPI   C1B11205   3.995  10.395   6.737  0.1083 -0.0937 -0.0772
  704POPI   C2B11206   4.202  10.313   7.154 -0.2376 -0.0238 -0.0969
  704POPI   C3B11207   4.307  10.242   7.552 -0.0763  0.1303 -0.0546
  704POPI   C4B11208   4.466  10.274   8.052 -0.0573 -0.0301 -0.2529
  705POPI    C111209   5.720   8.116   5.565  0.0205 -0.1016  0.0936
  705POPI    C211210   5.858   8.404   5.806 -0.0046 -0.1207  0.1309
  705POPI    C311211   6.003   8.367   5.435 -0.1581  0.0790  0.0490
  705POPI   PO411212   5.737   7.814   5.792 -0.1346 -0.0547  0.1786
  705POPI   GL111213   5.812   7.751   6.210  0.0715 -0.0269 -0.1885
  705POPI   GL211214   5.742   8.065   6.208  0.1022 -0.2066  0.1615
  705POPI   C1A11215   5.991   7.731   6.702 -0.2156 -0.0112  0.2230
  705POPI   D2A11216   6.098   7.622   7.044  0.0569 -0.3253  0.0027
  705POPI   C3A11217   5.982   7.351   7.288  0.0746 -0.1882 -0.0500
  705POPI   C4A11218   5.908   6.852   7.335 -0.2424  0.1374  0.2591
  705POPI   C1B11219   5.482   7.835   6.601  0.1039  0.0566 -0.0620
  705POPI   C2B11220   5.573   7.615   6.941  0.0823  0.2282 -0.3576
  705POPI   C3B11221   5.510   7.332   7.229 -0.2833 -0.0603 -0.3437
  705POPI   C4B11222   5.604   7.360   7.656  0.0047  0.1041  0.3116
  706POPI    C111223  14.161  14.496   5.878 -0.0793  0.0943  0.0296
  706POPI    C211224  14.516  14.322   5.818 -0.1293 -0.0132  0.0438
  706POPI    C311225  14.323  14.491   5.512  0.0016  0.1757  0.0637
  706POPI   PO411226  14.127  14.648   6.138  0.1172  0.0435  0.0718
  706POPI   GL111227  14.016  14.975   6.519 -0.2787  0.2542  0.1714
  706POPI   GL211228  13.890  15.316   6.420 -0.2220  0.0707  0.1890
  706POPI   C1A11229  14.013  15.146   6.960 -0.2911  0.0027 -0.0950
  706POPI   D2A11230  13.940  15.269   7.375  0.2798  0.2899 -0.0699
  706POPI   C3A11231  14.437  15.359   7.543 -0.0044 -0.3284  0.1427
  706POPI   C4A11232  14.488  15.433   7.946  0.0899  0.2601  0.0319
  706POPI   C1B11233  13.651  15.394   6.809  0.0445 -0.2734 -0.1955
  706POPI   C2B11234  13.465  15.219   7.240 -0.0637  0.3205 -0.1035
  706POPI   C3B11235  13.096  15.208   7.419 -0.0118 -0.0794  0.0335
  706POPI   C4B11236  12.870  15.558   7.662 -0.1024 -0.0074  0.2529
  707POPI    C111237   8.557   4.525   5.676 -0.0306  0.0002  0.0923
  707POPI    C211238   8.937   4.466   5.568 -0.0895 -0.2667  0.0229
  707POPI    C311239   8.648   4.237   5.414 -0.2622 -0.1607  0.1854
  707POPI   PO411240   8.629   4.673   5.906 -0.0357  0.1242  0.0561
  707POPI   GL111241   8.626   4.665   6.224 -0.1161  0.6162  0.1271
  707POPI   GL211242   8.706   4.948   6.382 -0.2192 -0.0025  0.0325
  707POPI   C1A11243   8.390   4.648   6.568 -0.1744  0.2726  0.1578
  707POPI   D2A11244   8.405   4.456   6.908  0.1084 -0.0817  0.1580
  707POPI   C3A11245   8.343   4.493   7.363 -0.1319  0.2489 -0.0998
  707POPI   C4A11246   8.205   4.458   7.662 -0.1642 -0.0582 -0.0446
  707POPI   C1B11247   8.777   4.819   6.751  0.0245 -0.1860  0.4032
  707POPI   C2B11248   8.954   4.490   6.951  0.4703 -0.0506  0.0828
  707POPI   C3B11249   9.297   4.148   7.263 -0.1866 -0.4466  0.0236
  707POPI   C4B11250   9.333   3.732   7.217 -0.1994 -0.0490 -0.0085
  708POPI    C111251  11.207  16.019   5.878  0.0057  0.1230  0.0888
  708POPI    C211252  10.918  16.286   5.948 -0.0620  0.0141  0.2293
  708POPI    C311253  10.858  15.899   6.031 -0.0106 -0.0654 -0.0907
  708POPI   PO411254  11.413  16.056   6.042 -0.0964  0.1136  0.2291
  708POPI   GL111255  11.576  16.102   6.476  0.1889  0.3226 -0.0656
  708POPI   GL211256  11.721  16.413   6.458 -0.1679  0.0928  0.1512
  708POPI   C1A11257  11.375  16.123   6.812  0.1250  0.1173  0.0632
  708POPI   D2A11258  11.372  15.905   7.286 -0.1136 -0.1376  0.0730
  708POPI   C3A11259  11.255  16.249   7.663  0.0629 -0.0326  0.0343
  708POPI   C4A11260  11.052  16.493   8.023 -0.1676  0.0205 -0.0625
  708POPI   C1B11261  11.340  16.673   6.594 -0.1450 -0.1016 -0.3034
  708POPI   C2B11262  11.154  16.498   7.010 -0.0326 -0.5809  0.2175
  708POPI   C3B11263  10.967  16.657   7.432  0.1889 -0.0042 -0.0673
  708POPI   C4B11264  10.611  16.481   7.744  0.0056 -0.0917 -0.3210
  709POPI    C111265  15.272   1.480   5.489  0.1416 -0.1275 -0.0646
  709POPI    C211266  14.932   1.273   5.446  0.1225 -0.0873 -0.1075
  709POPI    C311267  15.233   1.221   5.187  0.1985 -0.2188  0.0061
  709POPI   PO411268  15.230   1.569   5.791 -0.0347  0.2291  0.2333
  709POPI   GL111269  15.150   1.492   6.228  0.0838 -0.0600 -0.1435
  709POPI   GL211270  14.837   1.495   6.454 -0.2225 -0.1888  0.0718
  709POPI   C1A11271  15.179   1.877   6.495  0.0727 -0.0682  0.0340
  709POPI   D2A11272  15.356   2.255   6.680 -0.1375 -0.1590  0.2549
  709POPI   C3A11273  15.274   2.367   7.121 -0.4533 -0.1891 -0.0159
  709POPI   C4A11274  15.262   2.788   7.376 -0.0654  0.0935  0.0300
  709POPI   C1B11275  14.704   1.720   6.828 -0.0224 -0.0835 -0.0373
  709POPI   C2B11276  14.432   1.783   7.093 -0.0355 -0.3098  0.0646
  709POPI   C3B11277  14.276   1.704   7.569  0.0303 -0.0205  0.0078
  709POPI   C4B11278  14.128   1.713   7.952  0.2413  0.3396 -0.2647
  710POPI    C111279  13.568  11.029   6.003  0.2407  0.1538  0.0528
  710POPI    C211280  13.316  11.328   5.919  0.0649 -0.0173 -0.0359
  710POPI    C311281  13.561  11.188   5.636  0.1715  0.0645  0.0152
  710POPI   PO411282  13.584  11.151   6.274  0.3390 -0.2685 -0.2344
  710POPI   GL111283  13.503  11.685   6.285 -0.3277 -0.3383  0.0041
  710POPI   GL211284  13.269  11.467   6.423  0.1592  0.1594  0.1686
  710POPI   C1A11285  13.511  11.790   6.716 -0.0438 -0.2790 -0.1545
  710POPI   D2A11286  13.138  11.802   6.980 -0.1026 -0.3506  0.1489
  710POPI   C3A11287  13.265  11.834   7.367  0.6425 -0.1599 -0.2417
  710POPI   C4A11288  13.360  11.997   7.681  0.2526 -0.0237  0.1632
  710POPI   C1B11289  13.241  11.333   6.796 -0.3169  0.0214 -0.0264
  710POPI   C2B11290  13.148  11.314   7.265  0.1366  0.0852  0.1778
  710POPI   C3B11291  12.956  11.524   7.767 -0.0106 -0.1605 -0.0899
  710POPI   C4B11292  12.792  11.352   8.150 -0.0158 -0.4251  0.0566
  711POPI    C111293   7.220   6.940   5.536  0.0037 -0.3741  0.1118
  711POPI    C211294   6.977   6.663   5.381 -0.2500 -0.0108 -0.1587
  711POPI    C311295   7.274   6.814   5.160 -0.0333 -0.1539  0.0306
  711POPI   PO411296   7.203   6.995   5.774 -0.0030  0.0529 -0.0626
  711POPI   GL111297   7.235   7.303   6.221  0.1510  0.2569 -0.0115
  711POPI   GL211298   6.990   7.432   6.373  0.0625 -0.1639  0.3290
  711POPI   C1A11299   7.278   7.196   6.698 -0.1549 -0.1036 -0.3413
  711POPI   D2A11300   7.494   7.308   7.042 -0.3099 -0.0958 -0.2935
  711POPI   C3A11301   7.429   7.313   7.434  0.0392 -0.2420 -0.1023
  711POPI   C4A11302   7.215   7.161   7.846  0.2299 -0.0600 -0.0853
  711POPI   C1B11303   6.783   7.213   6.665 -0.2037  0.0839  0.0633
  711POPI   C2B11304   6.565   6.916   6.646  0.1824 -0.0824 -0.0639
  711POPI   C3B11305   6.289   6.628   6.793  0.0313  0.1411  0.0365
  711POPI   C4B11306   6.067   6.421   7.150 -0.1844 -0.0317  0.1891
  712POPI    C111307  14.389  12.803   5.654 -0.2147  0.1121 -0.0281
  712POPI    C211308  14.024  12.673   5.553 -0.1125 -0.0825 -0.1532
  712POPI    C311309  14.344  12.442   5.488 -0.0350 -0.2094  0.5932
  712POPI   PO411310  14.312  12.827   5.941  0.0653  0.1094  0.1536
  712POPI   GL111311  14.195  13.133   6.176 -0.0066 -0.1070 -0.2201
  712POPI   GL211312  14.359  13.238   6.287 -0.1671 -0.1220 -0.0740
  712POPI   C1A11313  13.948  13.171   6.591  0.0983  0.0201 -0.3011
  712POPI   D2A11314  13.636  13.211   7.034 -0.2604 -0.1216 -0.0456
  712POPI   C3A11315  13.878  13.260   7.363 -0.1943 -0.2992  0.2458
  712POPI   C4A11316  14.015  13.176   7.676  0.1120  0.4396 -0.0502
  712POPI   C1B11317  14.444  13.177   6.667 -0.2903  0.2329  0.1099
  712POPI   C2B11318  14.730  13.507   6.837 -0.2904  0.1211 -0.3543
  712POPI   C3B11319  15.085  13.464   7.133  0.3390  0.0054  0.1927
  712POPI   C4B11320  15.338  13.513   7.531 -0.0268 -0.0049  0.0103
  713POPI    C111321   3.531   8.735   5.489 -0.0393  0.0286  0.0837
  713POPI    C211322   3.878   8.917   5.571  0.0365 -0.0693 -0.0165
  713POPI    C311323   3.864   8.519   5.535 -0.0541 -0.0524 -0.1751
  713POPI   PO411324   3.344   8.864   5.787  0.1100  0.1117 -0.1033
  713POPI   GL111325   3.287   8.695   6.255  0.2551 -0.1482  0.1439
  713POPI   GL211326   3.333   8.401   6.217  0.1276 -0.2300  0.1940
  713POPI   C1A11327   3.406   8.576   6.755  0.0614  0.1010 -0.1203
  713POPI   D2A11328   3.264   8.756   7.136 -0.1647  0.2632  0.0345
  713POPI   C3A11329   3.258   8.494   7.581 -0.0432 -0.0997  0.0073
  713POPI   C4A11330   3.647   8.468   7.763 -0.1766  0.0430 -0.2464
  713POPI   C1B11331   2.973   8.312   6.516 -0.2060  0.0810  0.1631
  713POPI   C2B11332   2.896   8.313   6.917  0.2082 -0.0854  0.0038
  713POPI   C3B11333   2.787   8.672   7.258  0.3065  0.1033 -0.2006
  713POPI   C4B11334   2.487   8.852   7.583  0.1181  0.0528 -0.1316
  714POPI    C111335   2.951  16.197   5.871 -0.0104 -0.0289 -0.0080
  714POPI    C211336   2.810  16.330   5.520 -0.0949  0.1386  0.0877
  714POPI    C311337   3.074  16.029   5.529 -0.1797  0.0562 -0.1127
  714POPI   PO411338   2.864  16.440   6.011 -0.1386 -0.3827  0.0430
  714POPI   GL111339   2.488  16.365   6.326 -0.1616 -0.3902 -0.0465
  714POPI   GL211340   2.253  16.637   6.252  0.2628 -0.1202  0.1293
  714POPI   C1A11341   2.735  16.174   6.708  0.0069  0.0680  0.1236
  714POPI   D2A11342   2.610  16.356   7.047 -0.1275 -0.2213 -0.2519
  714POPI   C3A11343   2.491  16.786   6.949  0.2105 -0.3121 -0.1780
  714POPI   C4A11344   2.497  17.177   6.669 -0.0997  0.1381 -0.1123
  714POPI   C1B11345   2.085  16.785   6.665 -0.1631 -0.2666  0.0294
  714POPI   C2B11346   2.060  16.855   7.100  0.1260 -0.2229 -0.0727
  714POPI   C3B11347   2.286  16.706   7.389  0.1772 -0.1047 -0.1616
  714POPI   C4B11348   2.607  16.686   7.690 -0.0093 -0.0258  0.0819
  715POPI    C111349  17.486  16.790   5.629 -0.1063 -0.1187  0.0991
  715POPI    C211350  17.648  16.446   5.504  0.0942 -0.0150  0.0689
  715POPI    C311351  17.739  16.789   5.319 -0.1391  0.0495  0.0708
  715POPI   PO411352  17.440  16.808   5.902 -0.0548  0.1476  0.1563
  715POPI   GL111353  17.184  16.984   6.233  0.0356  0.1862  0.2334
  715POPI   GL211354  16.966  16.776   6.355  0.2436 -0.1113 -0.1221
  715POPI   C1A11355  17.019  17.345   6.554  0.1318 -0.0689  0.0905
  715POPI   D2A11356  16.976  17.373   6.933 -0.1077  0.1713  0.1384
  715POPI   C3A11357  16.783  17.681   7.096  0.2990  0.2271 -0.3075
  715POPI   C4A11358  16.454  17.865   6.862 -0.2110 -0.1255  0.0966
  715POPI   C1B11359  16.659  16.797   6.608  0.2627 -0.1670  0.2542
  715POPI   C2B11360  16.259  16.856   6.908  0.1704 -0.2260  0.0655
  715POPI   C3B11361  16.066  16.967   7.362  0.1735  0.1695 -0.1437
  715POPI   C4B11362  15.780  16.725   7.664 -0.0631 -0.0759  0.1062
  716POPI    C111363  12.893  14.487   6.024 -0.0307 -0.1208  0.0475
  716POPI    C211364  12.960  14.094   6.053  0.1080 -0.0952  0.0824
  716POPI    C311365  13.115  14.301   5.748 -0.0461 -0.0845  0.0107
  716POPI   PO411366  12.795  14.505   6.315  0.1538 -0.1737 -0.0108
  716POPI   GL111367  12.446  14.415   6.606 -0.3677 -0.3034 -0.0177
  716POPI   GL211368  12.144  14.081   6.641 -0.1513 -0.3350 -0.0396
  716POPI   C1A11369  12.532  14.348   7.040  0.5204  0.1657  0.1489
  716POPI   D2A11370  12.614  14.262   7.423  0.3232 -0.0429 -0.2487
  716POPI   C3A11371  13.039  14.380   7.687  0.1068 -0.0051  0.0179
  716POPI   C4A11372  13.115  14.832   7.958 -0.3762  0.1258 -0.0267
  716POPI   C1B11373  12.162  13.892   7.083 -0.0054 -0.1013  0.0578
  716POPI   C2B11374  12.325  13.567   7.412 -0.0199  0.0673  0.0090
  716POPI   C3B11375  12.271  13.572   7.959  0.0200 -0.2131 -0.0863
  716POPI   C4B11376  12.247  13.664   8.377  0.2044 -0.0449 -0.2214
  717POPI    C111377  16.722  17.168   5.976 -0.0964  0.0679 -0.0929
  717POPI    C211378  17.056  17.123   5.760 -0.0191  0.0856  0.0221
  717POPI    C311379  16.898  17.487   5.811 -0.0061  0.0884  0.0420
  717POPI   PO411380  16.561  16.955   5.889  0.1441 -0.0136  0.3887
  717POPI   GL111381  16.382  16.519   6.153 -0.1958  0.1197  0.1672
  717POPI   GL211382  16.422  16.126   6.189 -0.0756  0.4017 -0.2185
  717POPI   C1A11383  16.194  16.551   6.465  0.0907 -0.0896 -0.1696
  717POPI   D2A11384  16.348  16.360   6.787  0.4781  0.1122 -0.1657
  717POPI   C3A11385  16.035  16.456   7.115 -0.1922  0.0460 -0.2439
  717POPI   C4A11386  15.650  16.635   7.120 -0.1683  0.1433 -0.2195
  717POPI   C1B11387  16.563  15.938   6.590 -0.2109 -0.0480 -0.1932
  717POPI   C2B11388  16.795  15.880   6.840  0.1346 -0.0093  0.1907
  717POPI   C3B11389  16.975  15.966   7.257  0.0701 -0.3254  0.0537
  717POPI   C4B11390  17.088  15.824   7.642  0.0001  0.0702  0.1491
  718POPI    C111391  10.875  17.404   6.067  0.0118 -0.2899 -0.0996
  718POPI    C211392  10.793  17.411   5.675  0.0358  0.0912 -0.1014
  718POPI    C311393  11.143  17.551   5.809 -0.0037  0.0348  0.0637
  718POPI   PO411394  10.593  17.496   6.165  0.0061  0.1559 -0.4524
  718POPI   GL111395  10.791  17.616   6.631  0.0806 -0.1002 -0.0148
  718POPI   GL211396  11.096  17.609   6.682 -0.0594 -0.1328 -0.2663
  718POPI   C1A11397  10.818  17.899   6.959  0.1857 -0.1539  0.1831
  718POPI   D2A11398  10.756  18.174   7.316 -0.2056  0.0655 -0.2191
  718POPI   C3A11399  10.526  18.219   7.646 -0.1933 -0.2017  0.1105
  718POPI   C4A11400  10.452  18.619   7.764 -0.4152 -0.3034  0.0052
  718POPI   C1B11401  11.251  17.626   7.124 -0.0141  0.0067  0.2152
  718POPI   C2B11402  11.204  17.366   7.384  0.2496  0.0286  0.0247
  718POPI   C3B11403  11.149  17.027   7.755 -0.1365 -0.2863 -0.0260
  718POPI   C4B11404  11.238  16.942   8.137 -0.1066 -0.4569 -0.0630
  719POPI    C111405   1.566   2.686   5.146 -0.0363 -0.0361 -0.1127
  719POPI    C211406   1.860   2.712   5.416  0.0220 -0.1429 -0.1652
  719POPI    C311407   1.862   2.951   5.095 -0.0197 -0.0519 -0.0984
  719POPI   PO411408   1.355   2.589   5.375 -0.1587  0.0088  0.1916
  719POPI   GL111409   1.457   2.665   5.750  0.1246  0.1211 -0.0260
  719POPI   GL211410   1.619   2.769   5.912 -0.2627  0.1395  0.0166
  719POPI   C1A11411   1.120   2.905   6.078 -0.2441 -0.1010  0.2590
  719POPI   D2A11412   0.960   2.940   6.388 -0.0234  0.0254 -0.1739
  719POPI   C3A11413   1.144   3.110   6.769 -0.0897 -0.1146 -0.2259
  719POPI   C4A11414   1.085   2.847   7.111 -0.4014 -0.0527 -0.0359
  719POPI   C1B11415   1.628   2.989   6.270  0.0798  0.3907 -0.3829
  719POPI   C2B11416   1.626   3.230   6.664 -0.4851  0.0500  0.0409
  719POPI   C3B11417   1.616   2.989   7.056  0.1088  0.0690 -0.1344
  719POPI   C4B11418   1.919   2.921   7.410  0.1914  0.2327  0.0880
  720POPI    C111419  11.167   9.256   5.451  0.1556  0.1725 -0.1749
  720POPI    C211420  11.132   9.654   5.435  0.1129  0.1671 -0.2226
  720POPI    C311421  10.808   9.427   5.492  0.1534  0.1447 -0.0750
  720POPI   PO411422  11.371   9.117   5.643 -0.2353  0.0842 -0.5046
  720POPI   GL111423  11.317   8.948   6.090 -0.0286 -0.0288  0.4421
  720POPI   GL211424  11.539   9.149   6.239  0.2648 -0.3880  0.3832
  720POPI   C1A11425  11.057   9.110   6.391 -0.2989 -0.1228  0.2552
  720POPI   D2A11426  10.972   9.226   6.874 -0.0583 -0.0582  0.3164
  720POPI   C3A11427  10.736   9.610   6.992  0.0182  0.1003  0.0837
  720POPI   C4A11428  10.448   9.876   6.987 -0.1630  0.0833  0.0625
  720POPI   C1B11429  11.602   9.218   6.665  0.2090 -0.3286  0.1788
  720POPI   C2B11430  11.384   9.292   7.086  0.3721 -0.3029  0.1073
  720POPI   C3B11431  11.091   9.531   7.369  0.2845  0.2200 -0.0208
  720POPI   C4B11432  10.641   9.758   7.523 -0.0342 -0.0775  0.1586
  721POPI    C111433   6.221  13.970   6.033  0.2346  0.0225  0.1063
  721POPI    C211434   6.109  13.624   5.866 -0.2411  0.2890 -0.1485
  721POPI    C311435   6.393  13.847   5.694 -0.0046  0.0784 -0.0376
  721POPI   PO411436   6.214  13.855   6.275  0.1132 -0.2650 -0.3586
  721POPI   GL111437   6.405  13.627   6.600 -0.2922 -0.0715  0.0834
  721POPI   GL211438   6.359  13.229   6.685 -0.0125  0.0033  0.1248
  721POPI   C1A11439   6.433  13.902   6.987 -0.0831 -0.2492  0.2361
  721POPI   D2A11440   6.371  13.904   7.440  0.0536 -0.1139  0.0648
  721POPI   C3A11441   6.020  13.939   7.583  0.0601  0.0778  0.0813
  721POPI   C4A11442   5.629  14.000   7.467  0.0606  0.2139  0.1105
  721POPI   C1B11443   6.325  13.455   7.143  0.1967 -0.0715  0.0899
  721POPI   C2B11444   6.228  13.514   7.721 -0.2763  0.5979  0.0493
  721POPI   C3B11445   5.954  13.421   8.003 -0.0113  0.2220 -0.0700
  721POPI   C4B11446   5.518  13.229   7.937  0.2156  0.1453 -0.2566
  722POPI    C111447  17.424   7.474   5.240  0.0569 -0.0594 -0.1177
  722POPI    C211448  17.728   7.545   5.490 -0.0322 -0.0925  0.0008
  722POPI    C311449  17.769   7.277   5.197  0.0789 -0.0397 -0.0325
  722POPI   PO411450  17.178   7.442   5.501  0.0255  0.0276  0.0269
  722POPI   GL111451  17.091   7.633   5.894  0.0939  0.1381 -0.2985
  722POPI   GL211452  17.443   7.697   5.968  0.2498 -0.0317 -0.1348
  722POPI   C1A11453  16.841   7.906   6.120  0.0193 -0.1566 -0.1293
  722POPI   D2A11454  16.831   8.271   6.387  0.1613 -0.2459  0.0956
  722POPI   C3A11455  16.984   8.217   6.695  0.1254 -0.1278 -0.0211
  722POPI   C4A11456  16.787   8.211   7.120 -0.0896  0.0271 -0.1066
  722POPI   C1B11457  17.710   7.734   6.370 -0.2633  0.2242 -0.2475
  722POPI   C2B11458  17.898   7.797   6.744  0.3058  0.0033 -0.2562
  722POPI   C3B11459  18.193   7.985   7.079 -0.2167  0.1147 -0.1070
  722POPI   C4B11460  18.431   8.126   7.329 -0.0231  0.5047 -0.2337
  723POPI    C111461  11.873  12.049   5.618 -0.0062 -0.1006 -0.1693
  723POPI    C211462  11.579  11.863   5.420 -0.0995  0.0518 -0.1759
  723POPI    C311463  11.961  11.803   5.315 -0.1487  0.1458 -0.4153
  723POPI   PO411464  11.955  11.931   5.937 -0.0770  0.2755  0.2743
  723POPI   GL111465  11.949  11.965   6.466  0.1652  0.1359 -0.0778
  723POPI   GL211466  11.696  12.112   6.302  0.1193  0.5718 -0.1656
  723POPI   C1A11467  11.684  11.607   6.542 -0.1524  0.1217 -0.5096
  723POPI   D2A11468  11.812  11.270   6.935  0.0953 -0.0808  0.1721
  723POPI   C3A11469  11.678  10.922   7.067  0.0822 -0.3644  0.1016
  723POPI   C4A11470  11.509  10.571   7.244  0.0432 -0.0497 -0.0332
  723POPI   C1B11471  11.413  12.006   6.682  0.1136  0.3608  0.0343
  723POPI   C2B11472  11.265  12.060   7.073 -0.1400 -0.2672 -0.4866
  723POPI   C3B11473  11.383  11.874   7.457 -0.0118  0.0403  0.0418
  723POPI   C4B11474  11.462  11.607   7.846  0.1396  0.1454 -0.0807
  724POPI    C111475  10.077   5.146   5.634  0.0163  0.2529 -0.0628
  724POPI    C211476  10.305   5.474   5.610  0.1562  0.1469 -0.2018
  724POPI    C311477  10.422   5.136   5.431 -0.0240  0.0415 -0.1226
  724POPI   PO411478  10.023   5.108   5.890  0.1275 -0.1823  0.1959
  724POPI   GL111479   9.901   5.066   6.264 -0.1905  0.0236  0.2807
  724POPI   GL211480  10.198   4.971   6.479  0.0305  0.0225  0.5941
  724POPI   C1A11481   9.582   4.860   6.484 -0.0226 -0.1169 -0.1278
  724POPI   D2A11482   9.311   4.922   6.844 -0.1376 -0.3552  0.1010
  724POPI   C3A11483   9.260   4.946   7.183 -0.0177 -0.1266 -0.0301
  724POPI   C4A11484   9.608   5.051   7.476 -0.3621  0.0793  0.2217
  724POPI   C1B11485  10.469   5.373   6.489 -0.1162 -0.0320 -0.0401
  724POPI   C2B11486  10.591   5.726   6.426 -0.0627 -0.0429  0.0392
  724POPI   C3B11487  10.775   5.935   6.818  0.1196 -0.3309 -0.1654
  724POPI   C4B11488  11.220   5.813   7.034  0.1918 -0.0722 -0.0519
  725POPI    C111489  13.357   7.417   5.482 -0.1494  0.2257  0.0165
  725POPI    C211490  13.207   7.506   5.122 -0.1067 -0.0729 -0.0772
  725POPI    C311491  13.561   7.321   5.152  0.0897  0.3238  0.1326
  725POPI   PO411492  13.128   7.362   5.622 -0.1327  0.2621 -0.0355
  725POPI   GL111493  12.973   7.582   6.098  0.0966 -0.0442  0.0773
  725POPI   GL211494  13.149   7.264   6.101  0.1011  0.1426  0.0813
  725POPI   C1A11495  13.197   7.669   6.489  0.1873  0.3693  0.2005
  725POPI   D2A11496  13.387   7.657   6.786  0.0166 -0.1183 -0.2995
  725POPI   C3A11497  13.663   7.605   7.159  0.1632 -0.0245  0.1759
  725POPI   C4A11498  14.045   7.429   7.219  0.0696  0.1778 -0.3754
  725POPI   C1B11499  13.598   7.319   6.050  0.0948  0.0446  0.0027
  725POPI   C2B11500  13.970   7.445   6.129 -0.1821  0.2535  0.2177
  725POPI   C3B11501  14.310   7.701   6.236  0.2001 -0.2221 -0.2754
  725POPI   C4B11502  14.458   8.056   6.472  0.1881 -0.0818  0.0707
  726POPI    C111503   3.107   3.889   5.341 -0.2030 -0.1464  0.0915
  726POPI    C211504   3.036   4.229   5.143  0.1395 -0.0609  0.1086
  726POPI    C311505   3.140   3.899   4.942  0.2054 -0.0489  0.1226
  726POPI   PO411506   2.904   4.023   5.634  0.1349 -0.1294 -0.3186
  726POPI   GL111507   3.223   4.021   5.993 -0.0706 -0.2441 -0.1689
  726POPI   GL211508   3.512   3.797   5.922 -0.0479  0.0119 -0.0495
  726POPI   C1A11509   3.096   4.054   6.403 -0.0196 -0.0032  0.0034
  726POPI   D2A11510   3.342   3.973   6.765 -0.2128 -0.1573 -0.1322
  726POPI   C3A11511   3.293   4.079   7.272  0.3583 -0.1144 -0.0570
  726POPI   C4A11512   3.151   3.898   7.710 -0.0362 -0.0865 -0.0517
  726POPI   C1B11513   3.482   3.669   6.304  0.0066  0.1395 -0.2798
  726POPI   C2B11514   3.582   3.502   6.675  0.0471 -0.1262  0.0874
  726POPI   C3B11515   3.569   3.684   7.098  0.0755  0.3027 -0.2046
  726POPI   C4B11516   3.772   3.383   7.493 -0.3317 -0.0279 -0.0864
  727POPI    C111517  10.760  16.964   5.808  0.2296 -0.0710 -0.2815
  727POPI    C211518  10.689  16.683   5.533  0.0103 -0.0618 -0.2363
  727POPI    C311519  10.880  17.019   5.431  0.1391 -0.1604 -0.3235
  727POPI   PO411520  10.453  17.052   5.911 -0.2491 -0.1076  0.1930
  727POPI   GL111521  10.306  17.065   6.272  0.1231 -0.1400 -0.2319
  727POPI   GL211522  10.574  17.112   6.441 -0.2685 -0.1245  0.2915
  727POPI   C1A11523  10.216  16.752   6.669 -0.3321 -0.0905  0.0498
  727POPI   D2A11524  10.141  16.502   7.018 -0.0527  0.2358 -0.2330
  727POPI   C3A11525  10.076  16.437   7.479  0.0677 -0.0819 -0.1742
  727POPI   C4A11526  10.045  16.486   8.005  0.2022  0.0936  0.0171
  727POPI   C1B11527  10.560  17.125   6.823  0.0287  0.2115 -0.1681
  727POPI   C2B11528  10.619  17.394   7.014  0.1965  0.1075  0.0730
  727POPI   C3B11529  10.695  17.618   7.403 -0.0500 -0.1789  0.1345
  727POPI   C4B11530  10.896  17.472   7.866 -0.2003  0.0850 -0.0784
  728POPI    C111531  15.025  10.852   6.023  0.0373 -0.0184 -0.1194
  728POPI    C211532  15.317  10.809   5.753 -0.1187 -0.1704 -0.2664
  728POPI    C311533  15.053  10.515   5.810 -0.0385 -0.1743  0.1134
  728POPI   PO411534  15.041  11.152   6.016  0.2884  0.1706 -0.0564
  728POPI   GL111535  15.131  11.348   6.450 -0.5070 -0.5058 -0.0694
  728POPI   GL211536  15.262  11.661   6.366 -0.1975  0.0770 -0.1002
  728POPI   C1A11537  14.884  11.553   6.700 -0.2612  0.0289 -0.0961
  728POPI   D2A11538  14.907  11.587   7.093 -0.3747 -0.1993 -0.1249
  728POPI   C3A11539  15.120  11.643   7.415  0.1969  0.0188  0.1724
  728POPI   C4A11540  15.349  11.695   7.737  0.2050  0.2229 -0.1267
  728POPI   C1B11541  15.345  11.673   6.790  0.0703 -0.1849  0.2016
  728POPI   C2B11542  15.553  11.750   7.240  0.1634 -0.0497 -0.0570
  728POPI   C3B11543  15.606  12.041   7.519 -0.1243 -0.0384  0.1060
  728POPI   C4B11544  15.739  12.022   7.836  0.2901  0.0345  0.0091
  729POPI    C111545   5.861  14.772   6.080  0.0674  0.1390  0.0767
  729POPI    C211546   5.750  14.729   5.698  0.2326 -0.3260  0.0748
  729POPI    C311547   6.014  15.012   5.799 -0.3883  0.3184 -0.0275
  729POPI   PO411548   5.590  14.757   6.193 -0.1918 -0.0438 -0.4744
  729POPI   GL111549   5.509  14.997   6.485  0.1445  0.1572 -0.2008
  729POPI   GL211550   5.310  14.777   6.645 -0.1105 -0.2325  0.0361
  729POPI   C1A11551   5.794  15.121   6.793 -0.3237  0.4092  0.1141
  729POPI   D2A11552   6.071  15.545   6.764 -0.0694 -0.2337 -0.0361
  729POPI   C3A11553   5.978  15.686   7.103  0.2027 -0.2036 -0.2643
  729POPI   C4A11554   5.742  15.738   7.462 -0.2349  0.2509 -0.0730
  729POPI   C1B11555   5.178  14.742   7.018  0.0228  0.0435 -0.1549
  729POPI   C2B11556   5.065  14.850   7.536  0.0892 -0.0192 -0.1174
  729POPI   C3B11557   5.066  14.994   7.977 -0.2059  0.2856 -0.1067
  729POPI   C4B11558   4.954  15.153   8.450  0.0366  0.0886  0.1346
  730POPI    C111559   5.034   7.015   5.652 -0.0690  0.0814 -0.1212
  730POPI    C211560   5.089   7.009   5.256 -0.0876 -0.1502 -0.1220
  730POPI    C311561   4.878   7.304   5.424  0.2933  0.1956 -0.2326
  730POPI   PO411562   5.064   6.666   5.739  0.0672 -0.3508  0.1199
  730POPI   GL111563   5.303   6.441   5.982 -0.0968  0.3083 -0.0718
  730POPI   GL211564   5.498   6.091   5.993 -0.0941  0.0793 -0.0506
  730POPI   C1A11565   5.082   6.247   6.414  0.1614 -0.1818  0.0504
  730POPI   D2A11566   4.785   6.143   6.799 -0.2296 -0.0016  0.2766
  730POPI   C3A11567   4.994   5.960   7.047  0.3180 -0.0621 -0.1046
  730POPI   C4A11568   5.304   6.158   7.453  0.3622 -0.2261 -0.1697
  730POPI   C1B11569   5.569   5.927   6.358 -0.0909  0.0054 -0.0710
  730POPI   C2B11570   5.406   5.924   6.797 -0.2411 -0.1325  0.0241
  730POPI   C3B11571   5.355   5.585   7.180  0.3078  0.0067 -0.3766
  730POPI   C4B11572   5.124   5.588   7.488  0.1223  0.0868  0.1759
  731POPI    C111573   3.186  10.017   5.650  0.2035  0.0167 -0.0586
  731POPI    C211574   3.176  10.344   5.420 -0.2948  0.1911  0.1972
  731POPI    C311575   2.867  10.090   5.421  0.0801 -0.2811  0.0138
  731POPI   PO411576   3.212  10.107   5.898 -0.1013 -0.1915 -0.2090
  731POPI   GL111577   3.099  10.172   6.247  0.3118  0.0796  0.3979
  731POPI   GL211578   3.351  10.362   6.334 -0.1456 -0.0399 -0.3362
  731POPI   C1A11579   2.977  10.064   6.616  0.2248 -0.0067  0.1634
  731POPI   D2A11580   3.037  10.097   7.092 -0.2440 -0.1021 -0.2440
  731POPI   C3A11581   2.706  10.395   7.267 -0.1449 -0.5583 -0.0572
  731POPI   C4A11582   2.488  10.710   7.430 -0.0089 -0.0655 -0.4203
  731POPI   C1B11583   3.420  10.293   6.826 -0.1206  0.2119  0.0818
  731POPI   C2B11584   3.476  10.380   7.161 -0.1145  0.2965  0.3289
  731POPI   C3B11585   3.534  10.689   7.519 -0.0674 -0.4822 -0.5296
  731POPI   C4B11586   3.693  10.963   7.875  0.1596  0.2449  0.0571
  732POPI    C111587   3.759  11.234   6.272 -0.0214  0.0611  0.2858
  732POPI    C211588   3.684  11.296   5.885  0.0529  0.1646  0.2877
  732POPI    C311589   3.407  11.388   6.159 -0.0321  0.0133  0.2537
  732POPI   PO411590   4.048  11.284   6.263 -0.3116  0.0952  0.1459
  732POPI   GL111591   4.265  11.111   6.532  0.0166 -0.1123  0.3183
  732POPI   GL211592   4.044  10.943   6.642 -0.2676 -0.2028  0.1516
  732POPI   C1A11593   4.379  11.508   6.839  0.1240  0.3832  0.1597
  732POPI   D2A11594   4.271  11.876   7.065  0.0211 -0.0868  0.0722
  732POPI   C3A11595   4.061  12.287   7.256 -0.2006  0.0646 -0.1436
  732POPI   C4A11596   4.160  12.532   7.556  0.1686  0.1948  0.2447
  732POPI   C1B11597   3.977  11.319   7.013 -0.0448  0.1412 -0.1852
  732POPI   C2B11598   3.949  11.225   7.383 -0.1358  0.0446  0.1678
  732POPI   C3B11599   3.772  11.414   7.641 -0.0635  0.0566 -0.0283
  732POPI   C4B11600   3.925  11.613   8.059  0.0280  0.0038 -0.1103
  733POPI    C111601  17.855   5.071   4.932 -0.1297  0.0874  0.0100
  733POPI    C211602  18.202   4.872   4.921 -0.1484  0.0568 -0.0241
  733POPI    C311603  17.857   4.675   4.872 -0.1468  0.1530 -0.4631
  733POPI   PO411604  17.938   5.283   5.154  0.1781  0.0207  0.1690
  733POPI   GL111605  18.059   5.341   5.667  0.1239  0.0871 -0.0197
  733POPI   GL211606  18.119   5.671   5.807  0.2046  0.1700  0.1807
  733POPI   C1A11607  17.958   4.981   5.909 -0.1539  0.1154  0.1023
  733POPI   D2A11608  17.986   4.741   6.253 -0.1665  0.0825  0.3547
  733POPI   C3A11609  18.176   4.387   6.284  0.2202 -0.0530 -0.1489
  733POPI   C4A11610  18.266   4.011   6.121 -0.2385 -0.3339 -0.0443
  733POPI   C1B11611  18.237   5.985   6.109  0.4674 -0.5184 -0.1234
  733POPI   C2B11612  18.331   6.391   6.413 -0.0026  0.0986  0.4476
  733POPI   C3B11613  18.629   6.595   6.561  0.2759 -0.1652  0.1042
  733POPI   C4B11614  18.723   6.744   6.947  0.1176  0.0958  0.0077
  734POPI    C111615   0.547   8.880   5.236 -0.0164  0.2328 -0.1639
  734POPI    C211616   0.947   8.876   5.224 -0.0099  0.0543  0.0498
  734POPI    C311617   0.737   8.899   4.884  0.1790 -0.2246 -0.0900
  734POPI   PO411618   0.471   9.050   5.416 -0.0091 -0.2397 -0.2419
  734POPI   GL111619   0.412   9.115   5.826  0.0763 -0.1292 -0.1901
  734POPI   GL211620   0.564   8.989   6.097  0.1211  0.0205 -0.1983
  734POPI   C1A11621   0.334   9.430   6.083 -0.3720  0.2506 -0.0708
  734POPI   D2A11622   0.089   9.765   6.342  0.2130  0.0683 -0.1147
  734POPI   C3A11623   0.451  10.046   6.452  0.0624  0.1025  0.0192
  734POPI   C4A11624   0.881  10.032   6.471 -0.0911 -0.0100 -0.0348
  734POPI   C1B11625   0.373   8.718   6.484  0.1816 -0.0389  0.3954
  734POPI   C2B11626   0.444   8.815   6.992 -0.2187 -0.1565  0.0158
  734POPI   C3B11627   0.614   8.812   7.264 -0.0409 -0.0890  0.0535
  734POPI   C4B11628   0.577   8.898   7.700 -0.0517  0.0335  0.2352
  735POPI    C111629   4.096  17.713   5.503 -0.1787  0.2061 -0.1247
  735POPI    C211630   4.418  17.857   5.315  0.0042 -0.0307  0.0026
  735POPI    C311631   4.165  17.615   5.122  0.0589 -0.0760 -0.0131
  735POPI   PO411632   4.289  17.585   5.749  0.1791 -0.1630 -0.1818
  735POPI   GL111633   4.388  17.355   6.059  0.0433  0.0898  0.0067
  735POPI   GL211634   4.062  17.528   6.201 -0.1246 -0.0548 -0.0243
  735POPI   C1A11635   4.406  17.447   6.556  0.3454  0.1041 -0.0779
  735POPI   D2A11636   4.464  17.625   7.004 -0.0028  0.0023 -0.1421
  735POPI   C3A11637   4.594  17.576   7.482 -0.1895 -0.0268  0.0206
  735POPI   C4A11638   4.586  17.607   7.970  0.4269  0.1246  0.4102
  735POPI   C1B11639   3.948  17.259   6.483  0.2481  0.0660 -0.3082
  735POPI   C2B11640   3.981  17.288   6.983  0.3045  0.1944 -0.2469
  735POPI   C3B11641   4.066  17.205   7.381  0.0134  0.1018  0.0435
  735POPI   C4B11642   4.213  17.293   7.772  0.0656  0.1072 -0.1590
  736POPI    C111643   8.697   8.849   5.630  0.1840 -0.0075 -0.1131
  736POPI    C211644   8.972   9.048   5.841  0.0914  0.0562 -0.0518
  736POPI    C311645   8.818   9.210   5.510  0.0736  0.0527 -0.0453
  736POPI   PO411646   8.509   8.810   5.860  0.0019 -0.0123  0.0486
  736POPI   GL111647   8.150   8.707   6.156 -0.0836 -0.1344  0.1304
  736POPI   GL211648   8.330   8.453   6.164 -0.3254 -0.0923 -0.1227
  736POPI   C1A11649   8.377   8.697   6.579  0.1697 -0.1770 -0.4030
  736POPI   D2A11650   8.460   8.759   7.023 -0.2144  0.0395 -0.2471
  736POPI   C3A11651   8.627   8.838   7.414 -0.0044  0.0897 -0.0454
  736POPI   C4A11652   8.640   8.828   7.896  0.3485 -0.2395  0.1298
  736POPI   C1B11653   8.283   8.191   6.526  0.1122 -0.3138 -0.0361
  736POPI   C2B11654   8.216   8.384   6.930  0.1602  0.4651  0.0097
  736POPI   C3B11655   8.188   8.462   7.449  0.0438 -0.1439 -0.1075
  736POPI   C4B11656   8.141   8.617   7.789  0.1031 -0.1311 -0.1193
  737POPI    C111657   3.771  15.987   5.509 -0.1307  0.2466 -0.0199
  737POPI    C211658   3.654  16.363   5.437 -0.1068  0.1891 -0.3761
  737POPI    C311659   3.514  16.063   5.213  0.0345  0.0092 -0.2281
  737POPI   PO411660   3.901  15.917   5.863  0.0358  0.2009 -0.1165
  737POPI   GL111661   4.021  16.098   6.212 -0.0506 -0.1780 -0.0630
  737POPI   GL211662   3.875  15.865   6.375  0.3675 -0.1719  0.3193
  737POPI   C1A11663   4.250  16.258   6.559 -0.0522  0.0084 -0.0719
  737POPI   D2A11664   4.389  16.487   6.924  0.0292  0.0859 -0.1923
  737POPI   C3A11665   4.452  16.546   7.399  0.2081  0.0531  0.1101
  737POPI   C4A11666   4.490  16.669   7.744  0.1453 -0.0199  0.1304
  737POPI   C1B11667   4.029  15.806   6.750  0.0928 -0.0382 -0.0173
  737POPI   C2B11668   4.376  15.984   7.047 -0.0604 -0.0144 -0.0204
  737POPI   C3B11669   4.500  16.069   7.435 -0.1878 -0.2541 -0.1364
  737POPI   C4B11670   4.302  16.150   7.776  0.1179  0.2712 -0.1098
  738POPI    C111671   1.224  17.976   5.503  0.1379  0.0107 -0.0589
  738POPI    C211672   1.509  17.787   5.711  0.1237  0.1089  0.0508
  738POPI    C311673   1.606  18.003   5.388  0.1408 -0.0785 -0.0710
  738POPI   PO411674   1.079  18.071   5.718 -0.1890  0.1398 -0.1574
  738POPI   GL111675   1.191  17.982   6.138 -0.0987 -0.1509 -0.3433
  738POPI   GL211676   1.161  17.751   6.288 -0.3038 -0.1806  0.0494
  738POPI   C1A11677   1.151  18.252   6.440 -0.1647  0.0138 -0.1443
  738POPI   D2A11678   1.026  18.725   6.469 -0.1548 -0.0694 -0.2659
  738POPI   C3A11679   1.218  18.921   6.847  0.1027  0.2227  0.0974
  738POPI   C4A11680   1.409  19.229   7.110  0.0676  0.2866 -0.0274
  738POPI   C1B11681   1.365  17.868   6.693  0.3591  0.0767  0.0441
  738POPI   C2B11682   1.490  17.716   7.045 -0.2427  0.1765 -0.0756
  738POPI   C3B11683   1.896  17.697   7.213 -0.0602  0.0336  0.1375
  738POPI   C4B11684   2.222  17.837   7.151  0.2418  0.0100 -0.2863
  739POPI    C111685   0.663  14.707   6.164 -0.0195  0.0290  0.1761
  739POPI    C211686   0.544  14.443   5.889  0.0704 -0.0654  0.2271
  739POPI    C311687   0.807  14.727   5.791 -0.0545  0.0289  0.1626
  739POPI   PO411688   0.708  14.573   6.409 -0.1803  0.2627 -0.0583
  739POPI   GL111689   0.823  14.190   6.645 -0.2529 -0.0289  0.1008
  739POPI   GL211690   1.114  14.244   6.468  0.3074 -0.2479  0.2559
  739POPI   C1A11691   0.874  14.440   7.020  0.1450  0.1528 -0.2472
  739POPI   D2A11692   0.924  14.469   7.573 -0.3058 -0.1573  0.1517
  739POPI   C3A11693   1.034  14.825   7.769 -0.1011  0.1183 -0.0627
  739POPI   C4A11694   0.962  15.090   8.041  0.2204 -0.0286  0.0044
  739POPI   C1B11695   1.307  14.651   6.701  0.0510  0.1116 -0.2376
  739POPI   C2B11696   1.216  14.713   7.251 -0.0304 -0.1570  0.1533
  739POPI   C3B11697   1.511  14.702   7.650 -0.0964  0.0538  0.0529
  739POPI   C4B11698   1.787  14.806   7.906 -0.3153 -0.0695 -0.3112
  740POPI    C111699  18.355   5.878   5.364  0.0477 -0.1507  0.0293
  740POPI    C211700  18.466   5.551   5.162 -0.0292  0.0160 -0.2904
  740POPI    C311701  18.123   5.735   5.071 -0.1753 -0.0305  0.1450
  740POPI   PO411702  18.583   5.993   5.444  0.0376  0.1863  0.0172
  740POPI   GL111703  18.856   5.968   5.854 -0.1621 -0.2030 -0.3737
  740POPI   GL211704  18.991   5.784   5.700  0.1232  0.0307 -0.0991
  740POPI   C1A11705  18.889   6.004   6.256  0.0643 -0.1169  0.1069
  740POPI   D2A11706  18.969   6.282   6.614 -0.1577 -0.2293  0.1980
  740POPI   C3A11707  18.988   5.997   7.031 -0.3811 -0.0408  0.4366
  740POPI   C4A11708  19.150   5.975   7.425 -0.0978 -0.1534 -0.1780
  740POPI   C1B11709  19.011   5.509   6.007  0.1209  0.0336  0.3687
  740POPI   C2B11710  18.828   5.193   6.269 -0.1134  0.0283 -0.1526
  740POPI   C3B11711  18.674   5.151   6.589 -0.1383 -0.0317  0.2608
  740POPI   C4B11712  18.751   5.069   7.077 -0.0786 -0.1804 -0.0170
  741POPI    C111713   9.361   2.360   5.386 -0.2034 -0.0270 -0.0526
  741POPI    C211714   9.436   2.699   5.585 -0.2217 -0.0425 -0.0191
  741POPI    C311715   9.376   2.708   5.189  0.1044 -0.0487 -0.0717
  741POPI   PO411716   9.581   2.192   5.583 -0.1963 -0.0185 -0.0764
  741POPI   GL111717   9.646   2.049   5.905 -0.1619 -0.1744  0.1977
  741POPI   GL211718   9.405   1.983   6.076 -0.2322 -0.1267  0.2323
  741POPI   C1A11719   9.939   1.931   6.316 -0.0853 -0.5682  0.0808
  741POPI   D2A11720   9.966   1.777   6.788  0.2325  0.1664 -0.0267
  741POPI   C3A11721  10.060   1.823   7.177 -0.1430 -0.1724  0.0662
  741POPI   C4A11722  10.370   1.959   7.456 -0.1823  0.2768  0.1320
  741POPI   C1B11723   9.412   1.946   6.502  0.1193 -0.0371  0.1324
  741POPI   C2B11724   9.535   2.121   6.801 -0.2710 -0.3299  0.1205
  741POPI   C3B11725   9.576   2.239   7.255 -0.3205  0.0204 -0.0307
  741POPI   C4B11726   9.763   2.544   7.492  0.1770  0.0797 -0.0313
  742POPI    C111727   6.663  10.106   5.463 -0.1679 -0.1023 -0.0660
  742POPI    C211728   6.577   9.732   5.353  0.1279 -0.1050 -0.3005
  742POPI    C311729   6.775   9.973   5.103  0.2778  0.0857 -0.0037
  742POPI   PO411730   6.779  10.085   5.729 -0.1223 -0.0948 -0.2455
  742POPI   GL111731   6.600  10.064   6.252  0.0875  0.1583  0.0275
  742POPI   GL211732   6.666   9.732   6.383 -0.2076 -0.1742 -0.2654
  742POPI   C1A11733   6.792  10.227   6.647  0.1644  0.1218  0.4831
  742POPI   D2A11734   6.580  10.168   7.093 -0.2627  0.5182  0.3197
  742POPI   C3A11735   6.316  10.434   7.231  0.1060 -0.0128 -0.3955
  742POPI   C4A11736   6.005  10.661   7.201 -0.0172  0.2097  0.0617
  742POPI   C1B11737   6.559   9.635   6.830  0.1416 -0.0610  0.0867
  742POPI   C2B11738   6.606   9.665   7.309 -0.2806 -0.0896 -0.0305
  742POPI   C3B11739   6.512  10.049   7.590  0.2785 -0.0694 -0.1707
  742POPI   C4B11740   6.464  10.110   8.047  0.0604  0.0520 -0.1444
  743POPI    C111741  12.603  10.081   5.957  0.2521 -0.1097 -0.1428
  743POPI    C211742  12.332  10.324   5.791 -0.0298 -0.3156  0.0071
  743POPI    C311743  12.502  10.036   5.572  0.1199 -0.1448 -0.1045
  743POPI   PO411744  12.564  10.003   6.185  0.0147  0.0945 -0.1052
  743POPI   GL111745  12.438   9.888   6.566  0.0426 -0.0636  0.0096
  743POPI   GL211746  12.172  10.069   6.736  0.2342  0.0886  0.2069
  743POPI   C1A11747  12.726   9.608   6.839  0.1521 -0.0147 -0.2426
  743POPI   D2A11748  12.827   9.603   7.256  0.1804  0.1984 -0.1233
  743POPI   C3A11749  12.919   9.850   7.503  0.1032 -0.0287 -0.2405
  743POPI   C4A11750  13.047   9.990   7.909 -0.1516 -0.1313 -0.0092
  743POPI   C1B11751  12.349   9.868   7.123  0.0310  0.1598 -0.0444
  743POPI   C2B11752  12.358   9.714   7.478 -0.0897  0.1062 -0.0082
  743POPI   C3B11753  12.580   9.350   7.673  0.0856  0.1041 -0.2628
  743POPI   C4B11754  12.646   9.260   8.023 -0.2151 -0.1606 -0.1272
  744POPS   CNO11755  13.450   6.845   5.054 -0.0267  0.1680 -0.0111
  744POPS   PO411756  13.785   6.452   5.230  0.0931 -0.0567  0.4085
  744POPS   GL111757  13.958   6.478   5.523 -0.1965 -0.1193 -0.0939
  744POPS   GL211758  13.704   6.564   5.773 -0.1379 -0.0515  0.2512
  744POPS   C1A11759  14.263   6.415   5.890 -0.2751 -0.0974  0.0388
  744POPS   D2A11760  14.486   6.465   6.238  0.1066 -0.1313 -0.1093
  744POPS   C3A11761  14.548   6.815   6.560 -0.0118  0.0894 -0.5762
  744POPS   C4A11762  14.536   7.019   7.002  0.2656  0.2498 -0.0779
  744POPS   C1B11763  13.805   6.454   6.206 -0.0719  0.0691 -0.4210
  744POPS   C2B11764  14.075   6.410   6.518  0.0783 -0.0849  0.0692
  744POPS   C3B11765  14.319   6.378   6.796  0.1206 -0.0911  0.0687
  744POPS   C4B11766  14.299   6.267   7.178  0.4172 -0.0331 -0.0439
  745POPS   CNO11767  13.166   5.522   5.810  0.0343 -0.0085 -0.1009
  745POPS   PO411768  12.794   5.561   5.712 -0.6386  0.0880 -0.0375
  745POPS   GL111769  12.815   5.903   6.098  0.2338 -0.0244 -0.0684
  745POPS   GL211770  13.183   5.882   6.226 -0.3086  0.4470 -0.1176
  745POPS   C1A11771  12.846   6.255   6.487 -0.2199 -0.1888 -0.0879
  745POPS   D2A11772  12.959   6.588   6.645  0.3149  0.0404 -0.1728
  745POPS   C3A11773  12.960   6.687   7.047 -0.0022  0.2002 -0.2278
  745POPS   C4A11774  13.033   6.496   7.517 -0.0150 -0.0671 -0.1059
  745POPS   C1B11775  13.342   6.309   6.455  0.1815  0.0191  0.1311
  745POPS   C2B11776  13.528   6.576   6.648 -0.1959  0.2672  0.2635
  745POPS   C3B11777  13.468   6.785   6.914  0.1083 -0.1672 -0.1716
  745POPS   C4B11778  13.418   6.820   7.312 -0.2004 -0.1267  0.2743
  746POPS   CNO11779  14.763  12.444   6.099  0.4939 -0.1251 -0.0106
  746POPS   PO411780  14.906  12.841   6.015 -0.1412 -0.2184  0.0794
  746POPS   GL111781  15.063  12.712   6.380  0.2593 -0.2304 -0.0217
  746POPS   GL211782  15.385  12.554   6.530  0.0531  0.1604 -0.0375
  746POPS   C1A11783  15.131  12.968   6.730 -0.1488  0.5859 -0.0812
  746POPS   D2A11784  15.479  13.115   7.051 -0.1686 -0.1030 -0.0324
  746POPS   C3A11785  15.629  13.073   7.488 -0.0905 -0.0371  0.1541
  746POPS   C4A11786  15.845  13.093   7.728  0.0274  0.0292  0.2675
  746POPS   C1B11787  15.300  12.612   7.008 -0.3116  0.1901  0.1610
  746POPS   C2B11788  15.379  12.664   7.379 -0.3331  0.1820  0.0462
  746POPS   C3B11789  15.661  12.568   7.679 -0.2181  0.2496 -0.2954
  746POPS   C4B11790  15.568  12.418   8.117  0.3870 -0.1134  0.3094
  747POPS   CNO11791   7.580  16.405   6.288  0.0419 -0.1128  0.0641
  747POPS   PO411792   8.011  16.373   6.190 -0.0870  0.2032 -0.0111
  747POPS   GL111793   7.968  16.151   6.525  0.0086  0.3533  0.0150
  747POPS   GL211794   8.161  15.915   6.583  0.1216  0.0838 -0.1416
  747POPS   C1A11795   7.707  16.256   6.890 -0.1636  0.2185  0.0158
  747POPS   D2A11796   7.622  16.318   7.325  0.2498 -0.0302 -0.1694
  747POPS   C3A11797   7.551  16.089   7.586 -0.4117 -0.2264  0.1354
  747POPS   C4A11798   7.812  15.920   7.828 -0.2192  0.1251 -0.3020
  747POPS   C1B11799   8.342  15.923   6.998 -0.0419  0.1260  0.4289
  747POPS   C2B11800   8.566  16.153   7.293 -0.1986 -0.3220  0.1637
  747POPS   C3B11801   8.361  16.426   7.602 -0.2677 -0.0070 -0.1260
  747POPS   C4B11802   8.003  16.471   7.648 -0.1358  0.1479  0.1906
  748POPS   CNO11803  17.732   7.817   5.021 -0.2028 -0.2117  0.2077
  748POPS   PO411804  17.940   8.028   5.372  0.0331  0.0448  0.2031
  748POPS   GL111805  18.058   7.867   5.728 -0.2010 -0.2342  0.0285
  748POPS   GL211806  17.863   7.965   5.966 -0.3470 -0.1093 -0.0424
  748POPS   C1A11807  18.338   8.108   6.055 -0.5051 -0.1251 -0.0814
  748POPS   D2A11808  18.251   8.506   6.436  0.1293  0.1258 -0.2533
  748POPS   C3A11809  18.208   8.424   6.914 -0.0598  0.2341 -0.0935
  748POPS   C4A11810  18.014   8.576   7.339 -0.1719 -0.0249  0.1303
  748POPS   C1B11811  17.859   8.222   6.379  0.0139  0.0643 -0.2468
  748POPS   C2B11812  17.728   8.330   6.783  0.0580  0.1458  0.0549
  748POPS   C3B11813  17.747   8.265   7.140  0.0534  0.4706  0.1635
  748POPS   C4B11814  17.944   8.023   7.517  0.2005 -0.1267 -0.1150
  749POPS   CNO11815   7.773  14.436   6.241  0.0795 -0.3715 -0.2045
  749POPS   PO411816   8.120  14.282   6.499  0.1021  0.2297 -0.4629
  749POPS   GL111817   8.092  14.633   6.603  0.1621 -0.2131 -0.0137
  749POPS   GL211818   7.880  14.887   6.485 -0.1395  0.0554  0.1875
  749POPS   C1A11819   8.271  14.949   6.891  0.2612 -0.0085  0.1017
  749POPS   D2A11820   8.525  15.056   7.309  0.1587 -0.1495 -0.2038
  749POPS   C3A11821   8.520  14.699   7.506 -0.2936  0.0521  0.0110
  749POPS   C4A11822   8.473  14.609   7.992 -0.2061  0.1061  0.1973
  749POPS   C1B11823   7.652  14.759   6.855 -0.2240 -0.3772 -0.3340
  749POPS   C2B11824   7.630  14.510   7.238 -0.0740 -0.3391 -0.1587
  749POPS   C3B11825   7.524  14.562   7.563  0.0948  0.1111  0.2850
  749POPS   C4B11826   7.659  14.491   7.957  0.1889 -0.0905  0.2451
  750POPS   CNO11827  17.310  13.001   5.394 -0.1361 -0.0500 -0.1845
  750POPS   PO411828  16.854  13.058   5.536  0.0443 -0.2078  0.0874
  750POPS   GL111829  17.212  13.130   5.909  0.2000  0.0217  0.0661
  750POPS   GL211830  17.455  12.877   6.031  0.0844 -0.4072  0.2049
  750POPS   C1A11831  17.453  13.197   6.359  0.1112  0.2551 -0.2031
  750POPS   D2A11832  17.614  13.227   6.793 -0.0334 -0.0123 -0.1321
  750POPS   C3A11833  17.975  12.992   6.879  0.1250  0.1806 -0.1326
  750POPS   C4A11834  17.816  12.691   7.033  0.2327  0.2902 -0.0354
  750POPS   C1B11835  17.262  12.423   6.288  0.0452  0.0168 -0.1057
  750POPS   C2B11836  16.867  12.304   6.567 -0.0995 -0.1466 -0.2202
  750POPS   C3B11837  16.884  12.381   7.023 -0.2078 -0.2469  0.3513
  750POPS   C4B11838  17.055  12.285   7.462 -0.1225  0.0530 -0.1187
  751POPS   CNO11839   9.112  13.717   6.214  0.0630  0.0622 -0.0513
  751POPS   PO411840   8.966  13.294   6.221 -0.0702  0.2269 -0.0843
  751POPS   GL111841   8.753  13.325   6.555 -0.2442  0.0403 -0.1250
  751POPS   GL211842   8.716  13.018   6.560 -0.0463  0.1631 -0.1956
  751POPS   C1A11843   8.852  13.758   6.788 -0.2019  0.1652 -0.3001
  751POPS   D2A11844   8.597  14.065   6.992 -0.2327  0.1577 -0.2051
  751POPS   C3A11845   8.268  13.966   7.151  0.0646 -0.2381  0.1794
  751POPS   C4A11846   8.124  13.935   7.566  0.0203  0.0780 -0.0956
  751POPS   C1B11847   8.779  13.092   6.988 -0.0531  0.0422 -0.2702
  751POPS   C2B11848   8.630  13.105   7.426  0.0551  0.2287  0.1232
  751POPS   C3B11849   8.608  13.183   7.836  0.0927  0.1056 -0.2766
  751POPS   C4B11850   8.471  13.192   8.300 -0.0872 -0.0126  0.3453
  752POPS   CNO11851   0.770  10.925   6.008  0.0539 -0.0217  0.0903
  752POPS   PO411852   1.046  10.645   6.027 -0.3556 -0.1129 -0.0276
  752POPS   GL111853   0.934  10.690   6.431  0.1039  0.5214 -0.2285
  752POPS   GL211854   0.517  10.886   6.463  0.1530 -0.1091  0.0685
  752POPS   C1A11855   0.923  10.501   6.783  0.2864 -0.0540  0.0940
  752POPS   D2A11856   0.676  10.109   7.002  0.0106  0.1279 -0.0104
  752POPS   C3A11857   0.873   9.946   7.341 -0.1648  0.4248  0.0698
  752POPS   C4A11858   1.190  10.100   7.681  0.1279  0.0205  0.1298
  752POPS   C1B11859   0.363  10.510   6.714  0.0182  0.0649 -0.0201
  752POPS   C2B11860   0.465  10.528   7.133  0.2864  0.2098  0.1157
  752POPS   C3B11861   0.267  10.688   7.567 -0.1321 -0.0019 -0.1669
  752POPS   C4B11862   0.425  10.910   8.008 -0.1745  0.0973 -0.1665
  753POPS   CNO11863   8.840  12.342   6.040 -0.1074  0.2442  0.6372
  753POPS   PO411864   8.506  12.625   6.304 -0.0445  0.1296  0.2422
  753POPS   GL111865   8.590  12.232   6.495 -0.1734 -0.1290  0.2656
  753POPS   GL211866   8.908  12.077   6.462  0.0581  0.0972 -0.0774
  753POPS   C1A11867   8.508  12.144   6.936  0.2580  0.4335 -0.2427
  753POPS   D2A11868   8.170  12.067   7.238  0.0088  0.1102  0.1794
  753POPS   C3A11869   8.248  11.933   7.615 -0.0001 -0.0810 -0.3108
  753POPS   C4A11870   8.254  12.060   8.022  0.0258  0.1439  0.1071
  753POPS   C1B11871   8.992  12.054   6.922 -0.1313  0.1161  0.1111
  753POPS   C2B11872   8.840  12.149   7.288  0.0125 -0.2788  0.0544
  753POPS   C3B11873   9.059  12.392   7.597  0.0558 -0.1699  0.1541
  753POPS   C4B11874   9.443  12.624   7.648  0.0636 -0.1963  0.1083
  754POPS   CNO11875   5.350   9.242   5.902  0.1099 -0.3075  0.3391
  754POPS   PO411876   4.977   9.146   5.803 -0.0147 -0.1099 -0.0605
  754POPS   GL111877   5.041   9.037   6.259  0.1519 -0.1403 -0.0844
  754POPS   GL211878   4.967   8.786   6.392  0.0759  0.2064  0.0442
  754POPS   C1A11879   5.004   9.192   6.674  0.2666 -0.0049 -0.1033
  754POPS   D2A11880   4.699   9.127   6.923  0.1157  0.2479 -0.0505
  754POPS   C3A11881   4.422   9.445   6.976  0.3028  0.0608 -0.1486
  754POPS   C4A11882   4.249   9.819   7.164  0.2380  0.1373  0.2858
  754POPS   C1B11883   4.886   8.696   6.762 -0.0691  0.2069 -0.1588
  754POPS   C2B11884   5.102   8.891   7.132 -0.2223  0.2028 -0.5514
  754POPS   C3B11885   5.207   8.676   7.591 -0.1739  0.1843  0.3498
  754POPS   C4B11886   5.525   8.612   7.840  0.1907  0.0697 -0.1338
  755POPS   CNO11887   1.792   8.960   5.911 -0.0071  0.0846 -0.2676
  755POPS   PO411888   1.736   8.632   5.588 -0.2727 -0.2093  0.1034
  755POPS   GL111889   1.705   8.482   6.077 -0.0847 -0.0403  0.4705
  755POPS   GL211890   1.498   8.262   5.869  0.2201 -0.0064  0.1153
  755POPS   C1A11891   1.563   8.488   6.452 -0.0277  0.1302 -0.1886
  755POPS   D2A11892   1.608   8.405   6.838 -0.2033  0.0186  0.1289
  755POPS   C3A11893   1.432   8.081   7.060 -0.2254 -0.0529 -0.0024
  755POPS   C4A11894   1.178   7.761   7.287 -0.0885  0.0172  0.2092
  755POPS   C1B11895   1.227   8.160   6.174  0.0394  0.2597  0.2810
  755POPS   C2B11896   1.158   8.087   6.647  0.0803  0.0696  0.0960
  755POPS   C3B11897   1.000   8.271   6.965 -0.2736  0.1391  0.2566
  755POPS   C4B11898   0.935   8.339   7.359  0.1587 -0.4407  0.0535
  756POPS   CNO11899   4.818  10.388   5.865 -0.0347  0.3328 -0.1345
  756POPS   PO411900   4.544  10.343   6.083 -0.1991  0.1880  0.0079
  756POPS   GL111901   4.759  10.551   6.316  0.0386 -0.0841  0.0628
  756POPS   GL211902   4.764  10.840   6.214  0.2674  0.0600 -0.1339
  756POPS   C1A11903   4.963  10.600   6.664 -0.1408 -0.0087  0.0553
  756POPS   D2A11904   5.009  10.811   7.113  0.0858  0.0881 -0.0459
  756POPS   C3A11905   5.092  10.690   7.514  0.2198 -0.1069 -0.0827
  756POPS   C4A11906   5.201  10.586   7.981  0.2508 -0.1119  0.1308
  756POPS   C1B11907   4.822  11.096   6.595  0.0899  0.3059 -0.0298
  756POPS   C2B11908   4.826  11.332   7.019  0.1954  0.1167 -0.0190
  756POPS   C3B11909   4.657  11.599   7.311  0.1423 -0.3173  0.0550
  756POPS   C4B11910   4.267  11.622   7.493 -0.2814 -0.0139  0.1417
  757POPS   CNO11911   8.098   4.287   5.322  0.0640  0.1320 -0.0247
  757POPS   PO411912   7.816   4.084   5.598  0.1343 -0.2672 -0.1521
  757POPS   GL111913   7.850   4.112   6.126 -0.4126 -0.1407 -0.0804
  757POPS   GL211914   7.983   3.811   6.164  0.1807  0.1565  0.0979
  757POPS   C1A11915   7.999   4.229   6.555 -0.3042 -0.2364  0.0463
  757POPS   D2A11916   7.872   4.217   6.849  0.0114 -0.2319  0.1294
  757POPS   C3A11917   7.467   4.501   6.976 -0.0073  0.2036 -0.1089
  757POPS   C4A11918   7.106   4.719   6.988  0.1739 -0.3482  0.0814
  757POPS   C1B11919   7.843   3.747   6.614 -0.0641  0.2595  0.0003
  757POPS   C2B11920   7.853   3.759   7.038 -0.2696  0.0289  0.2929
  757POPS   C3B11921   7.735   3.557   7.378 -0.2202  0.2009  0.3299
  757POPS   C4B11922   7.538   3.256   7.579 -0.2036  0.1478  0.2418
  758POPS   CNO11923   5.785   7.253   5.563 -0.0133 -0.1790 -0.0799
  758POPS   PO411924   5.398   7.298   5.608 -0.1221 -0.0004 -0.0019
  758POPS   GL111925   5.634   7.198   6.077  0.2603  0.1469  0.0722
  758POPS   GL211926   5.788   7.030   6.045  0.0930 -0.0162  0.0452
  758POPS   C1A11927   5.721   7.269   6.519  0.2187 -0.0442  0.3379
  758POPS   D2A11928   5.931   7.120   6.806  0.1306  0.0566  0.0371
  758POPS   C3A11929   5.748   6.713   6.860  0.0295  0.3099  0.1864
  758POPS   C4A11930   5.407   6.888   7.048 -0.3290  0.1032  0.0118
  758POPS   C1B11931   5.886   6.624   6.228  0.0414 -0.1572 -0.0591
  758POPS   C2B11932   6.101   6.302   6.348 -0.2500  0.2388  0.1187
  758POPS   C3B11933   6.121   5.824   6.559  0.1370 -0.0202  0.2213
  758POPS   C4B11934   5.961   5.645   6.841 -0.0672  0.0652 -0.2289
  759POPS   CNO11935   6.587  16.460   6.438  0.0326  0.1173  0.1055
  759POPS   PO411936   6.988  16.380   6.154 -0.0551  0.0946 -0.0747
  759POPS   GL111937   7.057  16.491   6.626 -0.1715  0.0039 -0.1770
  759POPS   GL211938   7.418  16.684   6.648  0.6406  0.3128 -0.2475
  759POPS   C1A11939   6.782  16.344   6.871  0.1586  0.1120 -0.0434
  759POPS   D2A11940   6.795  15.877   6.955 -0.0457  0.1252 -0.1027
  759POPS   C3A11941   6.832  15.745   7.355  0.0964  0.3564  0.0070
  759POPS   C4A11942   6.678  15.715   7.745  0.2294  0.0812  0.3608
  759POPS   C1B11943   7.263  16.494   7.029  0.0255  0.4845 -0.0878
  759POPS   C2B11944   7.048  16.182   7.290  0.1055 -0.1246 -0.0176
  759POPS   C3B11945   7.081  16.078   7.646  0.1141  0.0249 -0.1403
  759POPS   C4B11946   7.189  15.913   8.107 -0.2051  0.0723 -0.0650
  760POPS   CNO11947  12.257   1.733   5.839  0.1728  0.2270 -0.2736
  760POPS   PO411948  12.646   1.492   5.677 -0.1791 -0.3270  0.2012
  760POPS   GL111949  12.618   1.426   6.166 -0.0259  0.4242  0.1654
  760POPS   GL211950  12.941   1.368   6.369 -0.3813  0.3688  0.0749
  760POPS   C1A11951  12.519   1.239   6.537 -0.2103 -0.0021  0.0428
  760POPS   D2A11952  12.602   1.456   6.844  0.0404  0.0399 -0.1710
  760POPS   C3A11953  12.814   1.869   6.822  0.0110  0.0113 -0.1951
  760POPS   C4A11954  12.916   2.176   6.523  0.1761  0.2200 -0.0937
  760POPS   C1B11955  13.189   1.055   6.440 -0.1179 -0.2175 -0.1334
  760POPS   C2B11956  13.395   0.903   6.754 -0.1618 -0.1125  0.0649
  760POPS   C3B11957  13.686   1.038   7.027 -0.1595 -0.0590 -0.3214
  760POPS   C4B11958  13.697   0.886   7.425  0.0074  0.1042 -0.1517
  761POPS   CNO11959   1.025  16.716   5.528  0.2953  0.0029  0.5144
  761POPS   PO411960   1.121  16.908   5.780 -0.2205  0.1391 -0.2336
  761POPS   GL111961   1.221  16.718   6.191 -0.1066  0.0587  0.0963
  761POPS   GL211962   0.941  16.467   6.341 -0.1044 -0.0115 -0.3789
  761POPS   C1A11963   1.033  16.918   6.625 -0.2774 -0.0147 -0.4226
  761POPS   D2A11964   1.031  17.125   7.039 -0.2354 -0.2587  0.2935
  761POPS   C3A11965   1.142  17.074   7.469  0.1332  0.1500 -0.1740
  761POPS   C4A11966   1.390  17.023   7.892  0.0632 -0.1842  0.1271
  761POPS   C1B11967   1.207  16.381   6.723 -0.0686 -0.1032  0.0797
  761POPS   C2B11968   1.342  16.160   7.086  0.0732 -0.0038 -0.0999
  761POPS   C3B11969   1.634  16.108   7.337 -0.1467  0.0065 -0.0716
  761POPS   C4B11970   1.755  16.252   7.722 -0.0911 -0.0614 -0.1629
  762POPS   CNO11971  10.846  12.596   6.031 -0.1308  0.0075  0.0612
  762POPS   PO411972  10.757  12.964   6.136 -0.0631 -0.0488 -0.0713
  762POPS   GL111973  10.615  12.960   6.560 -0.1579 -0.0180 -0.3352
  762POPS   GL211974  10.305  13.144   6.684 -0.3554 -0.5207 -0.0880
  762POPS   C1A11975  10.543  12.871   7.018 -0.1134  0.0048  0.0421
  762POPS   D2A11976  10.429  12.942   7.484 -0.1654 -0.0910  0.0837
  762POPS   C3A11977  10.641  12.649   7.673  0.3129 -0.2566  0.2295
  762POPS   C4A11978  10.806  12.431   8.059 -0.0918  0.1585  0.0572
  762POPS   C1B11979  10.566  13.341   6.993  0.2782  0.2986 -0.0102
  762POPS   C2B11980  10.531  13.490   7.315 -0.3037 -0.0514 -0.0699
  762POPS   C3B11981  10.471  13.977   7.379  0.3073  0.2239  0.0951
  762POPS   C4B11982  10.337  14.395   7.508 -0.0192 -0.0369 -0.0448
  763POPS   CNO11983  13.901  15.728   5.997  0.2185 -0.0416  0.1654
  763POPS   PO411984  13.578  15.396   6.016  0.2874 -0.0128 -0.0052
  763POPS   GL111985  13.508  15.669   6.381 -0.2060  0.0671  0.1795
  763POPS   GL211986  13.127  15.519   6.494  0.0063 -0.1227 -0.0602
  763POPS   C1A11987  13.539  15.938   6.807 -0.0589 -0.0578 -0.0490
  763POPS   D2A11988  13.731  16.245   7.143 -0.0001  0.0174  0.3263
  763POPS   C3A11989  13.900  16.604   7.392 -0.2541 -0.1893  0.0876
  763POPS   C4A11990  14.096  16.623   7.803  0.0199 -0.2349  0.3337
  763POPS   C1B11991  13.150  15.468   6.970 -0.4520 -0.0698 -0.0026
  763POPS   C2B11992  13.224  15.767   7.327 -0.3128 -0.1033  0.3000
  763POPS   C3B11993  13.249  15.797   7.817 -0.1716 -0.0735  0.0201
  763POPS   C4B11994  13.086  15.759   8.237 -0.2033  0.0217  0.1719
  764POPS   CNO11995  11.796   3.228   5.638 -0.0171  0.2288 -0.3307
  764POPS   PO411996  12.090   3.141   5.843 -0.1626 -0.1504  0.0831
  764POPS   GL111997  12.035   3.446   6.090  0.0870  0.1315 -0.2651
  764POPS   GL211998  11.711   3.375   6.104  0.2343 -0.1848 -0.1799
  764POPS   C1A11999  12.125   3.551   6.483  0.2577 -0.3143 -0.0907
  764POPS   D2A12000  12.360   3.505   6.879  0.1048 -0.0417 -0.1473
  764POPS   C3A12001  12.837   3.388   6.876 -0.1107 -0.1374  0.1128
  764POPS   C4A12002  13.332   3.472   6.716 -0.3283 -0.1549  0.0598
  764POPS   C1B12003  11.607   3.554   6.557  0.0274 -0.2788 -0.2041
  764POPS   C2B12004  11.788   3.627   6.860  0.1422  0.0716 -0.3055
  764POPS   C3B12005  11.521   3.502   7.252  0.0130  0.1088  0.0003
  764POPS   C4B12006  11.430   3.582   7.708  0.3787  0.1620  0.2685
  765POPS   CNO12007  14.084   4.368   5.399  0.2324  0.0815 -0.0808
  765POPS   PO412008  14.153   4.209   5.673 -0.0498 -0.2128 -0.0272
  765POPS   GL112009  14.314   3.896   5.943 -0.0332  0.0919  0.2105
  765POPS   GL212010  13.989   3.888   6.166 -0.0050  0.0575 -0.1758
  765POPS   C1A12011  14.637   3.689   6.191  0.0514 -0.1712  0.2579
  765POPS   D2A12012  14.944   3.436   6.184 -0.0698  0.2105  0.1315
  765POPS   C3A12013  15.211   3.274   6.373 -0.1747 -0.0450 -0.0689
  765POPS   C4A12014  15.205   3.218   6.752  0.0333 -0.1699 -0.0929
  765POPS   C1B12015  14.268   3.950   6.551 -0.2671  0.2250 -0.0027
  765POPS   C2B12016  14.365   4.083   6.876  0.1485 -0.1674 -0.2598
  765POPS   C3B12017  14.416   4.571   7.095  0.0332 -0.1553 -0.1089
  765POPS   C4B12018  14.004   4.796   7.118 -0.0756  0.1734 -0.0148
  766POPS   CNO12019  14.022   5.282   5.733  0.0852  0.2824 -0.1033
  766POPS   PO412020  13.608   5.311   5.637  0.0720  0.1517 -0.4690
  766POPS   GL112021  13.592   5.004   5.842 -0.1608  0.0275 -0.0696
  766POPS   GL212022  13.326   4.867   5.855 -0.0946  0.1057  0.2126
  766POPS   C1A12023  13.782   4.905   6.325 -0.1767 -0.3555 -0.2892
  766POPS   D2A12024  14.056   4.968   6.634 -0.0342  0.3791 -0.0832
  766POPS   C3A12025  14.068   5.257   7.002  0.3025 -0.0113 -0.1738
  766POPS   C4A12026  14.234   5.475   7.431 -0.1514 -0.0946  0.0256
  766POPS   C1B12027  13.275   4.890   6.334 -0.1891 -0.0572  0.1046
  766POPS   C2B12028  13.126   4.997   6.779  0.1127 -0.3567  0.0790
  766POPS   C3B12029  13.120   4.623   6.954 -0.0876  0.3472  0.2199
  766POPS   C4B12030  13.476   4.513   7.205  0.0553  0.2120 -0.0049
  767POPS   CNO12031   6.595   2.592   6.009  0.1614 -0.0892  0.0341
  767POPS   PO412032   6.782   2.275   6.022 -0.0800  0.1544  0.3851
  767POPS   GL112033   6.579   2.029   6.268 -0.1462  0.0338 -0.0434
  767POPS   GL212034   6.475   2.126   6.416  0.1186  0.1435 -0.3155
  767POPS   C1A12035   6.692   1.836   6.723  0.0935 -0.0276  0.1464
  767POPS   D2A12036   6.775   1.796   7.095  0.0203 -0.2086  0.0022
  767POPS   C3A12037   6.678   1.820   7.582  0.0922 -0.1161 -0.1141
  767POPS   C4A12038   6.680   2.019   7.964 -0.0165  0.0761 -0.0409
  767POPS   C1B12039   6.343   2.528   6.424  0.3067  0.0471 -0.4145
  767POPS   C2B12040   5.885   2.664   6.627  0.0076 -0.0764 -0.2840
  767POPS   C3B12041   5.533   2.494   6.777  0.0278  0.0428 -0.1573
  767POPS   C4B12042   5.182   2.441   6.612 -0.0919 -0.1792  0.1111
  768POPS   CNO12043  17.446   6.111   5.440 -0.0211  0.3097 -0.3060
  768POPS   PO412044  17.703   5.739   5.397  0.1138  0.0883 -0.0273
  768POPS   GL112045  17.627   5.564   5.793 -0.0745 -0.1341  0.1760
  768POPS   GL212046  17.379   5.803   5.837  0.0024  0.0967  0.1410
  768POPS   C1A12047  17.858   5.321   6.206 -0.1072 -0.2374  0.0184
  768POPS   D2A12048  17.951   5.151   6.544  0.2197  0.1235 -0.1374
  768POPS   C3A12049  18.143   5.238   6.868 -0.0666 -0.1645 -0.4198
  768POPS   C4A12050  17.891   5.216   7.292  0.0583 -0.3138 -0.5241
  768POPS   C1B12051  17.582   5.748   6.243 -0.0222 -0.1372  0.0441
  768POPS   C2B12052  17.935   5.706   6.517  0.1355  0.0689 -0.1912
  768POPS   C3B12053  18.327   5.517   6.503  0.1329  0.0767 -0.0807
  768POPS   C4B12054  18.555   5.669   6.209  0.0701  0.2942 -0.1450
  769POPS   CNO12055  16.244  13.611   5.812  0.0372  0.2210 -0.2499
  769POPS   PO412056  16.201  13.373   6.155 -0.0739 -0.0269  0.0733
  769POPS   GL112057  16.439  13.052   6.482  0.1011 -0.2062 -0.1668
  769POPS   GL212058  16.222  12.946   6.595  0.0023  0.1883  0.3432
  769POPS   C1A12059  16.537  13.300   6.988 -0.0282  0.3057 -0.0294
  769POPS   D2A12060  16.721  13.581   7.333  0.2277 -0.1381  0.0384
  769POPS   C3A12061  16.938  13.300   7.478 -0.1703  0.0932 -0.2033
  769POPS   C4A12062  16.985  13.136   7.818 -0.2504  0.1562  0.2211
  769POPS   C1B12063  16.523  12.769   6.836  0.0742 -0.3470 -0.1423
  769POPS   C2B12064  16.576  12.654   7.239 -0.0572 -0.2732 -0.1267
  769POPS   C3B12065  16.582  12.981   7.574  0.0474  0.1996 -0.2002
  769POPS   C4B12066  16.333  13.324   7.677 -0.0816  0.3107  0.0062
  770POPS   CNO12067   1.820  12.058   5.314  0.0137  0.0847  0.1056
  770POPS   PO412068   1.754  11.879   5.691  0.0565  0.2130 -0.0211
  770POPS   GL112069   2.193  11.673   5.915 -0.0520 -0.0109  0.0398
  770POPS   GL212070   2.462  11.789   5.961 -0.1263  0.0541  0.0043
  770POPS   C1A12071   2.226  11.534   6.323 -0.0414 -0.1428  0.0519
  770POPS   D2A12072   2.083  11.574   6.690  0.1411 -0.1283 -0.0948
  770POPS   C3A12073   2.176  11.405   7.145 -0.2232  0.0676  0.0143
  770POPS   C4A12074   2.459  11.266   7.499 -0.0140  0.0231  0.0041
  770POPS   C1B12075   2.655  11.776   6.394  0.0854 -0.0276  0.2557
  770POPS   C2B12076   2.590  11.749   6.830 -0.3139 -0.0747  0.0190
  770POPS   C3B12077   2.698  11.821   7.391  0.2256  0.4336 -0.1495
  770POPS   C4B12078   2.783  12.032   7.783 -0.0973  0.0642 -0.2040
  771POPS   CNO12079  10.502  12.270   5.955  0.3071  0.0148 -0.3780
  771POPS   PO412080  10.216  12.111   6.212  0.1409  0.0756 -0.0154
  771POPS   GL112081   9.933  12.190   6.602  0.2931  0.0612 -0.1238
  771POPS   GL212082   9.907  11.782   6.695  0.1536 -0.0760  0.2259
  771POPS   C1A12083   9.811  12.460   6.926 -0.0282 -0.1331 -0.1532
  771POPS   D2A12084   9.789  12.592   7.258 -0.0296 -0.1065 -0.2745
  771POPS   C3A12085   9.481  12.311   7.284 -0.2073  0.0659 -0.0583
  771POPS   C4A12086   9.298  11.892   7.466 -0.4340 -0.1968  0.1881
  771POPS   C1B12087  10.156  11.567   6.992 -0.0951  0.0566  0.0855
  771POPS   C2B12088  10.291  11.329   7.372 -0.2611  0.2756 -0.3270
  771POPS   C3B12089  10.131  11.424   7.747 -0.4490  0.1131  0.1047
  771POPS   C4B12090   9.740  11.218   7.906  0.1221  0.3015 -0.3275
  772POPS   CNO12091   9.963  14.186   5.389  0.1165  0.0620  0.3015
  772POPS   PO412092   9.819  13.928   5.772  0.2192 -0.0401 -0.1043
  772POPS   GL112093   9.833  14.084   6.218  0.1718 -0.1248  0.0150
  772POPS   GL212094   9.632  13.766   6.354  0.1412  0.3926  0.0837
  772POPS   C1A12095   9.983  14.090   6.616  0.2564  0.0691 -0.2075
  772POPS   D2A12096  10.039  14.206   7.077 -0.0516  0.2445 -0.1725
  772POPS   C3A12097   9.803  14.569   7.229 -0.1665 -0.0767  0.0161
  772POPS   C4A12098   9.422  14.691   7.110 -0.0142  0.1418  0.1086
  772POPS   C1B12099   9.458  13.449   6.604 -0.3373 -0.1562  0.2093
  772POPS   C2B12100   9.247  13.555   7.050  0.3325  0.1474 -0.2984
  772POPS   C3B12101   9.106  13.982   7.219 -0.1991  0.2367  0.0422
  772POPS   C4B12102   9.026  13.947   7.640 -0.0119 -0.1503 -0.1783
  773POPS   CNO12103  10.362   1.134   5.533 -0.0062 -0.1017 -0.0733
  773POPS   PO412104  10.141   0.814   5.480 -0.0285 -0.2696 -0.2354
  773POPS   GL112105  10.070   0.899   5.915  0.1884 -0.0794  0.1794
  773POPS   GL212106  10.296   1.182   6.080  0.1849 -0.0371 -0.1203
  773POPS   C1A12107  10.217   0.744   6.258 -0.3000 -0.0169 -0.0377
  773POPS   D2A12108  10.573   0.580   6.352 -0.1139 -0.2020 -0.0015
  773POPS   C3A12109  10.810   0.894   6.552  0.1748  0.0912  0.0525
  773POPS   C4A12110  11.262   1.026   6.487  0.1888 -0.0835  0.0798
  773POPS   C1B12111  10.450   1.242   6.560  0.1360 -0.0073 -0.2825
  773POPS   C2B12112  10.418   1.261   7.067  0.3105  0.0073 -0.0447
  773POPS   C3B12113  10.347   1.473   7.482  0.0410  0.1036  0.0124
  773POPS   C4B12114  10.230   1.221   7.843 -0.0842  0.1855 -0.1442
  774POPS   CNO12115   2.516   2.836   5.058 -0.0349 -0.0670  0.0745
  774POPS   PO412116   2.432   3.006   5.437 -0.0763 -0.3207 -0.0405
  774POPS   GL112117   2.606   3.200   5.846  0.0030  0.3300 -0.4528
  774POPS   GL212118   2.772   3.008   5.973 -0.1048 -0.1253 -0.1658
  774POPS   C1A12119   2.554   3.605   6.067  0.0729  0.1828  0.0300
  774POPS   D2A12120   2.241   3.857   6.300 -0.0764 -0.0933  0.0821
  774POPS   C3A12121   2.368   4.174   6.452 -0.1053  0.0381 -0.1105
  774POPS   C4A12122   2.578   4.176   6.124 -0.1865  0.0685 -0.1002
  774POPS   C1B12123   2.663   3.193   6.322 -0.0944  0.0705  0.2446
  774POPS   C2B12124   2.708   3.307   6.740  0.0574 -0.1814 -0.2407
  774POPS   C3B12125   2.719   3.530   7.116  0.2019 -0.0565 -0.0350
  774POPS   C4B12126   2.828   3.948   7.009 -0.2026  0.2099 -0.3024
  775POPS   CNO12127   3.977   7.259   5.252  0.2153  0.1198 -0.0561
  775POPS   PO412128   4.082   7.500   5.517 -0.0325  0.0386 -0.1910
  775POPS   GL112129   4.220   7.373   5.899 -0.0316  0.1609  0.0643
  775POPS   GL212130   4.402   7.610   6.146 -0.0657  0.2839 -0.4196
  775POPS   C1A12131   4.274   7.132   6.309  0.1973 -0.1561 -0.1115
  775POPS   D2A12132   4.269   7.420   6.730 -0.2449  0.0124 -0.0320
  775POPS   C3A12133   4.534   7.065   7.004  0.2012 -0.0085 -0.0232
  775POPS   C4A12134   4.332   6.929   7.372  0.0293  0.0243  0.0203
  775POPS   C1B12135   4.438   7.805   6.455 -0.0244 -0.1102  0.1683
  775POPS   C2B12136   4.652   7.722   6.842 -0.0894  0.2894 -0.1131
  775POPS   C3B12137   4.703   7.413   7.253 -0.1428  0.0829 -0.2929
  775POPS   C4B12138   5.154   7.294   7.540 -0.0006 -0.2746  0.0677
  776POPS   CNO12139  13.442  17.105   5.098  0.3440 -0.1159 -0.1518
  776POPS   PO412140  13.453  17.571   5.281 -0.0041 -0.0752 -0.0636
  776POPS   GL112141  13.355  17.758   5.693  0.4012  0.0199 -0.0884
  776POPS   GL212142  13.350  18.110   5.775 -0.0587 -0.1201 -0.0620
  776POPS   C1A12143  12.969  17.915   6.010 -0.2935 -0.1659  0.1742
  776POPS   D2A12144  12.572  17.813   5.978  0.3149 -0.0184  0.0205
  776POPS   C3A12145  12.438  17.682   6.406 -0.1199  0.4160 -0.0774
  776POPS   C4A12146  12.307  17.679   6.764  0.1180  0.3401  0.0429
  776POPS   C1B12147  13.516  17.897   6.209 -0.2899 -0.1115 -0.0084
  776POPS   C2B12148  13.761  17.877   6.472 -0.1267  0.0290 -0.0206
  776POPS   C3B12149  13.866  17.859   6.797  0.0026  0.2182 -0.0192
  776POPS   C4B12150  14.027  18.014   7.154  0.0266 -0.0589 -0.0326
  777POPS   CNO12151  16.081  17.887   5.990 -0.5024  0.1611 -0.1008
  777POPS   PO412152  16.578  17.913   5.877  0.0876  0.2147  0.1810
  777POPS   GL112153  16.584  17.616   6.148  0.2527  0.1454 -0.0886
  777POPS   GL212154  16.744  17.737   6.315 -0.1675 -0.0653 -0.0522
  777POPS   C1A12155  16.574  17.400   6.631  0.1217  0.2072 -0.1894
  777POPS   D2A12156  16.312  17.398   7.052 -0.2226 -0.2522 -0.0367
  777POPS   C3A12157  16.363  17.786   7.349 -0.0774 -0.0065 -0.2637
  777POPS   C4A12158  16.291  18.155   7.409 -0.1082  0.0392  0.1829
  777POPS   C1B12159  16.962  17.901   6.655  0.0181 -0.0668  0.0213
  777POPS   C2B12160  17.024  18.079   7.100 -0.0445 -0.1153 -0.2957
  777POPS   C3B12161  16.883  18.247   7.486 -0.0283  0.1560 -0.0057
  777POPS   C4B12162  16.920  18.367   7.950 -0.0007 -0.1002 -0.0654
  778POPS   CNO12163  14.471  15.542   6.067 -0.0751 -0.0011  0.0631
  778POPS   PO412164  14.672  15.325   5.799  0.0033  0.0083  0.3836
  778POPS   GL112165  14.811  15.166   6.154  0.1924  0.0937  0.3324
  778POPS   GL212166  14.489  15.027   6.234  0.1454  0.1497  0.2438
  778POPS   C1A12167  14.898  15.132   6.628 -0.0166  0.2691 -0.0381
  778POPS   D2A12168  14.738  15.155   7.071  0.1113  0.0594  0.2516
  778POPS   C3A12169  14.763  14.999   7.508 -0.1605 -0.3216 -0.0730
  778POPS   C4A12170  15.026  14.669   7.771 -0.1859  0.4230  0.0225
  778POPS   C1B12171  14.367  15.350   6.570  0.0629 -0.0482 -0.1126
  778POPS   C2B12172  14.482  15.594   6.915  0.1531  0.0895 -0.0481
  778POPS   C3B12173  14.235  15.718   7.266  0.1316 -0.1941 -0.0935
  778POPS   C4B12174  14.166  15.762   7.770  0.2266  0.0620  0.1680
  779POPS   CNO12175   3.342   2.237   6.096  0.1280 -0.0895  0.2066
  779POPS   PO412176   3.117   2.182   5.712 -0.0555  0.1684  0.1461
  779POPS   GL112177   2.923   2.506   5.965  0.1876 -0.0004  0.1127
  779POPS   GL212178   2.811   2.291   6.129 -0.1809 -0.0124  0.4162
  779POPS   C1A12179   3.106   2.702   6.185  0.1772 -0.2681  0.1374
  779POPS   D2A12180   3.103   2.786   6.661  0.2330 -0.1388  0.0729
  779POPS   C3A12181   2.905   2.878   7.069  0.2254 -0.0149  0.3637
  779POPS   C4A12182   2.767   3.149   7.398  0.2309 -0.2231  0.2872
  779POPS   C1B12183   2.964   2.303   6.486  0.1408  0.1512 -0.1584
  779POPS   C2B12184   2.834   2.373   6.936 -0.1607 -0.3462  0.5852
  779POPS   C3B12185   2.970   2.440   7.340  0.0703  0.0383 -0.1088
  779POPS   C4B12186   3.236   2.763   7.462  0.2221  0.0632  0.1115
  780POPS   CNO12187  10.511   6.924   5.498 -0.1438  0.1556 -0.1669
  780POPS   PO412188  10.462   6.795   5.927 -0.0260 -0.4330  0.1466
  780POPS   GL112189  10.764   6.819   6.217  0.2222  0.1971  0.1274
  780POPS   GL212190  10.747   7.153   6.324 -0.0204  0.3985 -0.0332
  780POPS   C1A12191  11.011   6.730   6.634 -0.0383 -0.2206  0.2003
  780POPS   D2A12192  11.415   6.835   6.678  0.0239  0.2112  0.1870
  780POPS   C3A12193  11.529   7.060   7.117  0.0284  0.0696 -0.1545
  780POPS   C4A12194  11.618   7.116   7.584 -0.3065 -0.1573  0.0893
  780POPS   C1B12195  10.581   7.405   6.736  0.2521 -0.2032 -0.0238
  780POPS   C2B12196  10.397   7.297   7.079 -0.0189 -0.1767 -0.2075
  780POPS   C3B12197  10.450   7.494   7.440 -0.0510 -0.1344  0.0729
  780POPS   C4B12198  10.331   7.345   7.776  0.1570 -0.1543 -0.1650
  781POPS   CNO12199   4.044  14.209   5.688 -0.1133  0.2863  0.3723
  781POPS   PO412200   4.151  14.585   5.869 -0.0183  0.0451 -0.3125
  781POPS   GL112201   4.141  14.596   6.336 -0.0708 -0.1860  0.1044
  781POPS   GL212202   4.012  14.878   6.470  0.0637 -0.0918  0.0893
  781POPS   C1A12203   4.122  14.343   6.734  0.2156  0.3451  0.0080
  781POPS   D2A12204   4.184  14.054   6.925 -0.3683 -0.1439  0.0508
  781POPS   C3A12205   4.222  14.042   7.355  0.1892  0.0571  0.2071
  781POPS   C4A12206   4.150  13.848   7.707 -0.1320  0.3948  0.1962
  781POPS   C1B12207   3.802  15.157   6.876 -0.1100 -0.0046 -0.2663
  781POPS   C2B12208   3.635  15.013   7.260 -0.2098  0.2657  0.1395
  781POPS   C3B12209   3.562  14.791   7.649 -0.0177 -0.3108  0.0545
  781POPS   C4B12210   3.353  14.579   8.010  0.1578  0.3213  0.1295
  782POPS   CNO12211  16.541   5.953   5.045  0.1425  0.1686  0.0241
  782POPS   PO412212  16.585   6.305   5.241  0.3268 -0.0921 -0.1368
  782POPS   GL112213  16.685   6.031   5.513 -0.2699  0.1042  0.3577
  782POPS   GL212214  16.970   5.893   5.507  0.1295  0.1814  0.4066
  782POPS   C1A12215  16.348   5.946   5.768  0.1803 -0.0969 -0.0915
  782POPS   D2A12216  15.999   5.931   6.010  0.0906 -0.1243  0.0886
  782POPS   C3A12217  16.059   6.041   6.479  0.1352  0.1795 -0.2353
  782POPS   C4A12218  15.981   5.943   6.956  0.1740 -0.0240  0.0847
  782POPS   C1B12219  17.000   6.128   5.913  0.0975 -0.3129  0.0045
  782POPS   C2B12220  16.964   6.453   6.196 -0.0242  0.0733  0.3663
  782POPS   C3B12221  16.878   6.367   6.522 -0.0914 -0.1063  0.0052
  782POPS   C4B12222  16.953   6.082   6.747 -0.0968  0.0747  0.1137
  783POPS   CNO12223  15.515   7.260   5.422 -0.1245  0.0481  0.1199
  783POPS   PO412224  15.125   7.145   5.635  0.0797 -0.1261  0.2646
  783POPS   GL112225  14.996   6.914   5.926  0.1475  0.0447  0.0647
  783POPS   GL212226  14.644   6.907   6.043 -0.0009  0.1488  0.1661
  783POPS   C1A12227  15.095   6.725   6.337 -0.0336 -0.0717  0.1707
  783POPS   D2A12228  15.287   6.440   6.704 -0.1490  0.0382 -0.0309
  783POPS   C3A12229  15.335   6.562   7.126 -0.1506 -0.3692  0.1095
  783POPS   C4A12230  15.078   6.662   7.533 -0.2085  0.3552  0.1817
  783POPS   C1B12231  14.490   7.252   6.299 -0.0348 -0.2717  0.1132
  783POPS   C2B12232  14.700   7.484   6.657 -0.1282  0.0275  0.0791
  783POPS   C3B12233  14.781   7.452   7.069  0.1196  0.3362 -0.2290
  783POPS   C4B12234  15.028   7.546   7.313 -0.1694  0.0539 -0.2894
  784POPS   CNO12235   6.348  14.663   5.985 -0.0826 -0.2867  0.4459
  784POPS   PO412236   6.576  14.324   5.993  0.1715  0.0066 -0.0024
  784POPS   GL112237   6.411  14.290   6.384  0.0781  0.3117  0.2613
  784POPS   GL212238   6.572  14.139   6.535 -0.1055  0.0118 -0.1524
  784POPS   C1A12239   6.193  14.440   6.677 -0.0760 -0.0166  0.1014
  784POPS   D2A12240   5.784  14.521   6.645 -0.1201 -0.0967 -0.0663
  784POPS   C3A12241   5.431  14.295   6.900 -0.2861 -0.0059  0.2822
  784POPS   C4A12242   5.061  14.238   6.782  0.1422  0.2171  0.0039
  784POPS   C1B12243   6.909  14.418   6.772 -0.2416 -0.0940  0.1690
  784POPS   C2B12244   7.140  14.837   6.950  0.1920  0.0066  0.1461
  784POPS   C3B12245   7.377  15.042   7.251 -0.0713  0.1386 -0.0016
  784POPS   C4B12246   7.553  15.137   7.696 -0.1711  0.0634  0.1219
  785POPS   CNO12247   9.776  10.518   5.592 -0.0734  0.0814  0.0667
  785POPS   PO412248   9.576  10.107   5.898  0.1619  0.1284  0.2070
  785POPS   GL112249   9.397  10.264   6.206  0.1267  0.0940  0.3784
  785POPS   GL212250   9.246  10.011   6.498 -0.1497 -0.0071  0.1695
  785POPS   C1A12251   9.639  10.339   6.648 -0.1301  0.3444  0.2483
  785POPS   D2A12252   9.552  10.498   7.073  0.1106 -0.0672  0.0537
  785POPS   C3A12253   9.907  10.473   7.353 -0.1242  0.0481 -0.3269
  785POPS   C4A12254  10.148  10.418   7.803  0.1121  0.0424 -0.0885
  785POPS   C1B12255   9.397   9.989   6.942  0.1468 -0.0672  0.0847
  785POPS   C2B12256   9.681   9.998   7.205  0.0946  0.0227 -0.0494
  785POPS   C3B12257   9.962   9.975   7.636 -0.1430  0.1307  0.0318
  785POPS   C4B12258  10.357   9.900   7.914  0.0646  0.0533 -0.1433
  786POPS   CNO12259   9.308  10.594   5.811 -0.1046 -0.0866 -0.1428
  786POPS   PO412260   9.565  10.733   6.093  0.0546 -0.0510 -0.1969
  786POPS   GL112261   9.420  10.849   6.427 -0.0571 -0.3056 -0.1041
  786POPS   GL212262   9.306  11.125   6.508  0.0926 -0.0491  0.3589
  786POPS   C1A12263   9.143  10.538   6.638 -0.0411  0.1275 -0.3734
  786POPS   D2A12264   9.015  10.259   6.891 -0.0042  0.0028 -0.1307
  786POPS   C3A12265   9.176  10.169   7.312  0.2704 -0.0161 -0.2146
  786POPS   C4A12266   9.410  10.432   7.626 -0.3590  0.2301 -0.0796
  786POPS   C1B12267   9.222  10.990   6.913  0.0240  0.1051  0.2001
  786POPS   C2B12268   9.153  10.764   7.234 -0.1922  0.0435  0.1117
  786POPS   C3B12269   9.003  10.629   7.679  0.2588 -0.0999 -0.0468
  786POPS   C4B12270   8.785  10.548   8.102  0.0531  0.2532 -0.0447
  787POPS   CNO12271   0.374   3.716   5.078 -0.1097  0.2259 -0.1442
  787POPS   PO412272   0.759   3.912   4.942 -0.0755 -0.1037 -0.2547
  787POPS   GL112273   0.712   3.942   5.381  0.2588  0.0915 -0.2998
  787POPS   GL212274   0.823   4.048   5.656  0.2708 -0.0155  0.0281
  787POPS   C1A12275   0.586   3.566   5.653  0.1195  0.0833 -0.0335
  787POPS   D2A12276   0.307   3.682   5.913  0.2188 -0.0072  0.1346
  787POPS   C3A12277   0.356   3.562   6.269 -0.1405  0.0456 -0.1840
  787POPS   C4A12278   0.716   3.408   6.521 -0.0031  0.1557  0.2246
  787POPS   C1B12279   0.827   4.264   6.049 -0.1919 -0.3714 -0.0254
  787POPS   C2B12280   0.846   4.261   6.504 -0.1654  0.0513 -0.3056
  787POPS   C3B12281   0.777   4.309   7.028  0.2475  0.0089 -0.1632
  787POPS   C4B12282   0.545   4.050   7.299 -0.0017  0.1481  0.2337
  788POPS   CNO12283   2.543  12.754   5.395  0.0737  0.0708  0.1041
  788POPS   PO412284   2.308  12.810   5.700 -0.4493 -0.0804  0.1234
  788POPS   GL112285   2.263  12.828   6.186 -0.0981  0.1804 -0.0532
  788POPS   GL212286   2.098  13.046   6.281 -0.1893 -0.0874 -0.2247
  788POPS   C1A12287   2.534  12.604   6.540  0.0814  0.4704 -0.1095
  788POPS   D2A12288   2.754  12.221   6.644  0.2796  0.0242 -0.0578
  788POPS   C3A12289   2.525  12.250   7.076  0.1247 -0.0023  0.0847
  788POPS   C4A12290   2.315  12.147   7.518  0.1163  0.0284 -0.0402
  788POPS   C1B12291   2.148  13.021   6.671  0.3336  0.0625 -0.0129
  788POPS   C2B12292   1.948  12.990   7.056  0.1770 -0.0787 -0.3229
  788POPS   C3B12293   1.627  12.927   7.313  0.1058 -0.1245  0.1035
  788POPS   C4B12294   1.528  12.838   7.759 -0.0913  0.1799  0.0816
  789POPS   CNO12295  15.474   0.841   5.440  0.0988  0.0768  0.2749
  789POPS   PO412296  15.736   1.199   5.650 -0.0774  0.0086 -0.2952
  789POPS   GL112297  15.645   1.480   5.993 -0.0131 -0.0674  0.0841
  789POPS   GL212298  15.602   1.124   6.162 -0.0455 -0.0104 -0.2254
  789POPS   C1A12299  15.769   1.716   6.406  0.0187 -0.0175 -0.3766
  789POPS   D2A12300  15.585   1.804   6.779 -0.1491 -0.1824  0.1616
  789POPS   C3A12301  15.630   1.966   7.169  0.0893 -0.2059 -0.0207
  789POPS   C4A12302  15.856   2.095   7.541 -0.0439 -0.0402 -0.1144
  789POPS   C1B12303  15.552   1.266   6.442  0.1248 -0.0557 -0.0486
  789POPS   C2B12304  15.259   1.438   6.750 -0.0714  0.1904 -0.0528
  789POPS   C3B12305  15.127   1.817   7.065 -0.1331  0.1122 -0.1921
  789POPS   C4B12306  15.180   1.970   7.509  0.0882  0.0088  0.1652
  790POPS   CNO12307  15.017   1.893   5.229  0.3452 -0.1327  0.0104
  790POPS   PO412308  15.418   2.051   5.319  0.0295  0.0245  0.0979
  790POPS   GL112309  15.639   2.188   5.663 -0.0640  0.2660 -0.0960
  790POPS   GL212310  15.672   2.534   5.695 -0.3572 -0.0462 -0.0908
  790POPS   C1A12311  15.567   2.059   6.063 -0.2195  0.0595  0.1541
  790POPS   D2A12312  15.803   2.255   6.510  0.0902 -0.1424 -0.2602
  790POPS   C3A12313  15.794   2.418   6.890  0.3106 -0.0202  0.0704
  790POPS   C4A12314  15.776   2.535   7.285 -0.0953  0.2866  0.1581
  790POPS   C1B12315  15.740   2.936   5.839  0.1394 -0.2390 -0.0867
  790POPS   C2B12316  15.710   3.043   6.308 -0.0268  0.1952  0.0663
  790POPS   C3B12317  15.719   3.150   6.751  0.1552  0.3340  0.0520
  790POPS   C4B12318  15.547   2.839   6.958 -0.0591  0.1841 -0.1494
  791POPS   CNO12319   3.758   5.592   5.844 -0.0684  0.1077 -0.3889
  791POPS   PO412320   3.992   5.797   5.577 -0.0171  0.0529  0.3963
  791POPS   GL112321   3.808   6.112   5.962 -0.0714  0.3307  0.5232
  791POPS   GL212322   4.015   6.243   6.168 -0.0102 -0.0547  0.2981
  791POPS   C1A12323   3.594   5.972   6.286  0.2269  0.0773 -0.0956
  791POPS   D2A12324   3.284   6.050   6.600 -0.0330  0.1531 -0.0584
  791POPS   C3A12325   3.288   5.909   7.013  0.1795  0.0353 -0.0907
  791POPS   C4A12326   3.421   5.834   7.442 -0.0617  0.2613  0.1253
  791POPS   C1B12327   3.983   6.058   6.549 -0.2249  0.1289  0.0360
  791POPS   C2B12328   4.206   6.082   6.935  0.1206 -0.1423 -0.0601
  791POPS   C3B12329   4.524   6.075   7.212 -0.4251 -0.3212 -0.0941
  791POPS   C4B12330   4.798   6.040   7.567 -0.0305  0.0353 -0.1745
  792POPS   CNO12331   6.226  10.754   5.689 -0.1138 -0.2639 -0.1166
  792POPS   PO412332   6.316  10.388   5.785  0.2899 -0.0813  0.0717
  792POPS   GL112333   6.126  10.361   6.186  0.0119 -0.4169  0.0889
  792POPS   GL212334   5.787  10.098   6.277 -0.0353  0.0796 -0.2606
  792POPS   C1A12335   6.212  10.534   6.583  0.1101  0.0887 -0.1456
  792POPS   D2A12336   6.358  10.917   6.810  0.0867 -0.1196  0.4572
  792POPS   C3A12337   6.087  11.132   7.120  0.1930 -0.2898 -0.2010
  792POPS   C4A12338   6.290  11.298   7.484  0.1738  0.0316 -0.0557
  792POPS   C1B12339   5.764  10.350   6.706 -0.1449  0.2206 -0.0379
  792POPS   C2B12340   5.735  10.219   7.097 -0.2795 -0.1067 -0.1177
  792POPS   C3B12341   5.921  10.300   7.517  0.1803 -0.2878 -0.0824
  792POPS   C4B12342   6.260  10.457   7.801  0.0727 -0.1032 -0.2720
  793POPS   CNO12343  16.209   5.576   5.222  0.1831  0.1115  0.0820
  793POPS   PO412344  16.302   5.125   5.237 -0.0835 -0.1838  0.1361
  793POPS   GL112345  16.205   5.245   5.632  0.2029  0.2409 -0.0552
  793POPS   GL212346  15.958   5.447   5.651  0.0195  0.0213  0.0094
  793POPS   C1A12347  16.336   5.390   6.041  0.0683 -0.1667  0.2330
  793POPS   D2A12348  16.283   5.677   6.308  0.0134 -0.2931  0.0695
  793POPS   C3A12349  16.647   5.982   6.287  0.0253 -0.2492  0.5328
  793POPS   C4A12350  17.082   5.836   6.378  0.2578  0.1420 -0.1860
  793POPS   C1B12351  15.794   5.487   6.003 -0.0446 -0.0704 -0.0306
  793POPS   C2B12352  15.794   5.554   6.432  0.0239  0.5230 -0.0298
  793POPS   C3B12353  16.001   5.479   6.777  0.1855 -0.2306  0.0453
  793POPS   C4B12354  16.339   5.506   7.122  0.3897 -0.0317  0.0233
  794POPS   CNO12355  14.061   0.398   5.628 -0.0655  0.0934 -0.0857
  794POPS   PO412356  14.230   0.738   5.808  0.1450 -0.0753 -0.0460
  794POPS   GL112357  14.123   0.558   6.191 -0.3735 -0.0459  0.2507
  794POPS   GL212358  14.252   0.352   6.329  0.0270 -0.2042 -0.0829
  794POPS   C1A12359  13.874   0.592   6.459  0.1615  0.3676  0.1677
  794POPS   D2A12360  13.588   0.479   6.902  0.0150  0.1857  0.0836
  794POPS   C3A12361  14.011   0.521   7.109  0.0329  0.0529 -0.0887
  794POPS   C4A12362  14.219   0.690   7.429 -0.1242  0.4704 -0.2372
  794POPS   C1B12363  14.290   0.264   6.805 -0.1251  0.2137 -0.2187
  794POPS   C2B12364  14.299   0.107   7.282  0.5742 -0.1747  0.0975
  794POPS   C3B12365  14.025  -0.073   7.587  0.1670  0.1044 -0.4025
  794POPS   C4B12366  13.848  -0.447   7.779 -0.0657  0.0128  0.0947
  795POPS   CNO12367  15.719  16.989   5.385 -0.0084 -0.1940 -0.2734
  795POPS   PO412368  15.798  17.304   5.756 -0.1097  0.0549  0.1793
  795POPS   GL112369  16.062  17.379   6.119 -0.0188 -0.0235 -0.1434
  795POPS   GL212370  16.288  17.112   6.281  0.1144 -0.0614 -0.0915
  795POPS   C1A12371  16.170  17.668   6.455 -0.0391  0.1317 -0.4041
  795POPS   D2A12372  15.948  18.044   6.644  0.2087  0.1967  0.0076
  795POPS   C3A12373  16.090  18.256   6.964  0.2880  0.1080  0.1364
  795POPS   C4A12374  16.491  18.389   7.013  0.0938 -0.0423 -0.1913
  795POPS   C1B12375  15.953  17.188   6.586 -0.4391 -0.1902 -0.2915
  795POPS   C2B12376  15.750  17.138   6.979  0.4453 -0.2273  0.2209
  795POPS   C3B12377  15.361  17.089   7.196  0.0015  0.1779  0.0434
  795POPS   C4B12378  15.361  16.794   7.542  0.3723  0.4413  0.1943
  796POPS   CNO12379   2.590   9.524   5.857 -0.0803  0.0536  0.0604
  796POPS   PO412380   2.250   9.201   5.849 -0.0471 -0.0169 -0.1615
  796POPS   GL112381   2.236   9.335   6.230  0.0928 -0.2706 -0.6539
  796POPS   GL212382   2.040   9.115   6.319  0.0519 -0.3357 -0.0545
  796POPS   C1A12383   2.216   9.452   6.704 -0.0303 -0.3504  0.0944
  796POPS   D2A12384   2.433   9.448   7.112  0.0582  0.0598  0.0718
  796POPS   C3A12385   2.191   9.605   7.466 -0.1478 -0.0114 -0.1103
  796POPS   C4A12386   1.868   9.941   7.417 -0.0990 -0.0744 -0.3114
  796POPS   C1B12387   2.004   8.885   6.742  0.1855 -0.2654 -0.2626
  796POPS   C2B12388   1.971   8.630   7.068 -0.2602  0.0160  0.0572
  796POPS   C3B12389   1.752   8.661   7.420 -0.1439  0.1788 -0.0631
  796POPS   C4B12390   1.543   8.711   7.760  0.2102  0.0134  0.1215
  797POPS   CNO12391  16.512  15.141   6.270  0.2041 -0.1324  0.1091
  797POPS   PO412392  16.404  15.375   5.954 -0.1393  0.1657 -0.4273
  797POPS   GL112393  16.228  15.652   6.340  0.2354  0.1804  0.0259
  797POPS   GL212394  16.497  15.482   6.657 -0.2031  0.2410  0.0753
  797POPS   C1A12395  16.065  16.037   6.498 -0.1034  0.0143  0.1474
  797POPS   D2A12396  15.781  16.344   6.713 -0.1178 -0.0771 -0.2375
  797POPS   C3A12397  15.544  16.670   6.576  0.0643 -0.3087  0.3094
  797POPS   C4A12398  15.359  17.058   6.684  0.0365  0.1075 -0.3427
  797POPS   C1B12399  16.330  15.715   6.983 -0.0788 -0.1612  0.0359
  797POPS   C2B12400  16.448  16.121   7.291  0.3824  0.1549  0.1081
  797POPS   C3B12401  16.758  16.322   7.645  0.0330 -0.0492  0.1409
  797POPS   C4B12402  16.995  16.499   7.977 -0.1618 -0.1059  0.5180
  798POPS   CNO12403   1.513   9.762   5.659 -0.0202 -0.0860  0.2722
  798POPS   PO412404   1.630   9.984   6.016 -0.2165 -0.0442  0.1870
  798POPS   GL112405   1.632  10.019   6.425  0.1246 -0.2530 -0.3114
  798POPS   GL212406   1.925   9.781   6.523  0.2033  0.0741  0.0910
  798POPS   C1A12407   1.339   9.917   6.762 -0.1397 -0.1754  0.1050
  798POPS   D2A12408   1.310   9.803   7.241  0.0123 -0.0779  0.2622
  798POPS   C3A12409   1.492   9.402   7.424 -0.1692  0.1813  0.0094
  798POPS   C4A12410   1.488   9.226   7.802 -0.0434  0.1454  0.0234
  798POPS   C1B12411   1.582   9.530   6.604 -0.0386  0.0014  0.0148
  798POPS   C2B12412   1.275   9.440   6.865  0.0063  0.0358  0.1737
  798POPS   C3B12413   0.868   9.620   6.920  0.1332 -0.1906 -0.0585
  798POPS   C4B12414   0.621   9.679   6.716 -0.4055  0.1744  0.2442
  799POPS   CNO12415   3.458   4.231   5.596  0.3968  0.1662  0.0872
  799POPS   PO412416   3.972   4.056   5.468 -0.1086  0.1132 -0.4572
  799POPS   GL112417   3.970   4.205   5.867 -0.3548 -0.0540 -0.2887
  799POPS   GL212418   4.299   4.323   5.950  0.1860 -0.1705 -0.1138
  799POPS   C1A12419   3.608   4.307   6.091  0.1370 -0.0692 -0.0537
  799POPS   D2A12420   3.562   4.299   6.448 -0.0677 -0.1826  0.1674
  799POPS   C3A12421   3.252   4.433   6.723  0.4279  0.0366  0.1646
  799POPS   C4A12422   3.368   4.578   7.212 -0.0517  0.0646  0.3257
  799POPS   C1B12423   4.384   4.216   6.318 -0.0852 -0.4440 -0.4620
  799POPS   C2B12424   4.457   4.138   6.770  0.2625  0.1197 -0.1102
  799POPS   C3B12425   4.361   4.068   7.198 -0.2348 -0.0117  0.0018
  799POPS   C4B12426   4.203   3.992   7.526  0.2187 -0.1757  0.0542
  800POPS   CNO12427   3.116   4.582   5.491 -0.2054  0.0553 -0.0275
  800POPS   PO412428   2.819   4.751   5.268  0.2069 -0.1786 -0.0090
  800POPS   GL112429   2.789   4.758   5.804  0.2609  0.1345 -0.1804
  800POPS   GL212430   2.944   4.532   5.947  0.0065  0.0006 -0.3677
  800POPS   C1A12431   2.839   5.066   6.195  0.0139  0.1576  0.1322
  800POPS   D2A12432   3.023   5.107   6.500  0.0409 -0.1542 -0.0767
  800POPS   C3A12433   2.969   4.819   6.904  0.0695 -0.0705 -0.0039
  800POPS   C4A12434   2.614   4.821   7.167 -0.4344 -0.0694 -0.0079
  800POPS   C1B12435   2.976   4.622   6.360  0.2185  0.1374  0.1955
  800POPS   C2B12436   2.716   4.395   6.777  0.0046  0.1307  0.0314
  800POPS   C3B12437   2.390   4.247   7.029  0.1349 -0.2270 -0.1631
  800POPS   C4B12438   1.966   4.237   7.031 -0.0260 -0.3497  0.0724
  801POPS   CNO12439   0.559  12.281   5.610 -0.1125  0.1783 -0.3338
  801POPS   PO412440   0.991  12.189   5.724 -0.3975 -0.0660 -0.1133
  801POPS   GL112441   1.035  12.052   6.098  0.1703 -0.0669  0.0786
  801POPS   GL212442   0.975  11.606   6.046  0.0612 -0.0551  0.3236
  801POPS   C1A12443   1.073  11.833   6.545  0.4580 -0.0787 -0.1468
  801POPS   D2A12444   1.081  11.760   6.944 -0.1124  0.2589 -0.1104
  801POPS   C3A12445   1.269  11.357   7.050  0.2854 -0.0247  0.1177
  801POPS   C4A12446   1.257  10.957   6.824  0.0422 -0.1692  0.0286
  801POPS   C1B12447   0.967  11.294   6.401  0.4386  0.2437  0.0357
  801POPS   C2B12448   0.774  11.172   6.782  0.0803  0.0063 -0.0181
  801POPS   C3B12449   0.857  10.944   7.172  0.0638 -0.1583  0.0308
  801POPS   C4B12450   1.020  10.551   7.378  0.2395 -0.0170 -0.2296
  802POPS   CNO12451  12.647   7.784   5.771  0.1621  0.0970  0.0025
  802POPS   PO412452  12.277   7.492   5.600  0.1990  0.2803  0.3344
  802POPS   GL112453  12.136   7.498   6.132  0.0905 -0.0452  0.0589
  802POPS   GL212454  12.437   7.528   6.234 -0.1182  0.0217 -0.3439
  802POPS   C1A12455  12.017   7.743   6.487 -0.3472  0.2869  0.1140
  802POPS   D2A12456  11.922   7.652   6.972 -0.0741 -0.0269 -0.3974
  802POPS   C3A12457  12.090   7.327   7.215 -0.1063  0.1392  0.2519
  802POPS   C4A12458  11.949   7.461   7.547 -0.2034  0.0105 -0.1136
  802POPS   C1B12459  12.702   7.613   6.553  0.1104 -0.1772 -0.1298
  802POPS   C2B12460  12.943   7.659   6.985  0.5584  0.1543 -0.2865
  802POPS   C3B12461  13.218   8.009   7.132  0.1079 -0.3190 -0.1686
  802POPS   C4B12462  13.403   7.965   7.485  0.1906 -0.1556  0.1174
  803POPS   CNO12463   2.805  15.445   6.073 -0.3292  0.0222  0.1016
  803POPS   PO412464   3.041  15.715   6.009 -0.1623 -0.0323 -0.2671
  803POPS   GL112465   3.103  15.631   6.377 -0.0388  0.2649 -0.0938
  803POPS   GL212466   3.431  15.680   6.555  0.1219  0.1733  0.0862
  803POPS   C1A12467   2.932  15.359   6.758  0.0021 -0.1354  0.1718
  803POPS   D2A12468   2.731  15.442   7.203  0.2272 -0.2636  0.0292
  803POPS   C3A12469   2.774  15.613   7.603 -0.2278  0.2293  0.1076
  803POPS   C4A12470   3.068  15.600   8.041 -0.1729 -0.2778  0.1431
  803POPS   C1B12471   3.686  15.603   7.039 -0.2747 -0.2997  0.0396
  803POPS   C2B12472   3.619  15.506   7.402 -0.0425  0.1450  0.0866
  803POPS   C3B12473   3.636  15.596   7.871 -0.2126 -0.0886 -0.0026
  803POPS   C4B12474   3.542  15.688   8.301 -0.0296 -0.2584 -0.3363
  804POPS   CNO12475   2.457  12.318   5.773  0.2099 -0.0827  0.2684
  804POPS   PO412476   1.955  12.265   5.915 -0.1709 -0.1259 -0.0720
  804POPS   GL112477   2.032  12.055   6.180 -0.3431 -0.0475  0.0217
  804POPS   GL212478   2.309  12.177   6.257 -0.3391  0.1792 -0.0088
  804POPS   C1A12479   1.777  11.962   6.636  0.3842 -0.1930  0.1597
  804POPS   D2A12480   1.519  12.057   6.956 -0.1795  0.0656  0.0208
  804POPS   C3A12481   1.403  11.786   7.319 -0.1206 -0.0719  0.0209
  804POPS   C4A12482   1.436  11.751   7.802  0.2831 -0.0851 -0.1203
  804POPS   C1B12483   2.298  12.046   6.649  0.1315 -0.2273 -0.1149
  804POPS   C2B12484   2.112  11.934   7.023 -0.0117  0.1704  0.0965
  804POPS   C3B12485   1.948  11.792   7.446  0.1988 -0.1052 -0.1961
  804POPS   C4B12486   1.862  11.478   7.814 -0.1616 -0.1268  0.2469
  805POPS   CNO12487   5.251  13.865   5.965 -0.4467  0.0933 -0.2491
  805POPS   PO412488   5.434  13.428   6.086  0.0840 -0.0828 -0.0107
  805POPS   GL112489   5.411  13.604   6.467  0.1401  0.1845 -0.0818
  805POPS   GL212490   5.200  13.544   6.504 -0.0072  0.1508 -0.1335
  805POPS   C1A12491   5.456  13.824   6.891  0.1129  0.0299 -0.1772
  805POPS   D2A12492   5.134  14.089   7.310  0.0682 -0.1080  0.1001
  805POPS   C3A12493   5.297  14.417   7.395 -0.1125  0.0778 -0.1191
  805POPS   C4A12494   5.645  14.667   7.164 -0.1148  0.0075 -0.2668
  805POPS   C1B12495   5.002  13.527   6.877  0.0749 -0.1603  0.1220
  805POPS   C2B12496   4.591  13.297   6.950 -0.0714  0.4040 -0.2430
  805POPS   C3B12497   4.153  13.475   6.845 -0.0621 -0.2265  0.1481
  805POPS   C4B12498   3.803  13.762   6.942  0.2776  0.1803 -0.2314
  806POPS   CNO12499   6.232   5.508   5.309  0.0249  0.1779 -0.0610
  806POPS   PO412500   6.523   5.208   5.437  0.0643 -0.2872 -0.1770
  806POPS   GL112501   6.470   4.974   5.859 -0.0696  0.0842 -0.0825
  806POPS   GL212502   6.280   5.023   6.073 -0.2482 -0.0937  0.1986
  806POPS   C1A12503   6.759   4.758   6.051  0.4027 -0.3642 -0.0189
  806POPS   D2A12504   6.778   4.319   6.275 -0.3934 -0.3404  0.2765
  806POPS   C3A12505   6.756   4.216   6.616  0.0573  0.1799  0.0511
  806POPS   C4A12506   6.432   3.846   6.720 -0.1530 -0.1865 -0.2340
  806POPS   C1B12507   6.302   4.652   6.330 -0.3156  0.1042  0.1084
  806POPS   C2B12508   6.169   4.378   6.696 -0.2544  0.1011  0.0526
  806POPS   C3B12509   6.303   4.164   7.089  0.0549 -0.2173 -0.2832
  806POPS   C4B12510   6.549   4.247   7.402 -0.0482 -0.2868 -0.2088
  807POPS   CNO12511   8.644   6.749   6.007  0.0824 -0.0675  0.0451
  807POPS   PO412512   8.975   7.142   6.008 -0.0093 -0.3692  0.0187
  807POPS   GL112513   9.128   6.722   6.214 -0.1410  0.3955 -0.0077
  807POPS   GL212514   9.407   6.920   6.126  0.1069  0.3994  0.0911
  807POPS   C1A12515   9.105   6.614   6.643 -0.4089  0.0200  0.2637
  807POPS   D2A12516   8.996   6.366   7.047  0.0928 -0.3719 -0.0260
  807POPS   C3A12517   8.591   6.489   7.197  0.0250 -0.2254  0.2360
  807POPS   C4A12518   8.353   6.480   7.556 -0.3578  0.0166 -0.1142
  807POPS   C1B12519   9.367   7.045   6.529 -0.0614  0.2191  0.2802
  807POPS   C2B12520   9.635   6.922   6.841  0.1039  0.1778 -0.1196
  807POPS   C3B12521  10.000   6.930   7.183  0.1712  0.0425  0.1657
  807POPS   C4B12522  10.121   6.881   7.526  0.0076 -0.3812 -0.1026
  808POPS   CNO12523  18.025   0.581   5.281 -0.0631  0.3079  0.1670
  808POPS   PO412524  17.898   0.589   5.744 -0.1174 -0.1566  0.1795
  808POPS   GL112525  17.629   0.706   6.177  0.1864  0.2214 -0.0126
  808POPS   GL212526  17.340   0.932   6.143  0.3917 -0.0773 -0.2427
  808POPS   C1A12527  17.574   0.742   6.602  0.1026 -0.2340  0.0238
  808POPS   D2A12528  17.873   0.882   6.920 -0.3788  0.0563 -0.1208
  808POPS   C3A12529  17.882   1.229   7.290  0.4711  0.1953  0.3293
  808POPS   C4A12530  18.102   1.206   7.761  0.0688 -0.1256 -0.0006
  808POPS   C1B12531  17.195   1.178   6.546 -0.0100 -0.0059  0.2096
  808POPS   C2B12532  16.983   1.255   6.939 -0.3793 -0.3189  0.4878
  808POPS   C3B12533  17.031   1.545   7.309 -0.0322  0.0954 -0.1565
  808POPS   C4B12534  16.971   1.354   7.611  0.2562 -0.0200  0.3817
  809POPS   CNO12535   9.787  12.952   5.892 -0.1204 -0.2850 -0.0024
  809POPS   PO412536   9.999  13.036   6.287 -0.1444 -0.1285  0.0535
  809POPS   GL112537  10.095  13.475   6.392 -0.0002 -0.0748 -0.2019
  809POPS   GL212538   9.941  13.528   6.679 -0.1166  0.0284  0.1884
  809POPS   C1A12539  10.422  13.737   6.540 -0.0949  0.1412 -0.0678
  809POPS   D2A12540  10.316  13.799   6.930 -0.0662  0.1612 -0.1323
  809POPS   C3A12541  10.101  13.458   7.151  0.1367 -0.0570 -0.1673
  809POPS   C4A12542  10.086  12.950   7.108  0.1781 -0.3805  0.1635
  809POPS   C1B12543   9.748  13.763   7.078  0.1662  0.0547 -0.1490
  809POPS   C2B12544   9.545  13.769   7.395 -0.0539  0.0942  0.2754
  809POPS   C3B12545   9.502  13.870   7.762 -0.2153 -0.2481  0.1662
  809POPS   C4B12546   9.409  13.749   8.256 -0.2083 -0.0998 -0.2357
  810POPS   CNO12547   0.534   2.589   5.586 -0.0369  0.2987  0.0956
  810POPS   PO412548   0.136   2.783   5.463  0.0031  0.2731  0.2458
  810POPS   GL112549   0.050   2.602   5.833  0.1623  0.0352  0.2670
  810POPS   GL212550   0.307   2.444   6.024  0.1953  0.2483  0.1648
  810POPS   C1A12551  -0.190   2.913   6.211  0.1112 -0.1015  0.0568
  810POPS   D2A12552  -0.544   2.844   6.416 -0.0165 -0.2668 -0.3251
  810POPS   C3A12553  -0.713   2.772   6.804  0.1480  0.2382  0.3497
  810POPS   C4A12554  -0.726   2.976   7.166  0.2028  0.2324 -0.3952
  810POPS   C1B12555   0.229   2.593   6.338 -0.2458 -0.2722 -0.1049
  810POPS   C2B12556  -0.101   2.717   6.706  0.0954  0.0240  0.2299
  810POPS   C3B12557  -0.283   2.555   7.086  0.2060 -0.2195 -0.0751
  810POPS   C4B12558  -0.266   2.281   7.458  0.2440 -0.4735 -0.2096
  811POPS   CNO12559   5.247  10.102   5.786  0.0828 -0.0153 -0.0645
  811POPS   PO412560   4.865   9.812   5.856 -0.3116  0.0350  0.0001
  811POPS   GL112561   4.825   9.988   6.219 -0.0118 -0.0797 -0.2226
  811POPS   GL212562   4.576   9.728   6.418  0.2547 -0.2233 -0.1159
  811POPS   C1A12563   4.980  10.110   6.533 -0.0927  0.0896 -0.2086
  811POPS   D2A12564   5.278  10.194   6.808 -0.4088 -0.0813  0.1805
  811POPS   C3A12565   5.247  10.297   7.267 -0.1245 -0.4047 -0.0222
  811POPS   C4A12566   5.394  10.288   7.632  0.0989  0.1031  0.1718
  811POPS   C1B12567   4.547   9.985   6.794 -0.0482  0.2544  0.3046
  811POPS   C2B12568   4.725  10.294   6.976  0.2307 -0.2205 -0.0244
  811POPS   C3B12569   4.740  10.430   7.321 -0.2742  0.2135 -0.2301
  811POPS   C4B12570   4.884  10.238   7.739 -0.2161 -0.0814 -0.0445
  812POPS   CNO12571   6.821  18.054   5.925 -0.0815  0.0194  0.2085
  812POPS   PO412572   6.713  17.627   5.996 -0.0522  0.0264  0.2096
  812POPS   GL112573   6.667  17.814   6.465  0.1985  0.0677 -0.1363
  812POPS   GL212574   6.351  17.881   6.552  0.3953 -0.4299  0.1529
  812POPS   C1A12575   6.882  17.683   6.833  0.1726  0.2876  0.0244
  812POPS   D2A12576   6.906  17.672   7.305  0.2475  0.0634  0.2029
  812POPS   C3A12577   7.222  17.576   7.619  0.0332  0.0875  0.0493
  812POPS   C4A12578   7.512  17.518   7.841  0.1304 -0.0742 -0.2490
  812POPS   C1B12579   6.444  17.776   6.982 -0.0185 -0.2322  0.0759
  812POPS   C2B12580   6.411  17.694   7.448 -0.1134 -0.2327 -0.0630
  812POPS   C3B12581   6.487  17.361   7.521 -0.0206 -0.1553  0.0783
  812POPS   C4B12582   6.562  16.956   7.722 -0.0080 -0.1230 -0.3517
  813POPS   CNO12583  13.271  17.153   5.626 -0.0781 -0.2468 -0.0450
  813POPS   PO412584  13.170  16.683   5.510 -0.1386  0.0622 -0.0272
  813POPS   GL112585  13.362  16.599   5.947  0.1133 -0.1369  0.0114
  813POPS   GL212586  13.607  16.810   6.030 -0.0437  0.1876 -0.0795
  813POPS   C1A12587  13.199  16.610   6.344 -0.2677  0.2762  0.0514
  813POPS   D2A12588  13.093  16.824   6.709 -0.0745 -0.0669 -0.3869
  813POPS   C3A12589  13.069  17.181   6.536 -0.0794  0.0256  0.1057
  813POPS   C4A12590  12.930  17.629   6.422 -0.0921 -0.1156  0.0884
  813POPS   C1B12591  13.592  16.960   6.525 -0.0221  0.0626  0.0676
  813POPS   C2B12592  13.442  17.200   6.864  0.1627 -0.2339  0.4409
  813POPS   C3B12593  13.504  17.588   7.089 -0.3854 -0.1050 -0.2928
  813POPS   C4B12594  13.560  17.894   7.199  0.2240  0.0418  0.0496
  814YOPS   CNO12595   7.332  16.447   5.781  0.1359 -0.2938 -0.1267
  814YOPS   PO412596   7.333  16.016   5.867 -0.3614  0.0151 -0.1413
  814YOPS   GL112597   7.632  15.881   6.181 -0.1977 -0.1166 -0.2812
  814YOPS   GL212598   7.984  15.815   6.121 -0.1714 -0.0715 -0.2430
  814YOPS   C1A12599   7.717  15.691   6.605  0.2838  0.3167  0.4005
  814YOPS   D2A12600   7.882  15.801   6.996  0.0589 -0.0513 -0.1307
  814YOPS   C3A12601   7.991  16.042   7.328 -0.0274  0.0845 -0.0354
  814YOPS   C4A12602   8.274  15.820   7.636 -0.0873  0.0859 -0.2654
  814YOPS   C1B12603   8.092  15.461   6.288  0.1013  0.0495 -0.0617
  814YOPS   C2B12604   8.178  15.450   6.768  0.2116  0.0551  0.0674
  814YOPS   D3B12605   8.220  15.467   7.189 -0.2340 -0.5793  0.0678
  814YOPS   C4B12606   7.937  15.521   7.501  0.1271 -0.0175  0.2335
  815YOPS   CNO12607  17.265   9.535   5.652 -0.2401  0.1208  0.1449
  815YOPS   PO412608  17.585   9.405   5.481 -0.1909 -0.0616  0.0077
  815YOPS   GL112609  17.457   9.060   5.849  0.0359 -0.1556 -0.1923
  815YOPS   GL212610  17.609   8.835   5.998 -0.0454 -0.1860 -0.2786
  815YOPS   C1A12611  17.350   9.067   6.363  0.0134  0.0481 -0.0538
  815YOPS   D2A12612  17.480   8.923   6.746  0.2705  0.3238  0.1795
  815YOPS   C3A12613  17.448   8.668   7.103  0.0813 -0.2335  0.1637
  815YOPS   C4A12614  17.534   8.605   7.464  0.1717 -0.3222  0.2301
  815YOPS   C1B12615  17.853   8.776   6.341  0.0229 -0.1891  0.0282
  815YOPS   C2B12616  17.917   8.794   6.669 -0.0017  0.2662  0.0477
  815YOPS   D3B12617  17.971   8.955   7.033 -0.2517 -0.0959 -0.0707
  815YOPS   C4B12618  17.657   9.157   7.314 -0.1572  0.0839 -0.1742
  816YOPS   CNO12619  15.202   9.726   5.279 -0.2310 -0.1060 -0.2599
  816YOPS   PO412620  15.344  10.043   5.394  0.0516 -0.1986  0.1600
  816YOPS   GL112621  15.297   9.879   5.747 -0.0192  0.2183  0.1526
  816YOPS   GL212622  15.128  10.080   5.992  0.3630 -0.5418 -0.3956
  816YOPS   C1A12623  15.515   9.728   6.148 -0.0420 -0.1043  0.1498
  816YOPS   D2A12624  15.353   9.614   6.585  0.2803 -0.0010  0.1926
  816YOPS   C3A12625  15.458   9.562   6.941 -0.1717 -0.0476 -0.2576
  816YOPS   C4A12626  15.180   9.416   7.268  0.1956  0.0461  0.0882
  816YOPS   C1B12627  15.313  10.133   6.456 -0.1670  0.1413  0.3260
  816YOPS   C2B12628  15.721  10.316   6.553  0.2851 -0.2048  0.3618
  816YOPS   D3B12629  15.966  10.283   6.958  0.0524 -0.1050 -0.0749
  816YOPS   C4B12630  16.293  10.417   6.780  0.2702 -0.0680 -0.1684
  817YOPS   CNO12631  14.561  12.111   5.788  0.0333 -0.2133  0.1471
  817YOPS   PO412632  14.561  11.977   6.188  0.1804 -0.3047  0.1638
  817YOPS   GL112633  14.594  12.243   6.575 -0.0811  0.0138  0.3042
  817YOPS   GL212634  14.383  12.318   6.709 -0.0081  0.0638  0.3708
  817YOPS   C1A12635  14.737  12.490   7.000 -0.2384  0.1427 -0.3207
  817YOPS   D2A12636  14.728  12.575   7.522  0.0772 -0.1556  0.2729
  817YOPS   C3A12637  14.698  12.364   7.887 -0.3047 -0.1492  0.1526
  817YOPS   C4A12638  14.363  12.304   8.105  0.2830  0.1543  0.0392
  817YOPS   C1B12639  14.232  12.382   7.108  0.3112 -0.5347 -0.1163
  817YOPS   C2B12640  14.209  12.330   7.595 -0.2095 -0.1556 -0.4183
  817YOPS   D3B12641  13.900  12.186   7.899 -0.0393 -0.0862  0.0282
  817YOPS   C4B12642  13.509  12.523   7.894 -0.2259 -0.1069  0.0705
  818YOPS   CNO12643   6.313  12.792   5.954  0.2652  0.1355  0.3677
  818YOPS   PO412644   6.160  12.886   6.297  0.3923 -0.1507 -0.3064
  818YOPS   GL112645   6.016  12.862   6.667  0.0411  0.2597 -0.1852
  818YOPS   GL212646   5.935  13.166   6.948  0.1545  0.1511  0.0327
  818YOPS   C1A12647   6.115  12.663   7.175 -0.0696 -0.0078 -0.2854
  818YOPS   D2A12648   6.310  12.583   7.628  0.2175 -0.1975  0.1179
  818YOPS   C3A12649   6.279  12.238   7.930 -0.0952  0.1448 -0.0337
  818YOPS   C4A12650   6.008  12.381   8.258  0.1039  0.1856  0.2169
  818YOPS   C1B12651   5.996  13.134   7.237  0.0935 -0.3261 -0.1288
  818YOPS   C2B12652   5.898  13.033   7.670 -0.2132  0.0219 -0.1837
  818YOPS   D3B12653   5.807  12.739   7.841 -0.2970  0.3755  0.0649
  818YOPS   C4B12654   5.379  12.608   7.896  0.0251  0.0257  0.0581
  819YOPS   CNO12655   8.498  10.723   6.049 -0.1633 -0.0124  0.2795
  819YOPS   PO412656   8.959  10.857   6.071 -0.0565  0.0716  0.6817
  819YOPS   GL112657   8.880  10.890   6.546  0.2056 -0.2072  0.0197
  819YOPS   GL212658   8.731  11.171   6.597  0.1271  0.1252  0.1871
  819YOPS   C1A12659   8.676  10.699   6.963 -0.2100 -0.1043 -0.1407
  819YOPS   D2A12660   8.535  10.530   7.449 -0.2052 -0.2203  0.0356
  819YOPS   C3A12661   8.345  10.302   7.801 -0.2607 -0.2318  0.1125
  819YOPS   C4A12662   7.960  10.551   8.073 -0.2720 -0.0852  0.0609
  819YOPS   C1B12663   8.790  11.145   7.128  0.0897 -0.1214  0.2030
  819YOPS   C2B12664   8.782  11.011   7.470 -0.1415  0.1634  0.1337
  819YOPS   D3B12665   8.538  10.888   7.782  0.1259 -0.1639 -0.1612
  819YOPS   C4B12666   8.095  10.761   7.677 -0.0229 -0.0891  0.0808
  820YOPS   CNO12667   0.254  10.510   5.278  0.1667  0.0189 -0.2202
  820YOPS   PO412668   0.191  10.369   5.681 -0.0053 -0.2551  0.0739
  820YOPS   GL112669   0.010  10.277   6.129 -0.1421 -0.0405 -0.2083
  820YOPS   GL212670  -0.218  10.461   6.291  0.0415  0.0365 -0.2573
  820YOPS   C1A12671  -0.000  10.183   6.663 -0.4648 -0.0860  0.1814
  820YOPS   D2A12672   0.211   9.913   6.899 -0.0645  0.0801  0.1403
  820YOPS   C3A12673   0.330   9.677   7.265  0.0886  0.1769  0.3423
  820YOPS   C4A12674   0.347   9.826   7.696  0.2817 -0.2260  0.0460
  820YOPS   C1B12675  -0.483  10.168   6.537  0.2200 -0.0927 -0.1339
  820YOPS   C2B12676  -0.591  10.177   6.920 -0.0577 -0.0033  0.1049
  820YOPS   D3B12677  -0.878  10.228   7.240 -0.2077  0.3424  0.4331
  820YOPS   C4B12678  -1.327  10.200   7.321  0.0494 -0.0477 -0.0239
  821YOPS   CNO12679   5.308   8.476   5.499  0.2586  0.2034 -0.3312
  821YOPS   PO412680   5.276   8.196   5.800  0.2997  0.0255 -0.1423
  821YOPS   GL112681   5.295   8.299   6.200  0.1598 -0.1674 -0.2359
  821YOPS   GL212682   5.452   8.529   6.318  0.2189  0.0421  0.2774
  821YOPS   C1A12683   5.205   8.299   6.706  0.0700 -0.1651 -0.1433
  821YOPS   D2A12684   5.334   8.413   7.060 -0.0376 -0.0184  0.0685
  821YOPS   C3A12685   5.304   8.193   7.497 -0.0333 -0.1291  0.0914
  821YOPS   C4A12686   5.436   7.794   7.487  0.2531  0.0718 -0.0591
  821YOPS   C1B12687   5.382   8.768   6.661  0.0982  0.1561  0.1984
  821YOPS   C2B12688   5.693   8.741   6.944  0.1305 -0.0506  0.1521
  821YOPS   D3B12689   5.707   8.692   7.315 -0.1201  0.0351 -0.0635
  821YOPS   C4B12690   6.012   8.764   7.603  0.1132 -0.2521  0.1226
  822YOPS   CNO12691   6.897  12.501   6.475 -0.1691 -0.2101 -0.3186
  822YOPS   PO412692   6.867  12.103   6.402 -0.0629 -0.0337 -0.2620
  822YOPS   GL112693   6.982  12.129   6.945  0.0092 -0.0790  0.0489
  822YOPS   GL212694   6.929  12.388   7.019 -0.4010 -0.0857  0.1066
  822YOPS   C1A12695   7.233  11.940   7.208  0.1733  0.0394  0.2551
  822YOPS   D2A12696   7.262  11.807   7.669  0.0010 -0.1285 -0.0847
  822YOPS   C3A12697   6.846  11.740   7.923  0.0831  0.1595 -0.0089
  822YOPS   C4A12698   6.578  11.782   8.246 -0.0457 -0.2699 -0.3639
  822YOPS   C1B12699   6.556  12.424   7.277 -0.0896  0.2813 -0.0869
  822YOPS   C2B12700   6.117  12.157   7.410  0.0192  0.3942 -0.2501
  822YOPS   D3B12701   5.806  12.094   7.644  0.1613 -0.0226 -0.0421
  822YOPS   C4B12702   5.609  12.151   8.031 -0.2098 -0.0546  0.0614
  823YOPS   CNO12703   4.385   9.013   5.574  0.3641  0.0496  0.0921
  823YOPS   PO412704   4.288   8.612   5.798 -0.2262  0.2324  0.1156
  823YOPS   GL112705   4.223   8.532   6.180  0.0414 -0.1394  0.1725
  823YOPS   GL212706   4.415   8.745   6.437 -0.3152  0.1403  0.0647
  823YOPS   C1A12707   4.228   8.314   6.599 -0.1550  0.0240 -0.2252
  823YOPS   D2A12708   4.189   7.948   6.864 -0.1569  0.1653 -0.0663
  823YOPS   C3A12709   4.249   7.653   7.220 -0.2571 -0.2077 -0.0050
  823YOPS   C4A12710   3.882   7.564   7.438 -0.0084 -0.0950  0.1359
  823YOPS   C1B12711   4.428   8.708   6.831 -0.1317 -0.1815 -0.0113
  823YOPS   C2B12712   4.499   8.794   7.248 -0.2283  0.0250  0.2567
  823YOPS   D3B12713   4.101   8.723   7.520  0.3354 -0.0866 -0.1448
  823YOPS   C4B12714   4.101   8.704   8.059  0.0178 -0.1461 -0.6045
  824YOPS   CNO12715  15.531  14.475   5.896  0.0934  0.0720  0.1552
  824YOPS   PO412716  15.943  14.521   5.822 -0.0515 -0.0759 -0.2722
  824YOPS   GL112717  15.987  14.472   6.237  0.1282 -0.1598  0.0523
  824YOPS   GL212718  15.867  14.734   6.351 -0.0135  0.2976  0.1632
  824YOPS   C1A12719  15.916  14.271   6.640 -0.0321 -0.1518 -0.0326
  824YOPS   D2A12720  15.767  14.151   6.949  0.1285 -0.2110 -0.3063
  824YOPS   C3A12721  15.904  14.287   7.340 -0.2539 -0.3008  0.1139
  824YOPS   C4A12722  15.835  14.219   7.832 -0.0642 -0.2774  0.0583
  824YOPS   C1B12723  15.916  14.722   6.792  0.1209  0.2916 -0.0411
  824YOPS   C2B12724  15.987  14.750   7.236 -0.1120 -0.0154 -0.0123
  824YOPS   D3B12725  15.923  14.654   7.660  0.1353  0.1385 -0.2805
  824YOPS   C4B12726  16.029  14.710   8.074 -0.0535 -0.1829 -0.2088
  825YOPS   CNO12727  17.380  17.823   5.644  0.2572  0.1825  0.0635
  825YOPS   PO412728  17.603  18.145   5.641 -0.0145  0.2543  0.0111
  825YOPS   GL112729  17.723  18.267   6.066 -0.4018 -0.3304  0.3660
  825YOPS   GL212730  17.724  18.669   5.996 -0.1388 -0.1235  0.0932
  825YOPS   C1A12731  17.770  18.345   6.509 -0.2119 -0.2263 -0.1342
  825YOPS   D2A12732  17.789  18.391   7.087 -0.2668 -0.0581  0.2154
  825YOPS   C3A12733  17.958  18.329   7.408 -0.0184  0.2198  0.4062
  825YOPS   C4A12734  17.978  18.641   7.708  0.1463  0.1720 -0.0044
  825YOPS   C1B12735  17.985  18.782   6.386  0.3367 -0.0476 -0.4288
  825YOPS   C2B12736  18.071  18.863   6.719  0.0117 -0.0361 -0.2158
  825YOPS   D3B12737  18.131  18.924   7.138  0.0420 -0.1698 -0.0972
  825YOPS   C4B12738  17.990  19.129   7.464 -0.0445 -0.2301  0.2225
  826YOPS   CNO12739   7.068   1.918   5.604  0.0740  0.2859  0.0843
  826YOPS   PO412740   6.991   1.739   5.962  0.3157 -0.0123 -0.0080
  826YOPS   GL112741   7.098   1.715   6.343  0.1930  0.0500 -0.2837
  826YOPS   GL212742   7.072   2.034   6.484 -0.1775 -0.0856  0.2187
  826YOPS   C1A12743   7.168   1.616   6.790  0.0057 -0.0690  0.0041
  826YOPS   D2A12744   7.275   1.688   7.277 -0.0323 -0.1938  0.3076
  826YOPS   C3A12745   7.629   1.625   7.511  0.4226  0.0248 -0.1051
  826YOPS   C4A12746   7.550   1.510   7.954 -0.3203 -0.4521 -0.3292
  826YOPS   C1B12747   7.109   2.097   6.885  0.2966  0.0525 -0.1056
  826YOPS   C2B12748   7.097   2.139   7.361 -0.2232 -0.0143  0.2257
  826YOPS   D3B12749   7.279   1.925   7.783 -0.0761  0.0844 -0.1682
  826YOPS   C4B12750   7.050   1.751   8.124 -0.1473  0.3234 -0.1221
  827YOPS   CNO12751   4.169   3.497   5.552  0.0726  0.0928 -0.3639
  827YOPS   PO412752   4.617   3.534   5.343  0.0640 -0.2525 -0.0773
  827YOPS   GL112753   4.611   3.487   5.810  0.2551  0.2487  0.2076
  827YOPS   GL212754   4.736   3.701   6.068 -0.0084 -0.2446 -0.0238
  827YOPS   C1A12755   4.365   3.275   6.192 -0.1565  0.1648  0.1513
  827YOPS   D2A12756   4.412   3.143   6.584 -0.3372 -0.2146 -0.1409
  827YOPS   C3A12757   4.522   3.049   7.024 -0.0047  0.0215  0.2528
  827YOPS   C4A12758   4.281   3.279   7.371  0.2549 -0.0617 -0.1511
  827YOPS   C1B12759   4.544   3.754   6.410 -0.2012  0.1430  0.3929
  827YOPS   C2B12760   4.440   3.639   6.851  0.0920 -0.0331 -0.1858
  827YOPS   D3B12761   4.570   3.605   7.234 -0.1870 -0.0621 -0.2701
  827YOPS   C4B12762   5.050   3.692   7.377 -0.0274 -0.1098  0.2852
  828YOPS   CNO12763  15.655  16.562   5.665  0.3382  0.1558  0.0904
  828YOPS   PO412764  15.373  16.865   5.777 -0.1513  0.0427  0.3184
  828YOPS   GL112765  15.017  16.968   6.103 -0.2274  0.0595 -0.1411
  828YOPS   GL212766  14.731  16.710   6.025 -0.3031 -0.0864 -0.0038
  828YOPS   C1A12767  14.968  16.767   6.507  0.2468 -0.2308  0.2495
  828YOPS   D2A12768  14.777  16.526   6.790  0.0650 -0.0732  0.1271
  828YOPS   C3A12769  14.453  16.613   7.095 -0.0973 -0.0433  0.3850
  828YOPS   C4A12770  14.656  16.483   7.495  0.1031 -0.1786 -0.1327
  828YOPS   C1B12771  14.465  16.562   6.331  0.2036  0.2059 -0.0470
  828YOPS   C2B12772  14.367  16.295   6.605 -0.2650 -0.0484  0.1184
  828YOPS   D3B12773  14.178  16.250   6.939  0.0189 -0.0141  0.1095
  828YOPS   C4B12774  14.168  16.182   7.397  0.0407 -0.0064  0.0234
  829YOPS   CNO12775   3.315  12.746   5.745 -0.1863  0.0630  0.0572
  829YOPS   PO412776   3.230  12.548   6.150  0.1528 -0.1830  0.0915
  829YOPS   GL112777   3.104  12.517   6.427  0.1742 -0.0231 -0.0343
  829YOPS   GL212778   3.036  12.759   6.564  0.0204  0.1552  0.2774
  829YOPS   C1A12779   3.245  12.314   6.806  0.0206  0.0536 -0.1079
  829YOPS   D2A12780   3.452  12.295   7.222 -0.2049  0.1148  0.1391
  829YOPS   C3A12781   3.656  12.266   7.552 -0.5324  0.0279 -0.0668
  829YOPS   C4A12782   3.920  11.929   7.617  0.1927  0.0283  0.1933
  829YOPS   C1B12783   2.866  12.652   6.984  0.1323  0.0037  0.0085
  829YOPS   C2B12784   2.962  12.541   7.355  0.1154 -0.0218  0.0361
  829YOPS   D3B12785   2.875  12.567   7.770 -0.2133 -0.2529 -0.5643
  829YOPS   C4B12786   3.119  12.812   8.033 -0.0988 -0.1797  0.0552
  830YOPS   CNO12787  12.216   9.637   5.681 -0.0453  0.1578 -0.1498
  830YOPS   PO412788  12.140   9.853   5.993 -0.0025 -0.2975 -0.0111
  830YOPS   GL112789  12.055   9.668   6.358 -0.0192  0.1989 -0.3014
  830YOPS   GL212790  11.991   9.288   6.260 -0.0271  0.0482  0.0823
  830YOPS   C1A12791  12.160   9.557   6.755 -0.1592  0.1620  0.0925
  830YOPS   D2A12792  11.928   9.407   7.116 -0.0465 -0.1331 -0.0199
  830YOPS   C3A12793  11.792   8.992   7.193  0.1510  0.1776  0.1260
  830YOPS   C4A12794  11.615   9.016   7.553  0.0385 -0.2391 -0.0835
  830YOPS   C1B12795  12.054   9.061   6.692  0.2890 -0.0339 -0.1581
  830YOPS   C2B12796  11.920   8.638   6.887  0.0652  0.1591 -0.1765
  830YOPS   D3B12797  12.149   8.514   7.318  0.0750  0.1069  0.4897
  830YOPS   C4B12798  12.085   8.494   7.650  0.0800  0.2475  0.0071
  831YOPS   CNO12799   9.315   9.270   5.532  0.1184  0.1403  0.3230
  831YOPS   PO412800   9.310   9.495   5.915 -0.0343  0.4404  0.0485
  831YOPS   GL112801   9.478   9.648   6.279  0.1031 -0.1589 -0.3317
  831YOPS   GL212802   9.737   9.909   6.309 -0.2715 -0.1143 -0.1306
  831YOPS   C1A12803   9.511   9.537   6.697  0.0223  0.0366 -0.1989
  831YOPS   D2A12804   9.525   9.496   7.100  0.1264 -0.2912  0.1302
  831YOPS   C3A12805   9.715   9.495   7.511  0.2333 -0.0999 -0.1196
  831YOPS   C4A12806   9.626   9.244   7.835 -0.3530 -0.0936  0.0061
  831YOPS   C1B12807   9.943   9.876   6.711  0.1572  0.0129 -0.0219
  831YOPS   C2B12808   9.954   9.652   7.024 -0.1821 -0.2003 -0.1255
  831YOPS   D3B12809  10.260   9.533   7.378 -0.0028 -0.0080 -0.3638
  831YOPS   C4B12810  10.137   9.171   7.613  0.2495 -0.2773  0.0490
  832YOPS   CNO12811  11.996  14.286   6.144  0.3327 -0.0047 -0.1667
  832YOPS   PO412812  11.570  14.511   6.111 -0.1372  0.1100  0.1510
  832YOPS   GL112813  11.662  14.387   6.622 -0.0065  0.0325  0.2046
  832YOPS   GL212814  11.918  14.553   6.543  0.0095  0.1525  0.0977
  832YOPS   C1A12815  11.735  14.173   7.044 -0.2663 -0.0551 -0.0863
  832YOPS   D2A12816  11.652  14.391   7.586 -0.0034 -0.1378 -0.0844
  832YOPS   C3A12817  11.861  14.735   7.809 -0.3289 -0.0729  0.0129
  832YOPS   C4A12818  12.254  14.865   7.990  0.1025 -0.1446  0.2128
  832YOPS   C1B12819  12.128  14.665   6.880  0.0058 -0.0205  0.1647
  832YOPS   C2B12820  12.182  14.540   7.375  0.2037 -0.1655  0.0287
  832YOPS   D3B12821  12.180  14.417   7.755  0.0052  0.2383 -0.0878
  832YOPS   C4B12822  12.351  14.005   7.794  0.2869  0.0924  0.0740
  833YOPS   CNO12823  11.851   6.659   5.555 -0.0398  0.2763 -0.0350
  833YOPS   PO412824  12.096   6.188   5.626 -0.0767  0.5150  0.0655
  833YOPS   GL112825  12.089   6.000   6.067  0.2910  0.2920 -0.3189
  833YOPS   GL212826  12.298   5.754   6.234  0.0319  0.0877 -0.1062
  833YOPS   C1A12827  12.045   6.069   6.570 -0.3746  0.0721 -0.0152
  833YOPS   D2A12828  12.195   6.150   7.063 -0.3394  0.0739  0.1862
  833YOPS   C3A12829  12.116   6.101   7.422  0.1295 -0.2870  0.1036
  833YOPS   C4A12830  12.205   5.818   7.741 -0.1513 -0.1678 -0.1796
  833YOPS   C1B12831  12.501   5.906   6.575  0.2335  0.1554 -0.0862
  833YOPS   C2B12832  12.687   6.020   6.922 -0.3350  0.1857  0.0753
  833YOPS   D3B12833  12.709   6.322   7.172  0.1542 -0.0257 -0.3685
  833YOPS   C4B12834  12.526   6.572   7.520 -0.0527  0.4089  0.0236
  834YOPS   CNO12835  18.016   1.326   5.516 -0.0850  0.0742 -0.1300
  834YOPS   PO412836  17.760   1.463   5.774 -0.0502  0.0119 -0.0135
  834YOPS   GL112837  17.503   1.521   6.109 -0.1787 -0.1224  0.2117
  834YOPS   GL212838  17.685   1.219   6.336  0.2645  0.1438  0.0686
  834YOPS   C1A12839  17.408   1.682   6.521 -0.2900  0.5195 -0.1976
  834YOPS   D2A12840  16.989   1.627   6.634 -0.0008  0.0016  0.0040
  834YOPS   C3A12841  16.776   1.784   6.938 -0.0729 -0.1280  0.1149
  834YOPS   C4A12842  16.688   1.981   7.346  0.0353  0.1993 -0.1586
  834YOPS   C1B12843  17.655   1.342   6.785 -0.1771 -0.3260 -0.5457
  834YOPS   C2B12844  17.353   1.677   7.007  0.0604  0.1989 -0.1698
  834YOPS   D3B12845  17.212   2.041   7.332 -0.2967 -0.2551 -0.4460
  834YOPS   C4B12846  16.939   2.333   7.074  0.0196  0.0091 -0.3479
  835YOPS   CNO12847   0.742   5.845   4.822  0.0141 -0.4476  0.0824
  835YOPS   PO412848   1.032   5.755   5.195  0.0443  0.2095 -0.2404
  835YOPS   GL112849   1.099   5.668   5.647 -0.0363  0.0914  0.1204
  835YOPS   GL212850   1.291   5.464   5.672 -0.3026 -0.3768  0.1926
  835YOPS   C1A12851   1.025   5.709   6.033 -0.3366  0.1886 -0.0701
  835YOPS   D2A12852   0.820   5.552   6.407  0.0269  0.0500 -0.0146
  835YOPS   C3A12853   0.391   5.590   6.660  0.2546 -0.0643 -0.1907
  835YOPS   C4A12854   0.162   5.958   6.698 -0.0438  0.1951 -0.0446
  835YOPS   C1B12855   1.438   5.451   6.088 -0.0096  0.1802  0.0456
  835YOPS   C2B12856   1.720   5.340   6.411  0.0400 -0.0530  0.0470
  835YOPS   D3B12857   1.782   5.609   6.765  0.0571 -0.0057 -0.0639
  835YOPS   C4B12858   1.465   5.443   7.170  0.0158 -0.4193  0.3536
  836YOPS   CNO12859   8.326   5.303   5.656 -0.1255 -0.1304  0.2591
  836YOPS   PO412860   8.439   5.608   5.927 -0.0211 -0.1543 -0.1761
  836YOPS   GL112861   8.555   5.493   6.315  0.0172 -0.2464  0.1340
  836YOPS   GL212862   8.593   5.591   6.568 -0.0029  0.0238 -0.3182
  836YOPS   C1A12863   8.270   5.171   6.607 -0.2151 -0.2280 -0.0510
  836YOPS   D2A12864   8.375   4.983   7.039 -0.0664  0.4735  0.0351
  836YOPS   C3A12865   8.776   4.898   7.245  0.0199 -0.2871  0.0412
  836YOPS   C4A12866   9.034   4.524   7.483  0.0496  0.0496  0.1142
  836YOPS   C1B12867   8.339   5.551   6.994 -0.0294 -0.1707  0.1789
  836YOPS   C2B12868   7.985   5.720   7.223  0.0293  0.2851  0.0695
  836YOPS   D3B12869   7.800   5.617   7.569 -0.2251 -0.1496  0.0801
  836YOPS   C4B12870   7.775   5.768   7.942 -0.3426  0.1788  0.3115
  837YOPS   CNO12871  16.998   1.603   5.354 -0.0296 -0.0905  0.3323
  837YOPS   PO412872  16.651   1.314   5.477  0.2076  0.0463  0.3307
  837YOPS   GL112873  16.637   1.202   5.901  0.0446 -0.0661  0.1573
  837YOPS   GL212874  16.877   0.979   6.013 -0.0074  0.2290 -0.1314
  837YOPS   C1A12875  16.856   1.505   6.192  0.2939  0.1935  0.2302
  837YOPS   D2A12876  17.099   1.941   6.180 -0.0451 -0.1080 -0.6496
  837YOPS   C3A12877  17.298   2.221   5.958 -0.2172 -0.0069  0.1486
  837YOPS   C4A12878  17.528   2.621   6.101  0.1623 -0.0319  0.1966
  837YOPS   C1B12879  16.737   1.046   6.420 -0.2433 -0.0981  0.1221
  837YOPS   C2B12880  16.624   0.871   6.849 -0.0250  0.2691  0.2176
  837YOPS   D3B12881  16.150   0.747   7.008 -0.0673 -0.0363 -0.2858
  837YOPS   C4B12882  16.094   0.296   7.130 -0.2259  0.0179 -0.0257
  838YOPS   CNO12883   3.826   9.428   5.447 -0.3529 -0.1124  0.0706
  838YOPS   PO412884   4.101   9.515   5.743 -0.1767  0.1750 -0.1870
  838YOPS   GL112885   3.974   9.632   6.159  0.1384  0.2276 -0.2678
  838YOPS   GL212886   3.873   9.354   6.410 -0.1993  0.3117  0.0173
  838YOPS   C1A12887   4.082   9.698   6.639  0.0832 -0.1063 -0.2213
  838YOPS   D2A12888   3.903   9.503   7.013  0.2460 -0.1112 -0.1269
  838YOPS   C3A12889   3.729   9.457   7.529  0.0866 -0.3455 -0.1260
  838YOPS   C4A12890   3.815   9.310   7.994 -0.2360  0.1996  0.0278
  838YOPS   C1B12891   4.094   9.093   6.726  0.0163 -0.1812  0.1231
  838YOPS   C2B12892   4.153   9.067   7.115 -0.0162  0.0352 -0.2139
  838YOPS   D3B12893   4.269   9.289   7.501  0.1031 -0.2960  0.1155
  838YOPS   C4B12894   4.635   9.276   7.458  0.0190  0.2404  0.1163
  839YOPS   CNO12895   2.625  13.814   6.002 -0.0355  0.1668 -0.3174
  839YOPS   PO412896   2.229  13.702   5.842  0.1630 -0.1553 -0.5758
  839YOPS   GL112897   2.178  13.818   6.275 -0.0403 -0.1064  0.2049
  839YOPS   GL212898   2.354  14.061   6.359 -0.0439  0.0704  0.1067
  839YOPS   C1A12899   2.190  13.726   6.731 -0.2234 -0.0850 -0.1207
  839YOPS   D2A12900   2.250  13.460   7.101 -0.1469  0.0122  0.2305
  839YOPS   C3A12901   2.201  13.488   7.534 -0.0322  0.0177  0.1839
  839YOPS   C4A12902   2.003  13.069   7.610  0.3806  0.3953  0.2641
  839YOPS   C1B12903   2.424  14.151   6.745 -0.1039  0.0672  0.0167
  839YOPS   C2B12904   2.376  14.055   7.132  0.1952  0.0709  0.2835
  839YOPS   D3B12905   2.144  14.157   7.441 -0.0180 -0.2190  0.0709
  839YOPS   C4B12906   2.062  14.617   7.538  0.4520  0.2810 -0.2678
  840YOPS   CNO12907   6.322   6.019   5.596  0.1324 -0.3572 -0.0541
  840YOPS   PO412908   6.761   6.153   5.711  0.2816  0.0549  0.0384
  840YOPS   GL112909   6.814   6.161   6.166  0.0186 -0.1657 -0.1823
  840YOPS   GL212910   6.742   6.441   6.414  0.0703 -0.0112  0.2616
  840YOPS   C1A12911   6.734   5.809   6.544  0.3056  0.1793  0.2750
  840YOPS   D2A12912   6.821   5.994   6.952  0.2287 -0.1273 -0.4881
  840YOPS   C3A12913   7.055   6.167   7.275  0.0074  0.0926 -0.1870
  840YOPS   C4A12914   7.052   6.029   7.753  0.2496 -0.1295  0.1488
  840YOPS   C1B12915   6.404   6.209   6.714  0.0617  0.2842 -0.1849
  840YOPS   C2B12916   6.328   5.916   7.031  0.0575 -0.3094 -0.0007
  840YOPS   D3B12917   6.104   5.701   7.421  0.0492 -0.3531  0.0822
  840YOPS   C4B12918   5.822   5.428   7.208  0.0098  0.2603  0.1252
  841YOPS   CNO12919   8.139   1.293   5.587 -0.0650 -0.2005  0.0687
  841YOPS   PO412920   7.982   1.610   5.821  0.2263  0.0745  0.0268
  841YOPS   GL112921   8.108   1.336   6.102  0.1669  0.0260  0.0562
  841YOPS   GL212922   8.283   1.120   6.161  0.2181 -0.0601 -0.0532
  841YOPS   C1A12923   7.994   1.027   6.561  0.2583  0.2428 -0.0703
  841YOPS   D2A12924   7.666   0.879   6.778  0.1250 -0.3606 -0.3231
  841YOPS   C3A12925   7.508   1.272   7.077  0.4431 -0.0084  0.1650
  841YOPS   C4A12926   7.495   1.164   7.500  0.3637 -0.0019 -0.1751
  841YOPS   C1B12927   8.477   1.000   6.487  0.1174 -0.2520 -0.1103
  841YOPS   C2B12928   8.516   1.058   6.899 -0.0476 -0.1969 -0.1638
  841YOPS   D3B12929   8.526   1.309   7.147  0.4023 -0.3466 -0.2010
  841YOPS   C4B12930   8.268   1.637   7.181  0.3135 -0.1964  0.1400
  842YOPS   CNO12931  16.407   7.015   5.375  0.0726 -0.2367 -0.1370
  842YOPS   PO412932  16.854   7.001   5.351  0.3023  0.2143 -0.4062
  842YOPS   GL112933  17.051   6.914   5.779  0.0561  0.1924  0.2529
  842YOPS   GL212934  17.178   7.200   6.010  0.2087 -0.2725 -0.1682
  842YOPS   C1A12935  17.400   6.735   6.153 -0.1777  0.1892 -0.3280
  842YOPS   D2A12936  17.325   6.668   6.551 -0.2289 -0.0223 -0.1718
  842YOPS   C3A12937  17.134   6.417   7.005  0.2752  0.0946 -0.0084
  842YOPS   C4A12938  17.227   6.525   7.506 -0.2869 -0.0657 -0.4281
  842YOPS   C1B12939  17.213   7.433   6.338 -0.1929  0.3566 -0.2601
  842YOPS   C2B12940  16.914   7.715   6.587 -0.0178  0.1113  0.1308
  842YOPS   D3B12941  16.581   7.867   6.579 -0.3204  0.0519 -0.1504
  842YOPS   C4B12942  16.382   8.143   6.302  0.1031 -0.1086  0.0013
  843YOPS   CNO12943  12.040   1.283   6.056  0.0788  0.1654  0.2847
  843YOPS   PO412944  11.651   1.361   5.909  0.0207  0.1595  0.2104
  843YOPS   GL112945  11.815   1.628   6.285 -0.5817  0.0465  0.2468
  843YOPS   GL212946  11.797   1.945   6.245  0.1679  0.0874  0.1555
  843YOPS   C1A12947  11.550   1.460   6.620  0.2628  0.0072 -0.1485
  843YOPS   D2A12948  11.449   1.186   6.939  0.0446 -0.3939 -0.0315
  843YOPS   C3A12949  11.482   1.232   7.386 -0.0483  0.1309 -0.0198
  843YOPS   C4A12950  11.254   1.529   7.636  0.1178 -0.0306  0.2479
  843YOPS   C1B12951  11.808   2.077   6.701 -0.0369 -0.0311 -0.0244
  843YOPS   C2B12952  11.892   1.985   7.028 -0.0674 -0.0440 -0.0724
  843YOPS   D3B12953  12.069   2.069   7.380 -0.3026  0.1351 -0.0219
  843YOPS   C4B12954  12.478   2.376   7.232 -0.1163  0.0095 -0.2567
  844POPE   NH312955   8.573  11.186   6.110 -0.0611 -0.3825  0.1986
  844POPE   PO412956   8.180  11.246   6.198  0.1739  0.4388 -0.0551
  844POPE   GL112957   8.220  11.186   6.513  0.1802 -0.0126  0.2037
  844POPE   GL212958   8.390  10.767   6.529 -0.0136  0.1793  0.1530
  844POPE   C1A12959   8.282  11.173   6.937  0.0058 -0.0641  0.0086
  844POPE   D2A12960   8.304  11.032   7.346  0.1448 -0.2848 -0.2070
  844POPE   C3A12961   8.443  11.367   7.565 -0.2632 -0.2638 -0.1073
  844POPE   C4A12962   8.507  11.537   7.986  0.0164  0.1751 -0.0090
  844POPE   C1B12963   8.226  10.516   6.925 -0.3388 -0.0846  0.1260
  844POPE   C2B12964   8.197  10.187   7.279 -0.2304 -0.0887  0.3073
  844POPE   C3B12965   7.923  10.241   7.543 -0.0249  0.0775  0.0245
  844POPE   C4B12966   7.609   9.998   7.738  0.0470  0.1463 -0.3509
  845POPE   NH312967   8.001   5.410   6.062 -0.5381 -0.2503 -0.3032
  845POPE   PO412968   7.698   5.752   6.028 -0.1810 -0.0111  0.2069
  845POPE   GL112969   7.675   5.893   6.482 -0.1084  0.1165  0.1139
  845POPE   GL212970   7.896   5.703   6.598  0.2371  0.0779  0.2971
  845POPE   C1A12971   7.534   6.267   6.602 -0.0069 -0.0582 -0.3030
  845POPE   D2A12972   7.223   6.636   6.747 -0.0625 -0.1281 -0.1421
  845POPE   C3A12973   6.830   6.619   7.017  0.1385  0.2179 -0.0472
  845POPE   C4A12974   6.526   6.719   7.220  0.2377 -0.1494 -0.3549
  845POPE   C1B12975   7.824   5.289   6.777 -0.3889  0.1791 -0.1106
  845POPE   C2B12976   7.965   5.230   7.159  0.2313  0.3893  0.0499
  845POPE   C3B12977   7.826   5.112   7.521 -0.2560  0.2145  0.3318
  845POPE   C4B12978   7.643   5.292   7.951 -0.0158 -0.1628  0.2018
  846POPE   NH312979   0.841  17.661   5.884 -0.1080 -0.0357  0.2398
  846POPE   PO412980   1.214  17.427   5.735  0.0087  0.0664 -0.6578
  846POPE   GL112981   1.187  17.266   6.140 -0.3120 -0.2486 -0.0898
  846POPE   GL212982   0.912  17.267   6.177  0.1722  0.1177  0.3837
  846POPE   C1A12983   1.245  17.435   6.632 -0.0579  0.1672 -0.3611
  846POPE   D2A12984   0.983  17.611   6.954 -0.0804 -0.3071  0.3319
  846POPE   C3A12985   0.919  17.596   7.379 -0.0875  0.1639  0.0614
  846POPE   C4A12986   1.174  17.536   7.721  0.2440 -0.4550  0.0767
  846POPE   C1B12987   0.701  17.307   6.566 -0.0007 -0.1608  0.0213
  846POPE   C2B12988   0.515  17.253   7.029 -0.2208 -0.0192  0.0409
  846POPE   C3B12989   0.474  17.418   7.488  0.2314  0.0638 -0.0659
  846POPE   C4B12990   0.712  17.368   7.803 -0.2266 -0.0836 -0.2508
  847POPE   NH312991  15.368  12.275   6.073 -0.0952  0.0653 -0.0030
  847POPE   PO412992  15.539  12.745   5.993  0.0591 -0.0604  0.0707
  847POPE   GL112993  15.716  13.005   6.383  0.1713 -0.1700  0.1461
  847POPE   GL212994  15.765  13.373   6.409  0.0937  0.0648  0.0538
  847POPE   C1A12995  15.776  12.804   6.758 -0.0413  0.3830 -0.2259
  847POPE   D2A12996  16.112  12.888   7.135 -0.0870  0.2489 -0.2064
  847POPE   C3A12997  16.106  12.665   7.530  0.0471  0.1559  0.0804
  847POPE   C4A12998  16.025  12.688   7.997 -0.0251  0.0040 -0.0281
  847POPE   C1B12999  15.879  13.327   6.854 -0.1750 -0.1533 -0.2396
  847POPE   C2B13000  15.955  13.353   7.250 -0.0426  0.2273 -0.2284
  847POPE   C3B13001  15.934  13.561   7.532  0.0465 -0.0661  0.0949
  847POPE   C4B13002  15.945  13.638   7.990  0.0483  0.1825  0.2135
  848POPE   NH313003   3.512  15.709   6.061  0.0934  0.2165  0.2661
  848POPE   PO413004   3.659  15.320   6.270  0.1502 -0.0115  0.2109
  848POPE   GL113005   3.362  15.176   6.528  0.0105 -0.0250  0.0206
  848POPE   GL213006   3.100  15.062   6.407  0.0261 -0.0335 -0.0138
  848POPE   C1A13007   3.316  15.285   6.976 -0.0249  0.0097 -0.3251
  848POPE   D2A13008   3.167  15.333   7.397 -0.1595 -0.1804 -0.1623
  848POPE   C3A13009   3.326  15.178   7.786  0.2011 -0.1352  0.5055
  848POPE   C4A13010   3.536  15.206   8.190  0.0092 -0.3621  0.4628
  848POPE   C1B13011   3.115  14.864   6.814  0.3169 -0.4276  0.0523
  848POPE   C2B13012   3.213  14.748   7.220 -0.2615  0.1109 -0.1720
  848POPE   C3B13013   3.028  14.842   7.633  0.2296  0.1569 -0.0396
  848POPE   C4B13014   2.710  15.168   7.848  0.0057  0.3969  0.0571
  849POPE   NH313015  13.065   9.984   5.974  0.0648  0.1374  0.0840
  849POPE   PO413016  13.379  10.109   6.207 -0.0103  0.1574 -0.3575
  849POPE   GL113017  13.516  10.299   6.565 -0.0250  0.1649 -0.0727
  849POPE   GL213018  13.835  10.468   6.548  0.0073 -0.3132  0.0556
  849POPE   C1A13019  13.585  10.342   6.951  0.3504 -0.2255 -0.0505
  849POPE   D2A13020  13.959  10.428   7.286  0.0391 -0.0359  0.0681
  849POPE   C3A13021  14.237  10.880   7.421 -0.1379  0.0487  0.0335
  849POPE   C4A13022  14.435  11.189   7.674 -0.0398  0.1105  0.2160
  849POPE   C1B13023  14.175  10.315   6.827 -0.2179  0.0162  0.0627
  849POPE   C2B13024  14.415  10.023   7.121  0.3447 -0.1236  0.1837
  849POPE   C3B13025  14.607   9.899   7.476  0.1101  0.1950 -0.1536
  849POPE   C4B13026  15.104   9.837   7.629 -0.3191  0.0226  0.5189
  850POPE   NH313027   3.161   8.404   5.733  0.0512  0.1289 -0.0413
  850POPE   PO413028   2.793   8.604   5.781  0.0443  0.0789 -0.1545
  850POPE   GL113029   2.776   8.620   6.244 -0.1150  0.0468  0.1125
  850POPE   GL213030   2.478   8.821   6.149  0.1139  0.0045  0.0808
  850POPE   C1A13031   2.914   8.833   6.685 -0.5550 -0.2091  0.1101
  850POPE   D2A13032   2.890   9.167   7.052 -0.0083  0.0130  0.0048
  850POPE   C3A13033   3.172   9.318   7.402  0.0720  0.0597  0.2333
  850POPE   C4A13034   3.344   9.687   7.264  0.0683 -0.0296 -0.1370
  850POPE   C1B13035   2.354   8.570   6.600 -0.2123  0.1709  0.0970
  850POPE   C2B13036   2.398   8.362   7.042 -0.0452 -0.0319 -0.0853
  850POPE   C3B13037   2.316   8.411   7.467  0.2118  0.0379 -0.0226
  850POPE   C4B13038   2.087   8.014   7.623 -0.1778  0.1739 -0.1806
  851POPE   NH313039   3.650   2.134   5.646 -0.2366  0.3765 -0.0725
  851POPE   PO413040   4.058   1.917   5.495 -0.0195 -0.0075 -0.1197
  851POPE   GL113041   4.297   1.941   5.909 -0.0191  0.3893  0.5476
  851POPE   GL213042   4.580   1.669   5.989  0.1367 -0.0030 -0.1044
  851POPE   C1A13043   4.384   2.227   6.166 -0.3445 -0.1721  0.1194
  851POPE   D2A13044   4.664   2.331   6.485  0.0601  0.1331  0.1584
  851POPE   C3A13045   4.759   2.202   6.835 -0.1987 -0.1485  0.0938
  851POPE   C4A13046   4.984   2.339   7.103 -0.4884  0.0414 -0.0622
  851POPE   C1B13047   4.831   1.877   6.312 -0.1294 -0.0901 -0.0161
  851POPE   C2B13048   5.095   1.807   6.660  0.1340 -0.0179 -0.2181
  851POPE   C3B13049   5.352   2.002   6.940  0.2450 -0.0621  0.1377
  851POPE   C4B13050   5.610   1.798   7.135 -0.0172  0.0297  0.0945
  852POPE   NH313051  12.650   9.109   5.630 -0.1241  0.0763 -0.0933
  852POPE   PO413052  12.386   9.018   6.001  0.0526  0.0687 -0.0027
  852POPE   GL113053  11.997   8.769   6.132 -0.0613 -0.1144  0.0850
  852POPE   GL213054  11.715   8.558   6.094 -0.0756 -0.1627  0.4102
  852POPE   C1A13055  12.085   8.462   6.495  0.1012  0.0896  0.0103
  852POPE   D2A13056  12.293   8.165   6.544  0.0377 -0.0969 -0.0482
  852POPE   C3A13057  12.289   7.987   6.945 -0.1515  0.1508  0.0761
  852POPE   C4A13058  12.290   8.047   7.354 -0.3241 -0.3040  0.0623
  852POPE   C1B13059  11.621   8.713   6.495 -0.0290  0.0924  0.0626
  852POPE   C2B13060  11.363   8.790   6.897 -0.1281  0.1370  0.0364
  852POPE   C3B13061  11.138   8.623   7.303 -0.0240  0.1148  0.2954
  852POPE   C4B13062  11.281   8.492   7.828 -0.0232 -0.3147  0.0691
  853POPE   NH313063  13.418  16.286   5.502 -0.2976 -0.0250  0.1841
  853POPE   PO413064  13.765  16.338   5.754  0.0472 -0.1045 -0.2880
  853POPE   GL113065  13.726  16.165   6.148  0.3151  0.0544  0.3725
  853POPE   GL213066  13.654  16.379   6.289 -0.0678  0.0674  0.1215
  853POPE   C1A13067  13.936  15.942   6.557  0.1808  0.1347  0.0979
  853POPE   D2A13068  13.972  15.748   6.859 -0.0627 -0.0225 -0.0646
  853POPE   C3A13069  13.673  15.701   7.202 -0.2304 -0.2308  0.0066
  853POPE   C4A13070  13.707  15.925   7.541  0.0920 -0.1049  0.0996
  853POPE   C1B13071  13.777  16.434   6.666 -0.1050  0.1435  0.2210
  853POPE   C2B13072  13.484  16.641   7.007  0.0633  0.0372 -0.2765
  853POPE   C3B13073  13.227  16.792   7.282 -0.2897 -0.0721  0.0007
  853POPE   C4B13074  13.159  17.153   7.480 -0.0578  0.1303 -0.0835
  854POPE   NH313075  14.733   9.712   5.180 -0.1751 -0.0866  0.0219
  854POPE   PO413076  14.794   9.716   5.633 -0.0895 -0.0777 -0.0245
  854POPE   GL113077  14.688   9.398   5.863 -0.1593 -0.0407 -0.0793
  854POPE   GL213078  14.388   9.239   5.853 -0.2793  0.0982 -0.3001
  854POPE   C1A13079  14.593   9.355   6.311 -0.0584  0.3255  0.4395
  854POPE   D2A13080  14.521   9.223   6.775 -0.1385 -0.1602 -0.3344
  854POPE   C3A13081  14.635   9.408   7.192 -0.0367  0.2772 -0.0143
  854POPE   C4A13082  14.312   9.493   7.560 -0.0808  0.0684  0.0809
  854POPE   C1B13083  14.256   8.915   6.137 -0.0428 -0.1635  0.2603
  854POPE   C2B13084  14.507   8.558   6.390  0.2248 -0.1324 -0.1347
  854POPE   C3B13085  14.754   8.314   6.708 -0.3509  0.2084 -0.0483
  854POPE   C4B13086  14.819   7.964   6.858 -0.1545  0.0053 -0.0281
  855POPE   NH313087   8.696   2.447   5.996  0.1793 -0.2202  0.0173
  855POPE   PO413088   8.951   2.821   5.942  0.3415 -0.0479  0.0617
  855POPE   GL113089   9.172   2.798   6.281  0.1871 -0.0219  0.0689
  855POPE   GL213090   9.258   3.203   6.377  0.1880 -0.0068 -0.1832
  855POPE   C1A13091   8.948   2.902   6.608  0.3692  0.1434  0.0150
  855POPE   D2A13092   9.059   2.840   6.992  0.1132  0.3701  0.2143
  855POPE   C3A13093   8.740   2.744   7.269 -0.2442  0.0574  0.4456
  855POPE   C4A13094   8.341   2.681   7.226 -0.1506  0.0907  0.0835
  855POPE   C1B13095   9.375   3.189   6.834  0.1986  0.0497 -0.1590
  855POPE   C2B13096   9.387   3.112   7.281  0.1049  0.0599  0.0617
  855POPE   C3B13097   9.570   3.008   7.671 -0.4357 -0.0815  0.0605
  855POPE   C4B13098   9.812   2.794   7.924  0.2360  0.1316 -0.2514
  856POPE   NH313099   9.935  12.491   6.245 -0.0046 -0.2108 -0.1537
  856POPE   PO413100   9.495  12.430   6.000 -0.1224 -0.1185 -0.2295
  856POPE   GL113101   9.490  12.436   6.459 -0.1179  0.1077  0.0691
  856POPE   GL213102   9.368  12.133   6.563  0.0660  0.0651 -0.0479
  856POPE   C1A13103   9.298  12.519   6.907  0.0142  0.1177 -0.1977
  856POPE   D2A13104   8.968  12.572   7.109  0.0498  0.0711  0.1109
  856POPE   C3A13105   9.082  12.876   7.431 -0.1762 -0.0112  0.1998
  856POPE   C4A13106   9.020  12.846   7.917 -0.2185 -0.1059 -0.0068
  856POPE   C1B13107   9.578  11.949   6.948 -0.1042 -0.0574 -0.1148
  856POPE   C2B13108   9.876  12.016   7.270  0.0609 -0.2196 -0.3312
  856POPE   C3B13109  10.224  11.910   7.477  0.0163 -0.1548  0.1694
  856POPE   C4B13110  10.580  12.119   7.730 -0.1063 -0.3582 -0.0127
  857POPE   NH313111   6.652  12.911   6.403  0.1172  0.1746  0.1804
  857POPE   PO413112   7.044  13.007   6.471 -0.0307  0.0309 -0.0707
  857POPE   GL113113   6.877  12.849   6.839  0.0401  0.0660  0.1941
  857POPE   GL213114   6.488  12.670   6.777 -0.0112  0.0826  0.2611
  857POPE   C1A13115   6.992  12.922   7.182  0.3968  0.5016  0.0478
  857POPE   D2A13116   6.805  12.850   7.583 -0.0658 -0.0741  0.1307
  857POPE   C3A13117   6.778  12.435   7.723 -0.0840 -0.0247 -0.0576
  857POPE   C4A13118   6.843  12.101   7.514 -0.1677  0.0863  0.1134
  857POPE   C1B13119   6.491  12.982   7.158  0.0952  0.0426  0.0939
  857POPE   C2B13120   6.394  13.112   7.520 -0.3510 -0.0378  0.0971
  857POPE   C3B13121   6.365  12.962   8.041  0.1357 -0.3554  0.1969
  857POPE   C4B13122   6.484  12.886   8.438 -0.1361 -0.1222 -0.1493
  858POPE   NH313123   6.736   8.118   5.986 -0.0311 -0.3062  0.1228
  858POPE   PO413124   7.046   7.806   5.999  0.2155  0.0586 -0.1509
  858POPE   GL113125   7.071   8.101   6.357 -0.1711 -0.0884 -0.1537
  858POPE   GL213126   6.830   7.899   6.464 -0.0452 -0.0494 -0.3549
  858POPE   C1A13127   6.889   8.171   6.837  0.0231 -0.2932  0.0838
  858POPE   D2A13128   6.834   8.381   7.119  0.0930 -0.1456  0.0216
  858POPE   C3A13129   6.832   8.319   7.552  0.0467 -0.0789  0.4413
  858POPE   C4A13130   7.214   8.266   7.837  0.2285 -0.1311 -0.0891
  858POPE   C1B13131   6.850   7.646   6.807 -0.2035 -0.2000  0.0346
  858POPE   C2B13132   6.954   7.442   7.139  0.1093 -0.1389 -0.3681
  858POPE   C3B13133   6.882   7.448   7.552 -0.1738 -0.3351  0.2624
  858POPE   C4B13134   6.638   7.274   7.821 -0.1309 -0.5699  0.2155
  859POPE   NH313135  10.317   4.701   5.651  0.2026 -0.0976  0.0404
  859POPE   PO413136  10.733   4.614   5.631  0.1363 -0.2352 -0.1116
  859POPE   GL113137  10.851   4.580   6.115  0.2975  0.3618 -0.0256
  859POPE   GL213138  11.081   4.797   6.073  0.0298  0.0766 -0.1091
  859POPE   C1A13139  11.188   4.569   6.501 -0.5381 -0.0666 -0.2453
  859POPE   D2A13140  11.135   4.427   6.949  0.1767 -0.0620  0.0549
  859POPE   C3A13141  11.351   4.267   7.253  0.1940 -0.0857  0.2135
  859POPE   C4A13142  11.619   4.001   7.337  0.0409  0.1535  0.1392
  859POPE   C1B13143  11.257   5.084   6.429 -0.0659  0.2137  0.1783
  859POPE   C2B13144  11.081   4.947   6.891  0.0695 -0.1403  0.0454
  859POPE   C3B13145  11.278   4.871   7.273 -0.2870  0.1152 -0.0025
  859POPE   C4B13146  11.402   4.542   7.676  0.1771  0.2022 -0.1613
  860POPE   NH313147   6.889   7.345   5.860  0.2712 -0.1143  0.1730
  860POPE   PO413148   6.561   7.586   5.769 -0.1389 -0.0842 -0.3382
  860POPE   GL113149   6.567   7.633   6.236  0.1734 -0.1264  0.1796
  860POPE   GL213150   6.307   7.829   6.328  0.0311 -0.3747 -0.2927
  860POPE   C1A13151   6.353   7.378   6.636  0.2761  0.0548  0.1143
  860POPE   D2A13152   6.398   7.178   7.063  0.5512  0.3308 -0.0523
  860POPE   C3A13153   6.419   7.533   7.386  0.2642 -0.3395 -0.0295
  860POPE   C4A13154   6.759   7.896   7.278 -0.0426  0.0057  0.0822
  860POPE   C1B13155   6.456   7.924   6.825 -0.0532 -0.4361 -0.0377
  860POPE   C2B13156   6.356   8.139   7.249 -0.2758 -0.1485 -0.0782
  860POPE   C3B13157   6.224   8.241   7.605 -0.3908  0.3823  0.1432
  860POPE   C4B13158   5.770   8.241   7.665 -0.0451 -0.0735  0.1425
  861POPE   NH313159   1.307   6.779   5.572 -0.1721 -0.0284 -0.0825
  861POPE   PO413160   1.017   7.173   5.533 -0.0539  0.1849 -0.0108
  861POPE   GL113161   0.832   7.135   5.768  0.3455 -0.0780  0.0366
  861POPE   GL213162   0.481   6.994   5.825  0.2211 -0.1472  0.2790
  861POPE   C1A13163   0.588   7.340   6.163  0.0213  0.0672 -0.0565
  861POPE   D2A13164   0.408   7.119   6.511 -0.0968 -0.2913  0.0264
  861POPE   C3A13165   0.201   7.189   6.818 -0.0239 -0.1485 -0.0310
  861POPE   C4A13166   0.056   7.138   7.303  0.3559  0.4769  0.3345
  861POPE   C1B13167   0.117   6.895   6.156 -0.1761  0.3508  0.2339
  861POPE   C2B13168  -0.197   6.956   6.473  0.0690  0.0597 -0.1214
  861POPE   C3B13169  -0.270   7.021   6.924  0.0218  0.0064 -0.2966
  861POPE   C4B13170  -0.213   6.614   7.071 -0.0775  0.0785 -0.0752
  862POPE   NH313171   6.042   5.216   5.676  0.0914 -0.1266 -0.1156
  862POPE   PO413172   6.265   5.436   5.822  0.0792  0.1584 -0.2655
  862POPE   GL113173   6.563   5.451   6.077  0.1718  0.1102  0.1345
  862POPE   GL213174   6.411   5.492   6.283 -0.4692 -0.2999  0.1856
  862POPE   C1A13175   6.610   5.081   6.448  0.0167 -0.3283  0.2378
  862POPE   D2A13176   6.785   4.739   6.572  0.4302 -0.3439  0.1563
  862POPE   C3A13177   7.194   4.516   6.471 -0.0343 -0.2733 -0.0725
  862POPE   C4A13178   7.578   4.449   6.462 -0.1660 -0.1768 -0.0246
  862POPE   C1B13179   6.527   5.421   6.819 -0.0784 -0.0152 -0.0517
  862POPE   C2B13180   6.325   5.339   7.252 -0.0663 -0.2135 -0.3100
  862POPE   C3B13181   6.354   5.255   7.671  0.2055  0.0580 -0.1715
  862POPE   C4B13182   6.594   5.358   8.142 -0.1227 -0.0722 -0.2157
  863POPE   NH313183   9.470   3.952   5.762  0.3480 -0.1892  0.0819
  863POPE   PO413184   9.773   4.198   5.799 -0.1489  0.1867 -0.0238
  863POPE   GL113185   9.770   4.249   6.198  0.0340  0.0622 -0.0380
  863POPE   GL213186   9.803   4.588   6.198 -0.0293  0.0202 -0.2328
  863POPE   C1A13187  10.026   4.056   6.542 -0.3027 -0.0251  0.2850
  863POPE   D2A13188  10.308   3.973   6.692 -0.0059 -0.0212 -0.0128
  863POPE   C3A13189  10.239   3.823   6.986 -0.0445 -0.0745  0.0451
  863POPE   C4A13190  10.217   3.900   7.463 -0.1120  0.1261 -0.0553
  863POPE   C1B13191   9.906   4.550   6.633 -0.3715 -0.0753  0.5621
  863POPE   C2B13192  10.002   4.346   6.960 -0.0076  0.2031  0.2036
  863POPE   C3B13193  10.171   4.360   7.347  0.1296 -0.1698 -0.1576
  863POPE   C4B13194  10.095   4.262   7.765 -0.1732  0.2030 -0.2194
  864POPE   NH313195  10.522  11.676   6.136  0.0098 -0.1284 -0.0991
  864POPE   PO413196  10.413  11.213   6.201 -0.2884 -0.1609  0.2354
  864POPE   GL113197  10.332  11.410   6.569  0.3021  0.0370 -0.3013
  864POPE   GL213198  10.580  11.622   6.729 -0.0097 -0.1423 -0.0156
  864POPE   C1A13199  10.370  11.120   6.871 -0.0659  0.3266  0.1574
  864POPE   D2A13200  10.373  10.744   7.190  0.2912  0.1256 -0.0085
  864POPE   C3A13201  10.383  10.879   7.688  0.3726 -0.1880  0.3656
  864POPE   C4A13202  10.176  10.847   8.068 -0.3225  0.0666  0.3630
  864POPE   C1B13203  10.420  12.072   6.824 -0.5090 -0.0280 -0.0361
  864POPE   C2B13204  10.245  12.311   7.128 -0.2261  0.0739  0.1752
  864POPE   C3B13205  10.076  12.372   7.563 -0.0655 -0.2297  0.2684
  864POPE   C4B13206   9.996  12.836   7.640  0.0187 -0.1056  0.1656
  865POPE   NH313207  10.450   3.212   5.794 -0.1835  0.0893 -0.1827
  865POPE   PO413208  10.119   3.490   5.900 -0.0491  0.4029  0.3093
  865POPE   GL113209  10.299   3.482   6.369  0.2590  0.0710 -0.1233
  865POPE   GL213210  10.537   3.552   6.194 -0.1489 -0.0571  0.0551
  865POPE   C1A13211  10.442   3.476   6.636  0.0380 -0.3262  0.0702
  865POPE   D2A13212  10.437   3.412   7.099  0.2988  0.2594 -0.1680
  865POPE   C3A13213  10.353   3.405   7.590  0.2262  0.0927 -0.4460
  865POPE   C4A13214  10.525   3.286   7.929  0.0164 -0.1789  0.0980
  865POPE   C1B13215  10.692   3.893   6.377 -0.0552 -0.1437  0.1097
  865POPE   C2B13216  10.903   4.074   6.673 -0.2422  0.1501 -0.0796
  865POPE   C3B13217  10.780   4.018   7.070  0.2824 -0.0984 -0.2538
  865POPE   C4B13218  10.793   4.196   7.396  0.3102  0.1508 -0.2445
  866POPE   NH313219  15.222   1.083   5.877 -0.2115 -0.0298  0.0377
  866POPE   PO413220  14.759   1.335   6.001 -0.2695  0.2001 -0.3372
  866POPE   GL113221  14.860   0.963   6.248 -0.2862 -0.2282  0.0368
  866POPE   GL213222  14.484   1.000   6.235 -0.2391  0.1362 -0.0109
  866POPE   C1A13223  15.088   1.008   6.659 -0.2817 -0.3152 -0.0003
  866POPE   D2A13224  15.087   0.924   7.087  0.1673 -0.0265  0.2809
  866POPE   C3A13225  15.206   1.378   7.272 -0.4072 -0.0266  0.0711
  866POPE   C4A13226  15.157   1.437   7.752  0.0207  0.1738 -0.2797
  866POPE   C1B13227  14.597   1.096   6.690 -0.1430  0.0243  0.0822
  866POPE   C2B13228  14.664   1.292   7.061  0.0537 -0.5764 -0.4826
  866POPE   C3B13229  14.741   1.551   7.484 -0.4378  0.0481 -0.1315
  866POPE   C4B13230  14.687   1.439   7.939  0.1168  0.1017  0.1476
  867POPE   NH313231   0.768  14.009   6.122 -0.4169 -0.0870  0.2608
  867POPE   PO413232   0.345  14.163   6.327 -0.1575 -0.0237  0.0505
  867POPE   GL113233   0.254  13.963   6.718 -0.1349 -0.0039  0.1078
  867POPE   GL213234   0.114  14.151   6.819  0.0654 -0.2280 -0.0971
  867POPE   C1A13235   0.294  13.755   7.162  0.0139  0.0579  0.1185
  867POPE   D2A13236   0.402  13.770   7.625 -0.2390 -0.1064 -0.1573
  867POPE   C3A13237   0.203  14.050   8.031 -0.0919 -0.2048 -0.1033
  867POPE   C4A13238   0.186  14.446   8.184  0.0882  0.0240  0.2143
  867POPE   C1B13239  -0.128  13.973   7.200 -0.2050  0.0076  0.1988
  867POPE   C2B13240  -0.160  13.723   7.519  0.2889 -0.1645  0.2159
  867POPE   C3B13241  -0.198  13.602   8.077  0.2734  0.0636 -0.1290
  867POPE   C4B13242  -0.085  13.935   8.446 -0.2420  0.0163  0.3614
  868POPE   NH313243  16.379   1.858   5.449 -0.0803 -0.0326 -0.1349
  868POPE   PO413244  15.995   2.069   5.303 -0.1744  0.0182 -0.2361
  868POPE   GL113245  16.176   2.268   5.674 -0.1702  0.2150 -0.5676
  868POPE   GL213246  16.025   2.022   5.896 -0.1396 -0.0086 -0.0024
  868POPE   C1A13247  16.283   2.739   5.812  0.0781  0.2037 -0.1927
  868POPE   D2A13248  16.133   3.082   6.064 -0.0741 -0.2346  0.1869
  868POPE   C3A13249  16.335   3.087   6.418 -0.0452 -0.1363 -0.2181
  868POPE   C4A13250  16.397   3.182   6.814  0.3218 -0.0449  0.5224
  868POPE   C1B13251  15.916   2.520   6.123  0.2717 -0.0974 -0.0752
  868POPE   C2B13252  16.061   2.695   6.591 -0.0016  0.0724  0.5603
  868POPE   C3B13253  16.081   2.820   6.953  0.0764 -0.3185  0.0116
  868POPE   C4B13254  16.311   2.757   7.291  0.1129 -0.3069  0.0363
  869POPE   NH313255   5.954   4.216   5.572 -0.0033 -0.0955  0.1829
  869POPE   PO413256   5.876   3.802   5.497 -0.2392  0.1792 -0.1627
  869POPE   GL113257   5.960   3.721   5.956  0.2235  0.0994 -0.0111
  869POPE   GL213258   5.733   3.891   6.139 -0.1786 -0.0793 -0.0670
  869POPE   C1A13259   5.915   3.580   6.424  0.3160  0.4523 -0.3283
  869POPE   D2A13260   6.033   3.633   6.914  0.2390  0.0134  0.0813
  869POPE   C3A13261   6.385   3.686   7.239  0.1120 -0.5023 -0.1612
  869POPE   C4A13262   6.596   3.568   7.563  0.0249 -0.0801  0.0303
  869POPE   C1B13263   5.823   4.014   6.635  0.1931 -0.1334 -0.0126
  869POPE   C2B13264   5.766   4.114   7.010 -0.1849  0.0288 -0.0441
  869POPE   C3B13265   5.763   4.034   7.472 -0.2944  0.3026 -0.0288
  869POPE   C4B13266   5.676   4.155   7.807 -0.1245 -0.4427  0.1866
  870POPE   NH313267   3.104   7.806   5.450  0.4513  0.2500 -0.0569
  870POPE   PO413268   3.461   7.979   5.746 -0.3438 -0.0319  0.1078
  870POPE   GL113269   3.665   7.574   5.841  0.0182 -0.2344 -0.0669
  870POPE   GL213270   3.851   7.670   6.018  0.2206  0.0359 -0.0432
  870POPE   C1A13271   3.417   7.162   5.839 -0.0562 -0.1738  0.1155
  870POPE   D2A13272   3.306   6.968   6.057  0.3611  0.1774 -0.0815
  870POPE   C3A13273   2.996   7.073   6.347 -0.1349 -0.0064  0.1307
  870POPE   C4A13274   3.094   7.185   6.831  0.1661 -0.2109 -0.1265
  870POPE   C1B13275   3.847   7.578   6.401 -0.0172  0.1692 -0.0850
  870POPE   C2B13276   3.800   7.594   6.927  0.0043 -0.0945  0.3143
  870POPE   C3B13277   3.498   7.308   7.085  0.1649  0.0898 -0.0898
  870POPE   C4B13278   3.409   6.833   7.201  0.1319 -0.0342 -0.0912
  871POPE   NH313279   1.782  15.936   5.806 -0.2150  0.2261  0.2388
  871POPE   PO413280   1.331  15.852   5.906  0.2201  0.0600 -0.0891
  871POPE   GL113281   1.072  15.623   6.142 -0.1650 -0.0973 -0.0478
  871POPE   GL213282   0.940  15.951   6.279 -0.0129 -0.3836 -0.0701
  871POPE   C1A13283   1.117  15.306   6.417  0.0032 -0.0638  0.0359
  871POPE   D2A13284   0.893  14.974   6.626  0.1141 -0.1481 -0.2358
  871POPE   C3A13285   0.852  14.988   7.012  0.1325  0.0518  0.0572
  871POPE   C4A13286   1.010  15.134   7.384  0.0632  0.0245 -0.0312
  871POPE   C1B13287   0.793  16.002   6.828 -0.0376 -0.3754  0.0804
  871POPE   C2B13288   0.819  15.870   7.273  0.4075 -0.4000 -0.0169
  871POPE   C3B13289   0.428  15.808   7.562  0.1792 -0.0407 -0.0171
  871POPE   C4B13290   0.094  16.162   7.458  0.1456  0.1799 -0.2582
  872POPE   NH313291  11.067  13.679   5.645  0.0068 -0.1307  0.2144
  872POPE   PO413292  10.729  13.764   5.658  0.0998 -0.0089  0.1221
  872POPE   GL113293  10.820  13.751   6.141  0.0720 -0.3803 -0.1716
  872POPE   GL213294  10.794  13.461   6.317 -0.0457 -0.5449 -0.0804
  872POPE   C1A13295  11.215  13.743   6.430  0.0887  0.0508 -0.0595
  872POPE   D2A13296  11.354  13.945   6.842 -0.2263  0.2709  0.1053
  872POPE   C3A13297  11.339  13.825   7.257 -0.1930  0.0416  0.0726
  872POPE   C4A13298  11.516  13.743   7.639 -0.0289 -0.0153 -0.0293
  872POPE   C1B13299  10.863  13.570   6.747 -0.0807 -0.0167  0.1083
  872POPE   C2B13300  10.911  13.836   7.076  0.0068 -0.3835 -0.2033
  872POPE   C3B13301  10.883  14.270   7.339  0.0309  0.3347 -0.2934
  872POPE   C4B13302  10.795  14.621   7.603 -0.0443 -0.1867  0.4285
  873POPE   NH313303  10.048  17.294   5.902 -0.2569  0.3100 -0.1001
  873POPE   PO413304   9.525  17.305   5.987  0.1468 -0.1741  0.1329
  873POPE   GL113305   9.493  17.338   6.278 -0.1120 -0.0384 -0.0072
  873POPE   GL213306   9.617  17.509   6.563 -0.0911 -0.3483  0.0560
  873POPE   C1A13307   9.343  17.134   6.732  0.0203  0.1507  0.1326
  873POPE   D2A13308   9.208  16.877   6.987  0.1674  0.1172  0.1950
  873POPE   C3A13309   9.216  16.799   7.480  0.2081 -0.2695 -0.2956
  873POPE   C4A13310   9.246  16.619   7.935 -0.3068 -0.2164  0.0921
  873POPE   C1B13311   9.708  17.471   7.041 -0.1039  0.0286 -0.0178
  873POPE   C2B13312   9.703  17.645   7.328  0.0976  0.2540 -0.1047
  873POPE   C3B13313   9.871  17.684   7.735 -0.0389 -0.0942  0.1750
  873POPE   C4B13314  10.234  17.986   8.006 -0.1563 -0.2644 -0.1480
  874YOPE   NH313315   4.129  13.336   6.198  0.0996  0.0811 -0.0054
  874YOPE   PO413316   4.255  13.668   5.932  0.2646  0.1973 -0.0811
  874YOPE   GL113317   4.003  13.804   6.264 -0.3552 -0.1605 -0.1307
  874YOPE   GL213318   4.252  13.914   6.457  0.1312  0.3325 -0.0468
  874YOPE   C1A13319   3.714  14.086   6.533 -0.0200 -0.0947 -0.0855
  874YOPE   D2A13320   3.347  13.976   6.753  0.2731 -0.1165 -0.1363
  874YOPE   C3A13321   3.345  13.742   7.111  0.0228  0.3729  0.3740
  874YOPE   C4A13322   3.153  13.498   7.426 -0.0687  0.1303  0.0236
  874YOPE   C1B13323   4.603  13.829   6.784 -0.0871  0.2141  0.1666
  874YOPE   C2B13324   4.729  13.795   7.147  0.0571 -0.1338  0.1940
  874YOPE   D3B13325   4.689  13.906   7.552  0.2682 -0.4380  0.1419
  874YOPE   C4B13326   4.643  14.057   7.927  0.0060  0.0019 -0.0436
  875YOPE   NH313327  13.810  12.984   5.863 -0.0904 -0.2054  0.0602
  875YOPE   PO413328  13.552  13.400   6.073 -0.0255  0.0838  0.0878
  875YOPE   GL113329  13.445  13.339   6.549  0.1161 -0.1116 -0.0614
  875YOPE   GL213330  13.245  13.644   6.744  0.1080  0.2737  0.3916
  875YOPE   C1A13331  13.153  13.202   6.947 -0.0713 -0.1478 -0.0116
  875YOPE   D2A13332  13.209  13.118   7.353 -0.0551 -0.4699 -0.0632
  875YOPE   C3A13333  13.537  12.974   7.706  0.3979 -0.2287  0.0461
  875YOPE   C4A13334  13.679  13.271   8.028  0.0228  0.1080 -0.3494
  875YOPE   C1B13335  13.565  13.713   7.064 -0.3527  0.1416 -0.0880
  875YOPE   C2B13336  13.853  13.795   7.471 -0.2212 -0.2689  0.2079
  875YOPE   D3B13337  14.237  13.691   7.591 -0.2192 -0.0271 -0.1255
  875YOPE   C4B13338  14.516  13.552   7.985  0.1322 -0.1111 -0.0033
  876YOPE   NH313339   3.981  15.436   5.903 -0.0551 -0.1100 -0.0392
  876YOPE   PO413340   4.352  15.713   5.997 -0.0269 -0.2787  0.1274
  876YOPE   GL113341   4.348  15.636   6.362 -0.0939  0.3302 -0.1545
  876YOPE   GL213342   4.147  15.363   6.382  0.1565 -0.2217  0.2963
  876YOPE   C1A13343   4.591  15.711   6.706 -0.2875  0.1790 -0.0309
  876YOPE   D2A13344   4.746  15.517   7.028  0.0338 -0.2152 -0.1114
  876YOPE   C3A13345   4.511  15.592   7.348 -0.3934 -0.0821 -0.2878
  876YOPE   C4A13346   4.379  15.388   7.634  0.2979 -0.1842 -0.0169
  876YOPE   C1B13347   4.276  15.340   6.876 -0.1798 -0.0459  0.0599
  876YOPE   C2B13348   4.080  15.339   7.264 -0.2026 -0.4166  0.0688
  876YOPE   D3B13349   3.967  15.091   7.626 -0.2176 -0.2209  0.2278
  876YOPE   C4B13350   3.889  14.864   8.020 -0.1174 -0.4897 -0.2862
  877YOPE   NH313351  14.211  16.526   5.606 -0.0006  0.3477 -0.2453
  877YOPE   PO413352  14.208  16.930   5.492  0.2518  0.3799 -0.1497
  877YOPE   GL113353  14.307  16.968   5.933 -0.3502  0.1381 -0.0268
  877YOPE   GL213354  14.080  16.629   6.063  0.0830 -0.2996 -0.0978
  877YOPE   C1A13355  14.443  17.080   6.393 -0.0764  0.0810  0.1398
  877YOPE   D2A13356  14.511  17.002   6.678 -0.1025  0.3659 -0.1587
  877YOPE   C3A13357  14.366  17.127   7.041  0.2165 -0.0498 -0.0474
  877YOPE   C4A13358  14.324  16.999   7.448  0.2885 -0.3391  0.1317
  877YOPE   C1B13359  14.081  16.780   6.558  0.1528 -0.0157 -0.0778
  877YOPE   C2B13360  13.961  16.878   6.943  0.4219 -0.0714 -0.0171
  877YOPE   D3B13361  13.709  17.073   7.243 -0.3021  0.0332 -0.0347
  877YOPE   C4B13362  13.587  17.481   7.596 -0.0953  0.0904 -0.0397
  878YOPE   NH313363  14.632  15.832   5.675  0.0565  0.0880  0.3979
  878YOPE   PO413364  14.723  16.241   5.548 -0.0466 -0.0711  0.0983
  878YOPE   GL113365  14.595  16.231   6.021 -0.6232  0.1806  0.1014
  878YOPE   GL213366  14.280  16.136   6.044  0.2254 -0.0222  0.0819
  878YOPE   C1A13367  14.887  16.153   6.457  0.0400 -0.2708  0.2378
  878YOPE   D2A13368  15.211  16.255   6.782 -0.1644 -0.0579  0.2211
  878YOPE   C3A13369  15.160  16.643   7.049  0.2015 -0.3336 -0.2828
  878YOPE   C4A13370  14.841  16.896   7.332  0.2607  0.1167 -0.0155
  878YOPE   C1B13371  14.464  15.857   6.456 -0.1146 -0.1429  0.0710
  878YOPE   C2B13372  14.723  16.055   6.928 -0.1882 -0.0391  0.0680
  878YOPE   D3B13373  15.003  16.141   7.330 -0.0713  0.3117  0.3040
  878YOPE   C4B13374  15.083  16.398   7.713 -0.0981 -0.2954  0.1694
  879YOPE   NH313375  15.056   4.564   5.252 -0.0538 -0.1301 -0.0374
  879YOPE   PO413376  14.652   4.439   5.397 -0.2370 -0.2254 -0.1651
  879YOPE   GL113377  14.668   4.362   5.820 -0.1828 -0.1918 -0.0843
  879YOPE   GL213378  14.725   4.641   5.961 -0.0600 -0.1456  0.3005
  879YOPE   C1A13379  14.799   4.159   6.244  0.1663  0.0102 -0.4175
  879YOPE   D2A13380  14.753   4.339   6.799  0.1464 -0.0479 -0.0057
  879YOPE   C3A13381  14.887   4.450   7.137  0.1216  0.4718 -0.3188
  879YOPE   C4A13382  14.777   4.467   7.638 -0.0112  0.2848  0.1638
  879YOPE   C1B13383  14.665   4.671   6.342  0.1106  0.1451  0.1712
  879YOPE   C2B13384  14.564   4.921   6.705  0.2527  0.3785 -0.0549
  879YOPE   D3B13385  14.553   5.210   7.038 -0.2158  0.1075 -0.0725
  879YOPE   C4B13386  14.702   5.371   7.428  0.0957  0.0862  0.2043
  880YOPE   NH313387   1.835   4.101   5.609  0.0503 -0.3896  0.1692
  880YOPE   PO413388   1.585   3.733   5.523  0.2379 -0.0349 -0.0606
  880YOPE   GL113389   1.458   3.771   5.920 -0.1171  0.1442  0.3333
  880YOPE   GL213390   1.562   4.061   6.022 -0.0420 -0.1024  0.0131
  880YOPE   C1A13391   1.056   3.817   6.056 -0.1369  0.3512  0.2900
  880YOPE   D2A13392   0.788   3.732   6.154  0.2526 -0.0138  0.1474
  880YOPE   C3A13393   0.798   3.307   6.057  0.3294  0.0457 -0.2142
  880YOPE   C4A13394   0.671   2.877   5.934 -0.3104 -0.0841 -0.2518
  880YOPE   C1B13395   1.367   4.052   6.433 -0.0442  0.1463  0.0982
  880YOPE   C2B13396   1.326   4.198   6.823  0.1449  0.0484 -0.1577
  880YOPE   D3B13397   1.573   4.168   7.366 -0.0937  0.1773  0.0978
  880YOPE   C4B13398   1.851   3.942   7.531 -0.1428 -0.0385 -0.2534
  881YOPE   NH313399   0.026  16.641   6.097  0.0572 -0.2396  0.3442
  881YOPE   PO413400   0.368  16.463   6.214 -0.1322 -0.0001 -0.1755
  881YOPE   GL113401   0.365  16.218   6.630 -0.2396  0.3612 -0.1795
  881YOPE   GL213402   0.355  15.922   6.493  0.2091  0.2002 -0.2146
  881YOPE   C1A13403   0.416  16.158   7.133 -0.3504  0.1349  0.0826
  881YOPE   D2A13404   0.566  16.297   7.501 -0.3681  0.0537 -0.0484
  881YOPE   C3A13405   0.472  16.230   7.967 -0.1065 -0.1466  0.2922
  881YOPE   C4A13406   0.510  16.170   8.374  0.0836  0.2621  0.5009
  881YOPE   C1B13407   0.228  15.657   6.886 -0.2414 -0.0568 -0.0124
  881YOPE   C2B13408   0.080  15.487   7.368  0.2357 -0.2033  0.2028
  881YOPE   D3B13409  -0.096  15.417   7.808  0.1160 -0.0765  0.1339
  881YOPE   C4B13410  -0.383  15.416   8.260  0.3166 -0.1657  0.0170
  882YOPE   NH313411  11.509   1.851   5.815  0.1550 -0.0432  0.0049
  882YOPE   PO413412  11.966   2.148   5.810  0.3666 -0.1642 -0.1419
  882YOPE   GL113413  11.930   2.488   6.212  0.1275  0.0863 -0.1413
  882YOPE   GL213414  12.261   2.817   6.190  0.0424 -0.0082 -0.3500
  882YOPE   C1A13415  12.007   2.598   6.656 -0.1956 -0.3052 -0.4793
  882YOPE   D2A13416  12.035   2.487   7.061  0.2774 -0.0969  0.1482
  882YOPE   C3A13417  11.578   2.333   7.195 -0.0675 -0.1597 -0.0298
  882YOPE   C4A13418  11.190   2.104   7.067  0.1519 -0.1410  0.1919
  882YOPE   C1B13419  12.548   2.997   6.571 -0.0785 -0.0332  0.0417
  882YOPE   C2B13420  12.655   2.942   6.910  0.1236 -0.1811 -0.3543
  882YOPE   D3B13421  12.452   2.845   7.291 -0.1921  0.0224 -0.3918
  882YOPE   C4B13422  12.369   2.697   7.739 -0.2111  0.1258 -0.1543
  883YOPE   NH313423  11.134  13.269   5.938  0.0274 -0.1274 -0.0110
  883YOPE   PO413424  11.577  13.486   5.998  0.1025 -0.0583  0.3007
  883YOPE   GL113425  11.571  13.325   6.405 -0.1055 -0.1560 -0.1065
  883YOPE   GL213426  11.572  13.066   6.473 -0.2910  0.5025  0.0846
  883YOPE   C1A13427  11.343  13.391   6.797  0.0675  0.0201 -0.1797
  883YOPE   D2A13428  11.093  13.379   7.231  0.0328  0.0458  0.3478
  883YOPE   C3A13429  10.951  13.732   7.555  0.0150  0.2028 -0.3681
  883YOPE   C4A13430  10.696  14.076   7.817  0.1158 -0.1137 -0.1949
  883YOPE   C1B13431  11.468  12.952   6.859 -0.2984  0.1754  0.1024
  883YOPE   C2B13432  11.484  13.091   7.330  0.1424  0.2652 -0.2697
  883YOPE   D3B13433  11.352  13.247   7.686  0.0791  0.3081  0.0150
  883YOPE   C4B13434  11.262  13.215   8.181  0.0943  0.2276  0.1475
  884YOPE   NH313435   3.732   5.387   5.422 -0.1115  0.3464 -0.0007
  884YOPE   PO413436   4.102   5.319   5.256 -0.2247  0.2536 -0.0406
  884YOPE   GL113437   4.071   5.075   5.625  0.0974 -0.1874 -0.0778
  884YOPE   GL213438   4.389   4.898   5.786  0.5250 -0.0768  0.0022
  884YOPE   C1A13439   4.010   5.241   6.061  0.1512  0.1269 -0.0845
  884YOPE   D2A13440   4.024   5.547   6.415 -0.0685 -0.1620  0.2056
  884YOPE   C3A13441   4.050   5.635   6.808  0.3983  0.0912 -0.0626
  884YOPE   C4A13442   3.801   5.879   7.112 -0.3602  0.0501  0.0991
  884YOPE   C1B13443   4.743   5.123   6.066  0.1814  0.1546  0.0199
  884YOPE   C2B13444   5.117   5.260   6.148  0.1968 -0.1978  0.2672
  884YOPE   D3B13445   5.428   5.236   6.443  0.0255 -0.0825 -0.0057
  884YOPE   C4B13446   5.614   5.338   6.769 -0.3326 -0.1049 -0.3524
  885YOPE   NH313447   0.510  16.065   5.981 -0.1586  0.0438 -0.0167
  885YOPE   PO413448   0.061  16.133   6.026 -0.0187  0.1409  0.1392
  885YOPE   GL113449  -0.068  16.200   6.413 -0.0110  0.0154  0.0604
  885YOPE   GL213450  -0.114  16.437   6.568 -0.0299  0.3861  0.0879
  885YOPE   C1A13451  -0.050  16.034   6.832  0.1699  0.0612  0.2735
  885YOPE   D2A13452  -0.199  15.750   7.096 -0.2309  0.0045 -0.0950
  885YOPE   C3A13453  -0.502  15.887   7.328 -0.0957 -0.0264 -0.0703
  885YOPE   C4A13454  -0.885  16.027   7.375  0.3546 -0.2010 -0.2185
  885YOPE   C1B13455   0.064  16.514   6.921  0.0389 -0.0185 -0.0955
  885YOPE   C2B13456   0.262  16.834   7.267 -0.1924 -0.0520  0.1227
  885YOPE   D3B13457   0.640  16.904   7.446  0.2298  0.0659 -0.0814
  885YOPE   C4B13458   0.800  16.717   7.686 -0.2640 -0.1917  0.1097
  886YOPE   NH313459  13.529  10.567   6.148  0.1318 -0.1912 -0.0445
  886YOPE   PO413460  13.180  10.580   5.992 -0.2212  0.2643  0.0693
  886YOPE   GL113461  13.031  10.585   6.484  0.0901  0.0480  0.0005
  886YOPE   GL213462  12.997  10.284   6.435 -0.0257  0.2218  0.0549
  886YOPE   C1A13463  13.030  10.680   6.881 -0.1966 -0.1938  0.3724
  886YOPE   D2A13464  12.994  10.781   7.278 -0.2184 -0.1854  0.1383
  886YOPE   C3A13465  13.184  10.985   7.667  0.0368 -0.1771 -0.0259
  886YOPE   C4A13466  13.501  11.345   7.641 -0.1066  0.0748 -0.2465
  886YOPE   C1B13467  12.925  10.081   6.769 -0.0718  0.1190 -0.1574
  886YOPE   C2B13468  13.062  10.280   7.207 -0.1692 -0.3508 -0.2598
  886YOPE   D3B13469  13.434  10.295   7.521 -0.1288 -0.0730  0.0545
  886YOPE   C4B13470  13.523  10.123   7.948 -0.0901 -0.3546 -0.1072
  887YOPE   NH313471  11.979  14.894   6.189  0.0075  0.2904 -0.0206
  887YOPE   PO413472  11.643  15.230   6.257 -0.1727 -0.0165 -0.0160
  887YOPE   GL113473  11.510  15.484   6.577 -0.1165 -0.1173  0.1320
  887YOPE   GL213474  11.383  15.305   6.657  0.1662 -0.1181 -0.0499
  887YOPE   C1A13475  11.667  15.697   6.850  0.4233 -0.3113  0.1323
  887YOPE   D2A13476  11.817  16.018   7.136  0.0254 -0.0963 -0.0009
  887YOPE   C3A13477  11.567  16.407   7.302  0.0571 -0.2998 -0.1587
  887YOPE   C4A13478  11.322  16.877   7.233  0.0540  0.0101 -0.3222
  887YOPE   C1B13479  11.099  15.404   6.970 -0.3493  0.0687  0.0479
  887YOPE   C2B13480  10.975  15.223   7.287 -0.2088  0.1364 -0.0438
  887YOPE   D3B13481  11.019  15.060   7.751 -0.2191 -0.1766 -0.0707
  887YOPE   C4B13482  10.903  14.998   8.117  0.2097  0.3979  0.1082
  888YOPE   NH313483   8.589   1.709   6.151  0.1830  0.1444 -0.0286
  888YOPE   PO413484   8.440   2.062   6.177  0.3247 -0.3081  0.0745
  888YOPE   GL113485   8.381   1.937   6.579  0.2462  0.1789 -0.0904
  888YOPE   GL213486   8.326   1.487   6.655  0.0322  0.3653 -0.0183
  888YOPE   C1A13487   8.016   2.005   6.975 -0.2785 -0.0534  0.0928
  888YOPE   D2A13488   7.576   2.069   7.117 -0.1091  0.1974 -0.2275
  888YOPE   C3A13489   7.390   2.484   7.036  0.2032  0.1715 -0.0721
  888YOPE   C4A13490   7.446   2.818   6.700 -0.1184 -0.0193 -0.0728
  888YOPE   C1B13491   8.703   1.479   6.739 -0.1260 -0.5789  0.2031
  888YOPE   C2B13492   9.032   1.366   7.178 -0.0359 -0.0891  0.1675
  888YOPE   D3B13493   8.989   1.290   7.612  0.3758  0.1709 -0.1999
  888YOPE   C4B13494   8.898   1.160   8.058 -0.2251 -0.0438 -0.2606
  889YOPE   NH313495   0.174  12.995   5.863 -0.2483 -0.4450 -0.1606
  889YOPE   PO413496   0.259  12.567   6.001  0.0484 -0.0085 -0.2033
  889YOPE   GL113497   0.209  12.832   6.341  0.0466  0.1920  0.0664
  889YOPE   GL213498   0.533  12.743   6.428 -0.2804  0.0810 -0.1022
  889YOPE   C1A13499   0.136  12.980   6.708 -0.0769 -0.0768 -0.3471
  889YOPE   D2A13500   0.013  13.176   7.026 -0.1816  0.1667 -0.0352
  889YOPE   C3A13501   0.076  13.315   7.417 -0.0829  0.2729 -0.4212
  889YOPE   C4A13502   0.162  13.380   7.814 -0.1263  0.0441  0.2823
  889YOPE   C1B13503   0.648  12.595   6.846  0.0418  0.1097 -0.0877
  889YOPE   C2B13504   0.416  12.279   7.148 -0.1031 -0.3863 -0.1349
  889YOPE   D3B13505   0.220  12.256   7.484 -0.0885  0.3509 -0.0183
  889YOPE   C4B13506  -0.126  11.938   7.656 -0.1317  0.1764 -0.3948
  890YOPE   NH313507  17.543   2.329   5.436  0.0860  0.0026  0.1405
  890YOPE   PO413508  17.255   2.596   5.459 -0.2676  0.1798  0.1728
  890YOPE   GL113509  17.401   2.785   5.681  0.1468  0.0065  0.2036
  890YOPE   GL213510  17.041   2.703   5.878 -0.0594  0.0342 -0.1977
  890YOPE   C1A13511  17.747   2.929   5.749 -0.0034 -0.0494  0.0620
  890YOPE   D2A13512  17.831   3.213   6.087 -0.2532 -0.4692 -0.0315
  890YOPE   C3A13513  18.264   3.372   6.310 -0.1459  0.5490  0.1981
  890YOPE   C4A13514  18.396   3.757   6.531  0.1569 -0.0428  0.1380
  890YOPE   C1B13515  17.113   2.642   6.413  0.0364  0.0466  0.2929
  890YOPE   C2B13516  17.200   2.752   6.810  0.0285 -0.2202 -0.3597
  890YOPE   D3B13517  17.322   2.648   7.166  0.0656 -0.1504 -0.0728
  890YOPE   C4B13518  17.261   2.651   7.574 -0.0586 -0.2869 -0.0022
  891YOPE   NH313519  16.514  10.789   5.454  0.0489 -0.1521  0.2054
  891YOPE   PO413520  16.671  11.188   5.675  0.3710  0.0771  0.0306
  891YOPE   GL113521  16.899  11.167   6.063 -0.2858  0.1834  0.1490
  891YOPE   GL213522  17.007  10.827   6.187  0.1076  0.2446 -0.0689
  891YOPE   C1A13523  16.963  11.417   6.453  0.1269 -0.1243 -0.1460
  891YOPE   D2A13524  17.088  11.286   6.785 -0.1315  0.2393 -0.2620
  891YOPE   C3A13525  16.920  11.187   7.079  0.2101 -0.1436  0.0988
  891YOPE   C4A13526  16.885  11.120   7.395 -0.0600  0.0783 -0.0919
  891YOPE   C1B13527  16.992  10.794   6.714 -0.2497 -0.2162 -0.2062
  891YOPE   C2B13528  17.119  10.746   7.150  0.1018 -0.2089 -0.0872
  891YOPE   D3B13529  17.419  10.653   7.484  0.0963  0.2733  0.1742
  891YOPE   C4B13530  17.642  10.475   7.876  0.1427  0.0440  0.0030
  892YOPE   NH313531   5.543  13.095   6.465  0.0712 -0.1697  0.3021
  892YOPE   PO413532   5.929  13.438   6.377 -0.0462  0.2394  0.2864
  892YOPE   GL113533   5.870  13.668   6.644 -0.1055 -0.2358 -0.0850
  892YOPE   GL213534   5.904  13.994   6.688  0.0378 -0.2378 -0.0078
  892YOPE   C1A13535   5.823  13.628   7.139 -0.3521 -0.0126  0.0351
  892YOPE   D2A13536   5.676  13.517   7.539  0.2470  0.1893  0.3043
  892YOPE   C3A13537   5.512  13.736   7.910 -0.1743  0.1070 -0.0285
  892YOPE   C4A13538   5.133  13.989   7.851  0.0360 -0.0569  0.2797
  892YOPE   C1B13539   5.996  14.170   7.069 -0.1230  0.0336  0.4642
  892YOPE   C2B13540   6.079  14.405   7.428  0.0764 -0.1055  0.0066
  892YOPE   D3B13541   6.055  14.567   7.872  0.0570 -0.0361  0.2927
  892YOPE   C4B13542   6.263  14.648   8.211 -0.3209 -0.1489  0.1109
  893YOPE   NH313543   9.569   6.606   5.818  0.0995  0.1092  0.3016
  893YOPE   PO413544   9.448   6.377   6.134  0.1123  0.3784  0.1756
  893YOPE   GL113545   9.607   6.491   6.529 -0.1969  0.1543 -0.0317
  893YOPE   GL213546   9.881   6.521   6.457  0.0802 -0.1974  0.1323
  893YOPE   C1A13547   9.459   6.498   6.977 -0.2674  0.0767 -0.2657
  893YOPE   D2A13548   9.579   6.678   7.395  0.0816  0.0242 -0.0835
  893YOPE   C3A13549   9.500   7.104   7.425  0.3371  0.2694  0.1559
  893YOPE   C4A13550   9.035   7.275   7.398 -0.3118  0.1809 -0.1327
  893YOPE   C1B13551   9.979   6.544   6.925 -0.0263  0.2604  0.0055
  893YOPE   C2B13552  10.236   6.480   7.296  0.1362 -0.1293 -0.0054
  893YOPE   D3B13553  10.053   6.441   7.722 -0.1366 -0.0116 -0.2413
  893YOPE   C4B13554   9.865   6.286   8.108  0.0836  0.1461 -0.3594
  894YOPE   NH313555   5.010  12.448   6.037  0.1152  0.0014  0.0992
  894YOPE   PO413556   5.437  12.390   6.207 -0.4348 -0.0770 -0.1484
  894YOPE   GL113557   5.290  12.566   6.529 -0.0388  0.2500 -0.2619
  894YOPE   GL213558   5.561  12.646   6.842  0.2148 -0.0072 -0.0573
  894YOPE   C1A13559   5.127  12.332   6.865  0.0514  0.1816  0.0364
  894YOPE   D2A13560   5.181  12.154   7.112  0.0338 -0.2582  0.2463
  894YOPE   C3A13561   5.231  11.807   7.317  0.0847  0.1049  0.0522
  894YOPE   C4A13562   5.427  11.708   7.715 -0.1377  0.1339  0.2500
  894YOPE   C1B13563   5.640  12.801   7.264 -0.0811  0.0793  0.0107
  894YOPE   C2B13564   5.368  12.940   7.540 -0.0847 -0.2743  0.2298
  894YOPE   D3B13565   5.031  12.997   7.845 -0.2786 -0.3056 -0.3398
  894YOPE   C4B13566   4.765  13.101   8.222  0.0568 -0.2220  0.1589
  895YOPE   NH313567  15.789  13.188   5.919  0.2912 -0.0475 -0.0861
  895YOPE   PO413568  15.832  13.460   5.555  0.2021 -0.1157 -0.0278
  895YOPE   GL113569  15.684  13.698   5.965 -0.0057 -0.3077  0.1384
  895YOPE   GL213570  15.684  14.044   6.066  0.4082  0.2045 -0.1410
  895YOPE   C1A13571  15.489  13.770   6.414  0.0043 -0.1903 -0.3505
  895YOPE   D2A13572  15.402  13.544   6.739  0.0776 -0.0677  0.0029
  895YOPE   C3A13573  15.612  13.685   6.994  0.3734 -0.1814  0.0441
  895YOPE   C4A13574  15.624  13.921   7.456 -0.2665  0.1909  0.1549
  895YOPE   C1B13575  15.484  14.259   6.359 -0.1405 -0.1401 -0.0064
  895YOPE   C2B13576  15.468  14.598   6.645  0.0718  0.0419  0.0584
  895YOPE   D3B13577  15.494  14.563   7.095 -0.2145  0.1351  0.4032
  895YOPE   C4B13578  15.453  14.377   7.607  0.2055  0.0212 -0.2236
  896YOPE   NH313579  10.871   6.576   5.799  0.0325 -0.2348 -0.0018
  896YOPE   PO413580  10.581   6.230   5.990 -0.0288 -0.2245 -0.0738
  896YOPE   GL113581  10.417   6.438   6.311 -0.0039  0.2555 -0.2221
  896YOPE   GL213582  10.210   6.178   6.499 -0.0856  0.0969 -0.3349
  896YOPE   C1A13583  10.627   6.446   6.621  0.1725 -0.1242  0.1529
  896YOPE   D2A13584  10.720   6.370   7.055 -0.2632  0.1232 -0.3187
  896YOPE   C3A13585  10.608   5.971   7.293  0.2554  0.1612  0.0212
  896YOPE   C4A13586  10.329   5.839   7.540  0.1895 -0.1099 -0.3247
  896YOPE   C1B13587  10.260   6.099   6.870  0.0238  0.1289 -0.0566
  896YOPE   C2B13588   9.988   5.751   7.178 -0.0528  0.1409 -0.1890
  896YOPE   D3B13589  10.009   5.291   7.347 -0.1711  0.1769  0.1694
  896YOPE   C4B13590  10.077   4.863   7.475 -0.0340  0.0871 -0.0863
  897YOPE   NH313591  13.393  10.227   5.724 -0.4889  0.0574  0.2448
  897YOPE   PO413592  13.424   9.755   5.706 -0.0586  0.1769  0.0882
  897YOPE   GL113593  13.669   9.767   5.931  0.1975 -0.1242 -0.3150
  897YOPE   GL213594  13.969   9.668   5.902  0.0118  0.2853  0.3860
  897YOPE   C1A13595  13.624   9.576   6.378  0.1533  0.1120 -0.2164
  897YOPE   D2A13596  13.289   9.638   6.744  0.1302  0.3841 -0.0249
  897YOPE   C3A13597  13.354   9.708   7.123  0.1710 -0.2919  0.0794
  897YOPE   C4A13598  13.441   9.763   7.553  0.0226  0.0458 -0.0983
  897YOPE   C1B13599  14.064   9.475   6.347  0.0321 -0.1568 -0.0807
  897YOPE   C2B13600  14.030   9.242   6.594  0.3451 -0.0749  0.0410
  897YOPE   D3B13601  14.030   8.849   6.610 -0.1619  0.2041  0.0782
  897YOPE   C4B13602  14.112   8.344   6.684  0.0152  0.4356 -0.1644
  898YOPE   NH313603  11.432   3.577   5.735  0.2426  0.0687  0.1560
  898YOPE   PO413604  11.095   3.872   5.822 -0.0250 -0.0055 -0.2413
  898YOPE   GL113605  11.152   3.800   6.148  0.0107  0.1918 -0.1952
  898YOPE   GL213606  11.089   4.177   6.234  0.3207  0.2220 -0.2631
  898YOPE   C1A13607  11.130   3.676   6.566  0.1462  0.0416  0.0141
  898YOPE   D2A13608  11.350   3.896   6.911  0.0458  0.1619 -0.1623
  898YOPE   C3A13609  11.143   3.786   7.320 -0.0549 -0.1117 -0.1796
  898YOPE   C4A13610  11.187   4.048   7.676  0.2221 -0.0166 -0.0396
  898YOPE   C1B13611  11.490   4.093   6.466  0.0902 -0.1731  0.1905
  898YOPE   C2B13612  11.688   4.299   6.903  0.1478 -0.0960 -0.0982
  898YOPE   D3B13613  11.785   4.453   7.284  0.1087  0.1472  0.1332
  898YOPE   C4B13614  12.015   4.247   7.559 -0.1662 -0.1477 -0.0335
  899YOPE   NH313615   3.201   1.245   5.693  0.1932 -0.1273 -0.0528
  899YOPE   PO413616   3.386   0.843   5.912  0.2736 -0.1396  0.1414
  899YOPE   GL113617   3.084   1.028   6.217  0.0157 -0.1304 -0.1046
  899YOPE   GL213618   3.107   1.347   6.208 -0.0752  0.4917 -0.2448
  899YOPE   C1A13619   2.893   1.044   6.628  0.0010  0.1523 -0.1446
  899YOPE   D2A13620   2.834   1.013   7.065 -0.0286  0.3571  0.0437
  899YOPE   C3A13621   3.084   0.822   7.343  0.0843  0.3184  0.0240
  899YOPE   C4A13622   3.346   1.125   7.600  0.1684  0.1078 -0.1318
  899YOPE   C1B13623   3.309   1.499   6.523 -0.2012 -0.2486 -0.0082
  899YOPE   C2B13624   3.421   1.731   6.808 -0.2594 -0.4872 -0.4396
  899YOPE   D3B13625   3.213   1.906   7.128  0.1953  0.2590  0.2024
  899YOPE   C4B13626   2.730   1.908   7.080 -0.0409  0.0105 -0.3506
  900YOPE   NH313627   1.989  17.992   5.875 -0.0524 -0.0877 -0.1893
  900YOPE   PO413628   2.301  17.833   6.170 -0.0992  0.0857  0.3196
  900YOPE   GL113629   2.237  17.597   6.492  0.0410 -0.0223  0.2189
  900YOPE   GL213630   1.994  17.765   6.671 -0.0342  0.1621  0.1738
  900YOPE   C1A13631   2.545  17.641   6.859  0.0866 -0.1634  0.1258
  900YOPE   D2A13632   2.567  17.550   7.349  0.1833  0.0097  0.0280
  900YOPE   C3A13633   2.539  17.875   7.551 -0.2228 -0.0035  0.2035
  900YOPE   C4A13634   2.767  18.258   7.674  0.1420  0.2665 -0.2073
  900YOPE   C1B13635   1.821  18.100   6.866 -0.4564  0.3043 -0.0788
  900YOPE   C2B13636   1.781  18.172   7.266 -0.4032 -0.0093  0.1541
  900YOPE   D3B13637   1.299  18.066   7.373  0.1039  0.3588  0.1992
  900YOPE   C4B13638   1.083  18.036   7.805 -0.0731 -0.2893  0.2615
  901YOPE   NH313639   6.692  13.800   6.198  0.1223 -0.2034  0.0079
  901YOPE   PO413640   7.003  13.469   6.299 -0.0577 -0.0204  0.0832
  901YOPE   GL113641   7.207  13.651   6.650  0.4904 -0.4867 -0.1207
  901YOPE   GL213642   7.089  13.894   6.663 -0.0755 -0.1267  0.2473
  901YOPE   C1A13643   7.314  13.716   7.067 -0.0663  0.1098  0.0271
  901YOPE   D2A13644   7.420  13.663   7.527  0.2083  0.1565 -0.3055
  901YOPE   C3A13645   7.782  13.634   7.810 -0.0092  0.2300 -0.0535
  901YOPE   C4A13646   7.986  13.946   8.082  0.1622  0.1051 -0.3094
  901YOPE   C1B13647   6.909  13.982   6.999  0.1194 -0.1304 -0.2915
  901YOPE   C2B13648   6.858  13.982   7.521 -0.2699 -0.4187  0.1788
  901YOPE   D3B13649   6.664  13.799   7.919 -0.2353 -0.4628  0.0412
  901YOPE   C4B13650   6.491  13.877   8.318 -0.3958  0.0794  0.3081
  902YOPE   NH313651  11.936   5.394   5.903 -0.0465 -0.1834  0.0996
  902YOPE   PO413652  12.406   5.196   5.901 -0.1456 -0.1602  0.1216
  902YOPE   GL113653  12.719   5.396   6.207 -0.1568 -0.0965  0.0307
  902YOPE   GL213654  13.041   5.402   6.295 -0.1960 -0.0350 -0.2948
  902YOPE   C1A13655  12.602   5.378   6.571  0.2801 -0.1437 -0.0676
  902YOPE   D2A13656  12.701   5.384   7.006  0.0512 -0.0588  0.4171
  902YOPE   C3A13657  12.976   5.675   7.197 -0.3523 -0.0201 -0.0455
  902YOPE   C4A13658  13.050   6.006   7.290 -0.1295  0.0299 -0.0429
  902YOPE   C1B13659  12.997   5.706   6.724  0.1839 -0.0149 -0.0317
  902YOPE   C2B13660  13.202   6.030   6.826 -0.1425  0.2073  0.0723
  902YOPE   D3B13661  13.354   6.325   7.110  0.0064  0.0506  0.1791
  902YOPE   C4B13662  13.556   6.404   7.489 -0.0495  0.0762 -0.1105
  903YOPE   NH313663  17.827  12.869   5.601  0.3317 -0.1442 -0.0110
  903YOPE   PO413664  17.628  13.221   5.671  0.1008 -0.1900  0.0115
  903YOPE   GL113665  17.868  13.248   6.027 -0.0452  0.1754 -0.2682
  903YOPE   GL213666  18.042  13.001   6.017  0.2438  0.3470  0.1845
  903YOPE   C1A13667  17.953  13.469   6.558  0.1115  0.1276  0.0467
  903YOPE   D2A13668  18.065  13.529   7.042  0.1252 -0.0689 -0.0474
  903YOPE   C3A13669  17.935  13.348   7.278 -0.0151  0.1343  0.0422
  903YOPE   C4A13670  17.753  13.572   7.660 -0.0138  0.0902  0.1125
  903YOPE   C1B13671  18.144  13.010   6.396  0.0404  0.1821  0.0798
  903YOPE   C2B13672  18.227  12.682   6.544 -0.3412 -0.2933 -0.3086
  903YOPE   D3B13673  18.002  12.396   6.664 -0.0669  0.0933  0.0697
  903YOPE   C4B13674  18.065  12.003   6.823 -0.0986 -0.1494  0.0874
  904YOPE   NH313675  18.266  11.232   5.773 -0.2901 -0.0733 -0.2070
  904YOPE   PO413676  17.926  11.032   5.668 -0.3488 -0.1886  0.1661
  904YOPE   GL113677  17.865  11.063   6.082 -0.1366  0.1028  0.2397
  904YOPE   GL213678  17.763  11.372   6.128 -0.0999 -0.1537  0.1992
  904YOPE   C1A13679  17.968  10.943   6.471 -0.3454 -0.0299  0.2395
  904YOPE   D2A13680  18.079  10.620   6.740 -0.5521  0.4521 -0.2276
  904YOPE   C3A13681  18.361  10.518   7.066 -0.0402 -0.4723  0.3809
  904YOPE   C4A13682  18.505  10.233   7.250  0.2205 -0.2017 -0.2470
  904YOPE   C1B13683  17.510  11.541   6.455 -0.1906  0.1137  0.1815
  904YOPE   C2B13684  17.645  11.562   6.878  0.2003 -0.3576  0.1126
  904YOPE   D3B13685  18.046  11.583   7.168  0.3700 -0.0972  0.0004
  904YOPE   C4B13686  18.490  11.481   7.002 -0.2442 -0.0424 -0.1182
  905YOPE   NH313687   2.133   1.646   5.914 -0.2406 -0.0256 -0.0266
  905YOPE   PO413688   2.273   1.296   5.717 -0.2061  0.0184  0.0898
  905YOPE   GL113689   2.124   1.106   6.105 -0.0593 -0.0563 -0.0542
  905YOPE   GL213690   2.125   1.056   6.444 -0.1808  0.1645  0.0081
  905YOPE   C1A13691   1.700   1.019   6.118  0.1965 -0.0663  0.0293
  905YOPE   D2A13692   1.204   1.093   6.135 -0.1231 -0.2515 -0.0755
  905YOPE   C3A13693   0.875   0.816   6.164  0.1562 -0.1833 -0.0506
  905YOPE   C4A13694   0.582   0.471   6.268  0.1365  0.1154 -0.1128
  905YOPE   C1B13695   1.975   1.183   6.769  0.0630  0.0943  0.2014
  905YOPE   C2B13696   1.816   1.148   7.161  0.0468  0.3747 -0.1914
  905YOPE   D3B13697   1.527   1.291   7.417 -0.2460  0.0648  0.0459
  905YOPE   C4B13698   1.682   1.435   7.766  0.1601  0.1028 -0.0573
  906YOPE   NH313699  18.237   1.736   5.623 -0.0529 -0.0903  0.0451
  906YOPE   PO413700  17.886   1.963   5.543  0.0566 -0.1681  0.0038
  906YOPE   GL113701  17.762   1.963   5.962  0.1138  0.0597 -0.1355
  906YOPE   GL213702  17.997   1.771   6.104  0.0194  0.3011  0.2710
  906YOPE   C1A13703  17.540   2.080   6.342 -0.0227 -0.1933  0.1041
  906YOPE   D2A13704  17.249   2.182   6.704 -0.1911 -0.0484 -0.2002
  906YOPE   C3A13705  16.813   2.204   6.581  0.0751 -0.2751 -0.0028
  906YOPE   C4A13706  16.445   2.228   6.775  0.3136 -0.2700 -0.0082
  906YOPE   C1B13707  17.935   1.743   6.542 -0.0712  0.0834  0.0655
  906YOPE   C2B13708  18.143   1.904   6.848  0.0231  0.1578 -0.1077
  906YOPE   D3B13709  18.417   2.103   7.123  0.0633  0.1038 -0.0811
  906YOPE   C4B13710  18.699   2.216   7.359 -0.0879  0.2333  0.2714
  907YOPE   NH313711   5.346   7.670   5.977 -0.0414  0.0034 -0.0471
  907YOPE   PO413712   4.923   7.459   5.903 -0.2288 -0.1964 -0.0941
  907YOPE   GL113713   5.145   7.270   6.235 -0.0053 -0.0562 -0.0996
  907YOPE   GL213714   5.172   7.019   6.143 -0.1139  0.0515 -0.0618
  907YOPE   C1A13715   5.212   7.336   6.651  0.3000 -0.1597 -0.0481
  907YOPE   D2A13716   5.097   7.223   7.028  0.0177 -0.1097  0.1329
  907YOPE   C3A13717   4.810   6.951   7.352  0.1940  0.0156  0.4189
  907YOPE   C4A13718   4.690   6.940   7.756 -0.1602 -0.1630  0.0255
  907YOPE   C1B13719   5.386   6.827   6.456 -0.1302 -0.0735 -0.3498
  907YOPE   C2B13720   5.594   6.355   6.531  0.0788 -0.0422 -0.0071
  907YOPE   D3B13721   5.849   6.147   6.811  0.0005  0.1169 -0.0483
  907YOPE   C4B13722   5.758   6.007   7.199  0.1882 -0.1944  0.3876
  908YOPE   NH313723  16.830  11.689   5.817  0.3803 -0.0561 -0.5125
  908YOPE   PO413724  17.238  11.910   5.771  0.4194 -0.2984  0.0265
  908YOPE   GL113725  17.621  11.890   6.054  0.0484 -0.2024 -0.2349
  908YOPE   GL213726  17.954  12.069   5.946 -0.1085 -0.1010 -0.0661
  908YOPE   C1A13727  17.583  12.101   6.508 -0.0532  0.1541 -0.1593
  908YOPE   D2A13728  17.627  12.082   7.039 -0.0491  0.0219  0.0289
  908YOPE   C3A13729  17.612  11.751   7.368  0.2261 -0.0378  0.3302
  908YOPE   C4A13730  17.874  11.612   7.725  0.0038  0.3016  0.2109
  908YOPE   C1B13731  18.031  11.834   6.384 -0.0102 -0.0894 -0.0564
  908YOPE   C2B13732  18.090  11.482   6.686 -0.1448 -0.1818 -0.0500
  908YOPE   D3B13733  18.144  11.067   6.954  0.0694  0.1201 -0.0492
  908YOPE   C4B13734  18.114  11.203   7.442 -0.0634  0.0944  0.2222
  909YOPE   NH313735  13.513  12.341   6.107  0.0260  0.0904 -0.5233
  909YOPE   PO413736  13.825  12.515   6.022 -0.1345 -0.1633 -0.0350
  909YOPE   GL113737  13.853  12.747   6.302 -0.4880  0.0613 -0.3189
  909YOPE   GL213738  13.573  12.760   6.402 -0.1660 -0.1199  0.4517
  909YOPE   C1A13739  14.041  12.697   6.805 -0.0938  0.1596  0.0662
  909YOPE   D2A13740  14.145  12.924   7.076 -0.1468 -0.1498  0.1344
  909YOPE   C3A13741  14.314  12.863   7.357 -0.3137 -0.1898 -0.0827
  909YOPE   C4A13742  14.406  12.844   7.836  0.2264 -0.0177 -0.1630
  909YOPE   C1B13743  13.503  12.763   6.837 -0.1653 -0.2684 -0.4522
  909YOPE   C2B13744  13.672  12.790   7.240  0.1370 -0.2754  0.1727
  909YOPE   D3B13745  13.841  12.627   7.495  0.1877 -0.2214  0.0081
  909YOPE   C4B13746  13.958  12.734   7.940 -0.0501  0.1438  0.0207
  910YOPE   NH313747   9.724  11.583   5.503 -0.2778  0.0930 -0.0951
  910YOPE   PO413748   9.546  11.606   5.893  0.1203 -0.2427 -0.2270
  910YOPE   GL113749   9.523  11.510   6.300 -0.0530 -0.3934 -0.0824
  910YOPE   GL213750   9.738  11.275   6.395 -0.0739 -0.1093  0.1255
  910YOPE   C1A13751   9.276  11.630   6.656  0.2976  0.0210  0.1141
  910YOPE   D2A13752   9.161  11.611   7.080  0.0338 -0.0350  0.2001
  910YOPE   C3A13753   9.342  11.180   7.369  0.3677  0.3337 -0.1872
  910YOPE   C4A13754   9.348  10.946   7.683 -0.1640  0.2297 -0.0558
  910YOPE   C1B13755   9.630  11.340   6.800 -0.0552 -0.3222 -0.1020
  910YOPE   C2B13756   9.721  11.516   7.189  0.1240  0.2284 -0.0476
  910YOPE   D3B13757   9.726  11.662   7.645  0.1221  0.1644 -0.0402
  910YOPE   C4B13758   9.626  12.112   7.788 -0.4042 -0.1031 -0.2628
  911YOPE   NH313759   9.780  15.989   6.365  0.0500 -0.1062 -0.3803
  911YOPE   PO413760  10.125  15.949   6.059  0.1384 -0.2104  0.2479
  911YOPE   GL113761  10.521  16.115   6.264  0.0877 -0.1001  0.0712
  911YOPE   GL213762  10.404  16.312   6.540  0.3328  0.2289  0.1718
  911YOPE   C1A13763  11.027  16.315   6.473 -0.0928 -0.1258 -0.2276
  911YOPE   D2A13764  10.855  16.115   6.945 -0.2139 -0.0138 -0.2581
  911YOPE   C3A13765  10.815  16.185   7.355 -0.0758 -0.0430 -0.1012
  911YOPE   C4A13766  10.846  16.039   7.810 -0.2486  0.1720  0.1517
  911YOPE   C1B13767  10.386  16.083   6.918  0.1241  0.0535 -0.0284
  911YOPE   C2B13768  10.326  15.939   7.436 -0.1022 -0.2007 -0.0835
  911YOPE   D3B13769  10.526  15.690   7.776  0.3513 -0.1254 -0.0658
  911YOPE   C4B13770  10.615  15.362   7.692  0.1859  0.1935  0.0634
  912YOPE   NH313771  16.917  14.384   5.753 -0.0293  0.3118 -0.1020
  912YOPE   PO413772  16.724  13.937   5.835 -0.0947 -0.1358 -0.1694
  912YOPE   GL113773  16.551  13.816   6.225 -0.0376  0.2689  0.3474
  912YOPE   GL213774  16.613  13.552   6.445 -0.0213 -0.1908  0.1263
  912YOPE   C1A13775  16.594  14.039   6.629  0.1232 -0.0352  0.2164
  912YOPE   D2A13776  16.684  14.040   7.043  0.2373  0.1553 -0.0398
  912YOPE   C3A13777  16.849  14.056   7.451 -0.0202  0.0683  0.2286
  912YOPE   C4A13778  17.143  14.118   7.724 -0.0289 -0.0713 -0.5200
  912YOPE   C1B13779  16.878  13.609   6.790 -0.0709  0.2212 -0.2990
  912YOPE   C2B13780  17.185  13.466   7.028  0.1377  0.1604 -0.1817
  912YOPE   D3B13781  17.403  13.179   7.401  0.1055 -0.1067 -0.1445
  912YOPE   C4B13782  17.789  12.916   7.504 -0.0093 -0.0507  0.1035
  913YOPE   NH313783   7.954   4.516   5.874  0.2910 -0.3220 -0.1463
  913YOPE   PO413784   7.766   5.031   5.877 -0.1173 -0.0081  0.2674
  913YOPE   GL113785   7.697   4.908   6.296 -0.0776 -0.0388  0.2511
  913YOPE   GL213786   8.019   4.687   6.340  0.1244 -0.0702 -0.3649
  913YOPE   C1A13787   7.429   4.902   6.631  0.2116 -0.1343 -0.1746
  913YOPE   D2A13788   7.432   5.107   7.077  0.1700  0.1393  0.0366
  913YOPE   C3A13789   7.547   5.506   7.127  0.3679  0.3927 -0.2672
  913YOPE   C4A13790   7.241   5.745   7.344 -0.2688  0.0244  0.2169
  913YOPE   C1B13791   7.939   4.775   6.795  0.0197 -0.1949  0.1690
  913YOPE   C2B13792   7.920   4.712   7.192 -0.2259  0.0711 -0.2512
  913YOPE   D3B13793   7.777   4.338   7.344  0.0528  0.1727 -0.1431
  913YOPE   C4B13794   7.804   4.015   7.490  0.3448 -0.1602 -0.0824
  914YOPE   NH313795   2.629   2.036   5.709 -0.0006 -0.2433  0.2004
  914YOPE   PO413796   2.823   1.636   5.764  0.0179 -0.1940  0.0516
  914YOPE   GL113797   2.646   1.606   6.163 -0.2749  0.2654  0.3903
  914YOPE   GL213798   2.509   1.943   6.272 -0.1958  0.2775 -0.1758
  914YOPE   C1A13799   2.528   1.464   6.545  0.2806 -0.0246  0.0870
  914YOPE   D2A13800   2.296   1.633   6.943  0.1619 -0.0386  0.3073
  914YOPE   C3A13801   2.541   1.477   7.226 -0.0817 -0.2580  0.2460
  914YOPE   C4A13802   2.553   1.619   7.665  0.0986  0.4231 -0.1470
  914YOPE   C1B13803   2.486   2.148   6.634 -0.0107 -0.2425  0.0045
  914YOPE   C2B13804   2.342   2.299   7.023  0.0983 -0.2277  0.0102
  914YOPE   D3B13805   2.497   2.477   7.326  0.0813 -0.0744  0.1963
  914YOPE   C4B13806   2.612   2.670   7.663 -0.3619 -0.2549 -0.0895
  915YOPE   NH313807  13.522   1.722   5.616 -0.2003  0.0604  0.2074
  915YOPE   PO413808  13.845   1.405   5.671 -0.3056  0.0263 -0.0276
  915YOPE   GL113809  13.967   1.111   6.032  0.0158  0.0097  0.3051
  915YOPE   GL213810  13.747   0.793   5.947 -0.2164 -0.2189  0.0489
  915YOPE   C1A13811  13.879   1.047   6.456 -0.1598  0.0915 -0.0165
  915YOPE   D2A13812  14.213   0.852   6.780  0.0943  0.2420  0.0551
  915YOPE   C3A13813  14.212   1.060   7.158  0.1147 -0.0222  0.0724
  915YOPE   C4A13814  14.402   1.157   7.452 -0.2748  0.0738  0.2391
  915YOPE   C1B13815  13.414   0.663   6.190 -0.0291  0.0553  0.2193
  915YOPE   C2B13816  13.162   0.441   6.412 -0.1986  0.0997  0.1742
  915YOPE   D3B13817  12.805   0.193   6.534  0.0485 -0.0720 -0.1391
  915YOPE   C4B13818  12.330   0.127   6.564  0.1676 -0.3356 -0.1219
  916YOPE   NH313819   9.184   1.456   5.918  0.0908 -0.2229  0.0049
  916YOPE   PO413820   9.476   1.224   5.712  0.2431 -0.2310  0.1400
  916YOPE   GL113821   9.649   1.313   6.061 -0.0052 -0.2011 -0.0823
  916YOPE   GL213822   9.658   1.558   6.128  0.1098  0.0855 -0.1973
  916YOPE   C1A13823   9.781   0.913   6.334  0.0637 -0.0861 -0.1001
  916YOPE   D2A13824  10.082   0.884   6.694 -0.1089  0.0750 -0.1629
  916YOPE   C3A13825  10.435   0.745   6.801  0.0907  0.1160 -0.0489
  916YOPE   C4A13826  10.774   0.897   7.176 -0.3424  0.2321 -0.0803
  916YOPE   C1B13827   9.960   1.414   6.422 -0.2036  0.1103 -0.3120
  916YOPE   C2B13828   9.962   1.307   6.871 -0.2061 -0.0615 -0.1465
  916YOPE   D3B13829   9.929   1.350   7.315  0.3281  0.2971 -0.1297
  916YOPE   C4B13830   9.849   1.077   7.569  0.0062 -0.0861 -0.1167
  917YOPE   NH313831  12.484  11.893   6.080 -0.0813 -0.1075 -0.2403
  917YOPE   PO413832  12.991  11.765   6.119  0.2796  0.0004  0.0382
  917YOPE   GL113833  12.800  11.622   6.519  0.2572  0.1043 -0.0146
  917YOPE   GL213834  12.487  11.613   6.484 -0.0831  0.0620  0.2210
  917YOPE   C1A13835  12.692  11.588   6.955  0.0687 -0.0862  0.2172
  917YOPE   D2A13836  12.716  11.678   7.333  0.3045 -0.1062  0.0415
  917YOPE   C3A13837  12.468  11.653   7.749 -0.0870 -0.0534 -0.2321
  917YOPE   C4A13838  12.119  11.548   8.021 -0.3804 -0.0746  0.2216
  917YOPE   C1B13839  12.230  11.377   6.702  0.2940 -0.0481 -0.1620
  917YOPE   C2B13840  12.291  11.427   7.202  0.1326  0.2729  0.2533
  917YOPE   D3B13841  11.977  11.530   7.525 -0.0009 -0.0288 -0.0717
  917YOPE   C4B13842  11.573  11.391   7.387  0.1121  0.3241  0.4023
  918YOPE   NH313843   8.790   7.583   5.947  0.3413  0.2150 -0.3751
  918YOPE   PO413844   8.446   7.447   5.564 -0.2474 -0.3055  0.2994
  918YOPE   GL113845   8.285   7.728   5.964  0.2415  0.3995  0.0257
  918YOPE   GL213846   8.144   8.080   5.895 -0.1422  0.2245 -0.0129
  918YOPE   C1A13847   8.352   7.678   6.499  0.0672 -0.1225 -0.1861
  918YOPE   D2A13848   8.460   7.654   7.013 -0.0830 -0.0570 -0.2622
  918YOPE   C3A13849   8.305   7.569   7.471 -0.3557 -0.0813 -0.2787
  918YOPE   C4A13850   7.865   7.730   7.587 -0.1391  0.3698 -0.0944
  918YOPE   C1B13851   7.821   8.299   6.222 -0.1928 -0.1001  0.3839
  918YOPE   C2B13852   7.551   8.262   6.544 -0.0866 -0.0511 -0.1208
  918YOPE   D3B13853   7.316   8.466   6.851 -0.3944  0.0233  0.1676
  918YOPE   C4B13854   7.267   8.473   7.316  0.2566 -0.1593 -0.0465
  919YOPE   NH313855  17.855  14.617   5.998 -0.1596 -0.2167 -0.0636
  919YOPE   PO413856  18.060  14.748   6.331 -0.0586 -0.1967 -0.2357
  919YOPE   GL113857  18.221  14.649   6.724  0.1423 -0.2170  0.0348
  919YOPE   GL213858  17.927  14.810   6.809 -0.0637 -0.0212  0.0555
  919YOPE   C1A13859  18.394  14.570   7.177 -0.2853  0.2166 -0.0932
  919YOPE   D2A13860  18.876  14.262   7.285 -0.0540  0.2361  0.1558
  919YOPE   C3A13861  18.918  14.310   7.727  0.3410  0.3456 -0.0353
  919YOPE   C4A13862  19.048  14.650   7.942 -0.3499 -0.0577 -0.1434
  919YOPE   C1B13863  17.829  14.725   7.196  0.1881  0.0206  0.3678
  919YOPE   C2B13864  17.595  14.952   7.431  0.0163  0.0265  0.0501
  919YOPE   D3B13865  17.270  14.908   7.759 -0.1410  0.1354 -0.1134
  919YOPE   C4B13866  17.455  14.867   8.021 -0.2361 -0.1678  0.1981
  920YOPE   NH313867   5.363   0.935   5.650 -0.0871 -0.2231  0.1836
  920YOPE   PO413868   5.765   0.717   5.797 -0.0191  0.2003 -0.1893
  920YOPE   GL113869   5.715   0.833   6.237  0.3552 -0.0583 -0.0958
  920YOPE   GL213870   5.899   0.547   6.400 -0.1588  0.1074 -0.0414
  920YOPE   C1A13871   5.756   1.261   6.441  0.3373  0.2266  0.0735
  920YOPE   D2A13872   5.681   1.658   6.515 -0.2000 -0.3017  0.0291
  920YOPE   C3A13873   5.380   1.478   6.862  0.0280  0.1149  0.1516
  920YOPE   C4A13874   5.301   1.380   7.287 -0.1616  0.1132 -0.1493
  920YOPE   C1B13875   5.736   0.811   6.707  0.0661  0.2546 -0.4048
  920YOPE   C2B13876   5.409   1.001   6.966 -0.1689 -0.1604 -0.0346
  920YOPE   D3B13877   5.362   0.823   7.323 -0.2593  0.0909 -0.1583
  920YOPE   C4B13878   5.211   0.481   7.557 -0.3484  0.0222 -0.0214
  921YOPE   NH313879   1.896  14.078   5.991 -0.1670  0.0846 -0.0602
  921YOPE   PO413880   1.572  14.063   6.244 -0.2791 -0.0304  0.1283
  921YOPE   GL113881   1.702  13.780   6.522  0.1531  0.5285  0.2565
  921YOPE   GL213882   1.800  13.503   6.328 -0.0647  0.0565 -0.0296
  921YOPE   C1A13883   1.817  13.903   7.027  0.1273  0.0201 -0.2465
  921YOPE   D2A13884   1.670  13.927   7.462 -0.3375 -0.4737  0.0423
  921YOPE   C3A13885   1.872  13.831   7.782 -0.2707 -0.2350  0.0883
  921YOPE   C4A13886   2.033  13.847   8.266  0.0369  0.0880  0.0046
  921YOPE   C1B13887   1.787  13.347   6.779  0.0407  0.0715  0.1138
  921YOPE   C2B13888   1.659  13.433   7.142 -0.3139  0.0211  0.0104
  921YOPE   D3B13889   1.549  13.437   7.545 -0.1594  0.0249  0.2256
  921YOPE   C4B13890   1.321  13.714   7.776  0.0864 -0.3168 -0.1053
  922YOPE   NH313891   7.974  13.849   6.304 -0.3018  0.1363 -0.1880
  922YOPE   PO413892   8.039  13.459   6.230  0.1385 -0.0973  0.3894
  922YOPE   GL113893   8.272  13.407   6.507 -0.0398 -0.1617 -0.1912
  922YOPE   GL213894   8.286  13.696   6.686 -0.0940  0.3492  0.0649
  922YOPE   C1A13895   8.317  13.099   6.888  0.0914  0.0958 -0.0965
  922YOPE   D2A13896   8.424  12.709   6.860  0.0953 -0.0267 -0.4042
  922YOPE   C3A13897   8.459  12.499   7.325  0.0943  0.3676 -0.1297
  922YOPE   C4A13898   8.566  12.578   7.722 -0.1005  0.0018 -0.0967
  922YOPE   C1B13899   8.487  13.569   6.954 -0.0965 -0.0232  0.1605
  922YOPE   C2B13900   8.622  13.692   7.397 -0.0591  0.0910 -0.2790
  922YOPE   D3B13901   9.089  13.352   7.527 -0.0606  0.1180 -0.0104
  922YOPE   C4B13902   9.303  13.469   7.844  0.2267  0.1818  0.2667
  923YOPE   NH313903  16.465   4.201   5.510  0.1028 -0.0757 -0.0033
  923YOPE   PO413904  16.934   4.144   5.495 -0.3329 -0.0953 -0.0144
  923YOPE   GL113905  16.946   4.225   5.860 -0.2377 -0.0602 -0.0257
  923YOPE   GL213906  16.730   4.549   5.842 -0.0525 -0.3020  0.0953
  923YOPE   C1A13907  17.074   4.442   6.223  0.0869  0.0950 -0.1581
  923YOPE   D2A13908  17.028   4.329   6.648 -0.1410  0.2190  0.1872
  923YOPE   C3A13909  17.310   4.413   6.896  0.0264 -0.0255  0.2320
  923YOPE   C4A13910  17.248   4.335   7.350  0.2722  0.0891  0.2646
  923YOPE   C1B13911  16.610   4.619   6.329 -0.2031  0.1744 -0.0389
  923YOPE   C2B13912  16.602   4.568   6.823 -0.0155 -0.0686  0.0770
  923YOPE   D3B13913  16.827   4.393   7.118 -0.0036 -0.0925 -0.0490
  923YOPE   C4B13914  16.757   4.314   7.507  0.3753 -0.3726 -0.0052
  924YOPE   NH313915  13.269   3.172   5.603 -0.0851  0.0229  0.0822
  924YOPE   PO413916  13.727   3.283   5.548 -0.0907  0.0969 -0.1558
  924YOPE   GL113917  13.960   3.230   5.973 -0.2522 -0.2272  0.0337
  924YOPE   GL213918  14.129   3.415   6.055  0.2172  0.2683  0.1134
  924YOPE   C1A13919  13.999   2.993   6.384  0.1168 -0.1371  0.2843
  924YOPE   D2A13920  13.803   3.162   6.768 -0.1476  0.0347 -0.2233
  924YOPE   C3A13921  13.789   2.879   7.142  0.0200  0.1350  0.0023
  924YOPE   C4A13922  13.583   3.007   7.597  0.1458  0.0395  0.3018
  924YOPE   C1B13923  14.249   3.419   6.477  0.0170  0.0830 -0.0810
  924YOPE   C2B13924  14.205   3.582   6.852 -0.3547  0.1362 -0.0453
  924YOPE   D3B13925  14.471   3.654   7.260 -0.0383  0.1474  0.0376
  924YOPE   C4B13926  14.620   4.052   7.364  0.0995 -0.0925 -0.0906
  925YOPE   NH313927  17.061   9.023   5.487 -0.3004  0.2993  0.1686
  925YOPE   PO413928  16.738   9.444   5.499 -0.1630  0.1773 -0.3586
  925YOPE   GL113929  16.917   9.224   5.928  0.0471 -0.0493  0.0917
  925YOPE   GL213930  17.015   8.884   5.992  0.1378 -0.0736  0.0736
  925YOPE   C1A13931  16.911   9.276   6.306 -0.0947  0.0803  0.0856
  925YOPE   D2A13932  16.806   9.136   6.765  0.1639  0.2505  0.1076
  925YOPE   C3A13933  16.457   8.974   6.899 -0.3615 -0.4280  0.2310
  925YOPE   C4A13934  16.403   8.599   7.183 -0.1208 -0.2040  0.0501
  925YOPE   C1B13935  16.657   8.815   6.285 -0.4052 -0.2128 -0.2302
  925YOPE   C2B13936  16.485   8.582   6.588  0.2816 -0.2121  0.2693
  925YOPE   D3B13937  16.416   8.278   6.810  0.0352 -0.0342  0.2524
  925YOPE   C4B13938  16.478   7.867   7.039  0.0099 -0.0532  0.1049
  926YOPE   NH313939   8.201  11.850   6.137  0.1620  0.1632 -0.3651
  926YOPE   PO413940   8.653  11.884   6.086 -0.1115  0.0733 -0.2959
  926YOPE   GL113941   8.537  11.579   6.436 -0.0545 -0.3988 -0.0988
  926YOPE   GL213942   8.166  11.684   6.589 -0.0111  0.3756 -0.0258
  926YOPE   C1A13943   8.561  11.614   6.923 -0.0829 -0.3167 -0.0705
  926YOPE   D2A13944   8.678  11.706   7.285 -0.0976  0.4226  0.0713
  926YOPE   C3A13945   8.928  11.481   7.547  0.2398  0.0255  0.0639
  926YOPE   C4A13946   9.271  11.489   7.853  0.0241 -0.1208  0.4687
  926YOPE   C1B13947   7.806  11.431   6.789 -0.5011  0.0549 -0.0625
  926YOPE   C2B13948   7.493  11.037   6.870 -0.5474 -0.2969  0.1757
  926YOPE   D3B13949   7.226  11.008   7.225  0.1352 -0.0607  0.2390
  926YOPE   C4B13950   7.171  10.796   7.554 -0.5323  0.1595  0.2288
  927YOPE   NH313951  15.679  15.658   5.423 -0.2402  0.3931 -0.0844
  927YOPE   PO413952  15.488  15.506   5.790  0.0222  0.0163  0.0438
  927YOPE   GL113953  15.272  15.703   6.121 -0.0242  0.0410 -0.0766
  927YOPE   GL213954  15.038  15.643   5.997  0.1819 -0.0418  0.1605
  927YOPE   C1A13955  15.273  15.810   6.657 -0.1083  0.0794  0.1212
  927YOPE   D2A13956  15.372  15.805   7.113 -0.2488 -0.3201  0.1789
  927YOPE   C3A13957  15.470  16.249   7.439 -0.1221  0.0700  0.1612
  927YOPE   C4A13958  15.561  16.172   7.884  0.0105 -0.1220  0.0793
  927YOPE   C1B13959  14.893  15.580   6.440  0.0605 -0.0051  0.0946
  927YOPE   C2B13960  14.961  15.552   6.929  0.1464  0.1548 -0.0674
  927YOPE   D3B13961  14.836  15.657   7.348  0.2304  0.1389 -0.0564
  927YOPE   C4B13962  14.729  15.899   7.687 -0.0595 -0.1132  0.0497
  928YOPE   NH313963   1.625  17.144   5.942  0.1504 -0.0886  0.1475
  928YOPE   PO413964   1.802  17.543   6.027  0.1046  0.0703 -0.0717
  928YOPE   GL113965   1.716  17.410   6.403 -0.0987  0.0705  0.0779
  928YOPE   GL213966   1.574  17.177   6.431 -0.3025 -0.0716  0.3146
  928YOPE   C1A13967   1.865  17.265   6.854 -0.0581 -0.1766 -0.2240
  928YOPE   D2A13968   2.131  17.338   6.980  0.2082  0.0994 -0.0709
  928YOPE   C3A13969   2.242  17.215   7.384 -0.1265 -0.2291  0.0900
  928YOPE   C4A13970   2.168  17.565   7.719 -0.2502  0.1495 -0.0950
  928YOPE   C1B13971   1.460  17.073   6.880  0.2683  0.2092  0.0817
  928YOPE   C2B13972   1.439  17.293   7.236 -0.3317  0.0362  0.2330
  928YOPE   D3B13973   1.617  17.445   7.515  0.0943 -0.3477  0.2904
  928YOPE   C4B13974   1.697  17.523   7.971 -0.0858  0.2107  0.1766
  929YOPE   NH313975   4.290  16.295   5.802  0.0681  0.2146 -0.3579
  929YOPE   PO413976   4.760  16.112   5.848  0.0295  0.3402 -0.2363
  929YOPE   GL113977   4.575  16.271   6.193 -0.2468 -0.1136  0.0894
  929YOPE   GL213978   4.438  16.656   6.231  0.1745  0.2380 -0.1503
  929YOPE   C1A13979   4.707  16.221   6.586 -0.0499 -0.0348  0.1625
  929YOPE   D2A13980   4.825  16.270   7.033 -0.2788  0.0077  0.0756
  929YOPE   C3A13981   5.111  16.227   7.387 -0.2953  0.1155 -0.0764
  929YOPE   C4A13982   5.360  15.945   7.685  0.2347 -0.0969 -0.1900
  929YOPE   C1B13983   4.319  16.877   6.670  0.0608  0.2564  0.0950
  929YOPE   C2B13984   4.439  16.981   7.120  0.0680  0.1130 -0.0500
  929YOPE   D3B13985   4.544  17.084   7.464 -0.1432  0.1043  0.1985
  929YOPE   C4B13986   4.793  17.168   7.744  0.0819 -0.2287 -0.1254
  930YOPE   NH313987   5.077  14.990   6.119 -0.2607 -0.0997  0.1688
  930YOPE   PO413988   5.224  15.433   6.091 -0.1577 -0.2666 -0.3310
  930YOPE   GL113989   5.357  15.624   6.378 -0.0689 -0.1216 -0.1956
  930YOPE   GL213990   5.579  15.562   6.520  0.0494  0.0089 -0.0402
  930YOPE   C1A13991   5.130  15.897   6.640  0.2440  0.1165 -0.1881
  930YOPE   D2A13992   5.309  16.227   6.828  0.1210  0.3733  0.1147
  930YOPE   C3A13993   5.627  16.182   7.172 -0.0069 -0.3124  0.0872
  930YOPE   C4A13994   5.965  16.186   7.453 -0.0834 -0.0661 -0.1050
  930YOPE   C1B13995   5.574  15.767   6.862 -0.1193 -0.1990 -0.0407
  930YOPE   C2B13996   5.205  15.810   7.161  0.1432  0.0273  0.2621
  930YOPE   D3B13997   4.973  15.706   7.454  0.3577  0.1129 -0.2693
  930YOPE   C4B13998   4.876  15.323   7.592  0.0860  0.2771 -0.0717
  931YOPE   NH313999   6.142   0.419   6.009 -0.3438 -0.0484 -0.3618
  931YOPE   PO414000   6.431   0.106   5.935 -0.0958  0.1230  0.1594
  931YOPE   GL114001   6.546   0.369   6.342 -0.2173 -0.0837  0.1736
  931YOPE   GL214002   6.488   0.722   6.191 -0.2187  0.0761  0.1812
  931YOPE   C1A14003   6.466   0.313   6.796  0.1314  0.0012 -0.0905
  931YOPE   D2A14004   6.442   0.261   7.315  0.1384 -0.3691 -0.0376
  931YOPE   C3A14005   6.689   0.094   7.633  0.0856  0.1305 -0.3884
  931YOPE   C4A14006   7.045   0.104   7.845  0.1656  0.2583  0.2532
  931YOPE   C1B14007   6.276   0.744   6.613  0.0326  0.1652 -0.1396
  931YOPE   C2B14008   6.336   0.784   7.014 -0.1333 -0.1394  0.0789
  931YOPE   D3B14009   6.217   1.029   7.291  0.2374  0.2148  0.0628
  931YOPE   C4B14010   6.090   1.145   7.697  0.1570 -0.0649  0.0183
  932YOPE   NH314011  14.682  11.485   6.059  0.1853 -0.0488  0.0554
  932YOPE   PO414012  14.219  11.222   6.000 -0.2172 -0.1640 -0.1655
  932YOPE   GL114013  14.408  11.206   6.357  0.1114  0.0477  0.1340
  932YOPE   GL214014  14.729  11.095   6.434 -0.0041 -0.3891  0.0808
  932YOPE   C1A14015  14.496  11.326   6.818 -0.0420 -0.1136  0.0041
  932YOPE   D2A14016  14.642  11.106   7.222 -0.2337 -0.0874  0.1744
  932YOPE   C3A14017  15.044  11.136   7.551  0.1678  0.0327 -0.1472
  932YOPE   C4A14018  15.303  11.206   7.966 -0.0530  0.1392  0.0063
  932YOPE   C1B14019  14.689  10.895   6.796  0.2564 -0.0537  0.0173
  932YOPE   C2B14020  14.547  10.648   7.141  0.1911  0.3460 -0.1271
  932YOPE   D3B14021  14.671  10.729   7.638 -0.1913  0.2293  0.1173
  932YOPE   C4B14022  14.846  10.956   8.054  0.0012 -0.0807  0.1149
  933YOPE   NH314023  13.780  14.334   6.251  0.2695  0.2465 -0.1753
  933YOPE   PO414024  13.417  13.995   6.395  0.1426 -0.1613  0.0502
  933YOPE   GL114025  13.545  14.253   6.745 -0.0434 -0.1670 -0.2044
  933YOPE   GL214026  13.804  14.102   6.832  0.0422 -0.3162  0.1130
  933YOPE   C1A14027  13.610  14.355   7.265  0.0910  0.1086  0.0663
  933YOPE   D2A14028  13.498  14.248   7.728  0.0649  0.2826  0.0342
  933YOPE   C3A14029  13.713  13.955   7.967  0.1075 -0.0614 -0.0722
  933YOPE   C4A14030  14.052  13.558   8.188 -0.1647  0.2225  0.0251
  933YOPE   C1B14031  14.080  13.886   7.045 -0.0556  0.1003 -0.1816
  933YOPE   C2B14032  14.221  13.504   7.053  0.1563  0.0674 -0.0385
  933YOPE   D3B14033  14.552  13.309   7.228 -0.1616  0.1146 -0.0691
  933YOPE   C4B14034  14.938  12.960   7.252  0.0700  0.1067  0.4469
  934YOPE   NH314035   3.674   3.631   5.472 -0.2421  0.2136  0.2979
  934YOPE   PO414036   3.525   3.464   5.181  0.0386 -0.1454  0.1375
  934YOPE   GL114037   3.231   3.425   5.570  0.0244  0.1583  0.0631
  934YOPE   GL214038   2.976   3.540   5.778 -0.2462 -0.0277 -0.2629
  934YOPE   C1A14039   3.294   3.211   5.945  0.0853  0.1651 -0.1035
  934YOPE   D2A14040   3.439   3.060   6.294  0.1339 -0.3031 -0.2990
  934YOPE   C3A14041   3.163   3.257   6.527  0.0759 -0.0793 -0.1589
  934YOPE   C4A14042   3.139   3.499   6.908 -0.1263 -0.3392 -0.1639
  934YOPE   C1B14043   2.992   3.593   6.208  0.2886 -0.0475  0.0181
  934YOPE   C2B14044   2.719   3.756   6.568 -0.2957  0.0674 -0.1747
  934YOPE   D3B14045   2.408   3.739   6.785  0.0869 -0.0370 -0.1052
  934YOPE   C4B14046   2.207   3.807   7.218  0.2315 -0.0958 -0.0743
  935YOPE   NH314047   6.914   0.193   6.024 -0.4489 -0.1870  0.1888
  935YOPE   PO414048   6.946   0.674   6.027 -0.0327 -0.5305 -0.2655
  935YOPE   GL114049   6.914   0.641   6.451 -0.3485 -0.1755 -0.0009
  935YOPE   GL214050   7.020   0.426   6.587  0.1126  0.1142 -0.0162
  935YOPE   C1A14051   6.714   0.954   6.763 -0.0624  0.0650 -0.3673
  935YOPE   D2A14052   6.591   1.369   6.883  0.0680  0.0711 -0.2140
  935YOPE   C3A14053   6.426   1.442   7.317 -0.1125  0.0987  0.4384
  935YOPE   C4A14054   6.570   1.265   7.664  0.0696  0.0617  0.0267
  935YOPE   C1B14055   6.845   0.455   7.042 -0.1814  0.0087  0.0998
  935YOPE   C2B14056   6.714   0.693   7.368 -0.1062  0.0762 -0.0615
  935YOPE   D3B14057   6.563   0.715   7.736 -0.0975  0.0964  0.2269
  935YOPE   C4B14058   6.121   0.673   7.619 -0.1976  0.0971  0.2482
  936YOPE   NH314059   7.282   3.304   5.814 -0.2453  0.3003  0.0471
  936YOPE   PO414060   7.060   3.623   5.633  0.2437  0.0541 -0.0018
  936YOPE   GL114061   6.934   3.575   6.107 -0.1115  0.1077 -0.1617
  936YOPE   GL214062   6.921   3.249   6.127 -0.0643  0.0589  0.0156
  936YOPE   C1A14063   6.867   3.695   6.592  0.1001 -0.0662 -0.2355
  936YOPE   D2A14064   6.826   3.927   7.056  0.1588 -0.2752  0.5964
  936YOPE   C3A14065   7.064   4.283   7.129  0.0704 -0.1597 -0.4608
  936YOPE   C4A14066   7.354   4.262   7.592 -0.2338 -0.0366  0.0332
  936YOPE   C1B14067   6.877   3.230   6.628  0.2674  0.0126 -0.0532
  936YOPE   C2B14068   7.098   3.010   6.950 -0.2191 -0.0353 -0.0140
  936YOPE   D3B14069   7.081   2.690   7.354  0.1718  0.2661  0.1761
  936YOPE   C4B14070   7.136   2.877   7.757  0.2717  0.2336 -0.2668
  937YOPE   NH314071   3.433  16.177   5.878 -0.3708  0.0971  0.0561
  937YOPE   PO414072   3.265  16.077   6.272 -0.0043  0.2167 -0.0295
  937YOPE   GL114073   3.156  16.392   6.626  0.0187  0.0586 -0.1983
  937YOPE   GL214074   3.331  16.739   6.671  0.1739 -0.4586  0.1509
  937YOPE   C1A14075   3.126  16.342   6.995 -0.3938  0.0726 -0.0016
  937YOPE   D2A14076   2.900  16.463   7.379  0.0095  0.2881  0.1043
  937YOPE   C3A14077   3.061  16.382   7.766 -0.1618 -0.0563  0.1551
  937YOPE   C4A14078   2.842  16.384   8.096 -0.1269  0.0245  0.3625
  937YOPE   C1B14079   3.021  16.855   6.911 -0.1712  0.2661 -0.0096
  937YOPE   C2B14080   2.673  17.023   7.329  0.1668  0.0141 -0.3103
  937YOPE   D3B14081   2.699  17.188   7.748 -0.1401 -0.3712  0.0664
  937YOPE   C4B14082   2.448  16.953   8.124 -0.1148 -0.2273 -0.1552
  938YOPE   NH314083  11.905   2.637   5.718 -0.2215  0.0910  0.0650
  938YOPE   PO414084  11.544   2.738   5.615  0.2294  0.2145 -0.0193
  938YOPE   GL114085  11.612   2.924   6.035  0.1672 -0.2548  0.2808
  938YOPE   GL214086  11.340   2.977   6.160 -0.1369  0.2397 -0.0956
  938YOPE   C1A14087  11.794   3.043   6.446 -0.0280  0.1247  0.0801
  938YOPE   D2A14088  12.142   3.058   6.937  0.1838  0.2029  0.2860
  938YOPE   C3A14089  12.024   3.383   7.193  0.1621  0.2433  0.1329
  938YOPE   C4A14090  12.096   3.809   7.250 -0.2354  0.2527 -0.0510
  938YOPE   C1B14091  11.323   3.129   6.576 -0.1450 -0.2556 -0.4078
  938YOPE   C2B14092  11.236   3.082   7.027  0.0473  0.2513 -0.0111
  938YOPE   D3B14093  11.319   3.112   7.440  0.1257 -0.1100  0.0138
  938YOPE   C4B14094  11.476   3.038   7.783 -0.0536 -0.0875  0.0019
  939YOPE   NH314095  14.362   9.993   5.612  0.1159  0.1020 -0.2337
  939YOPE   PO414096  14.618  10.255   5.927 -0.1391 -0.1349 -0.2173
  939YOPE   GL114097  14.777  10.376   6.289  0.1687  0.1046 -0.3797
  939YOPE   GL214098  14.586  10.215   6.510 -0.0666  0.0532 -0.1283
  939YOPE   C1A14099  14.928  10.393   6.765 -0.0100  0.2628  0.0860
  939YOPE   D2A14100  15.036  10.693   7.155 -0.0706 -0.0833 -0.1330
  939YOPE   C3A14101  15.301  10.659   7.508  0.1083  0.2504  0.0265
  939YOPE   C4A14102  15.548  10.495   7.801  0.0088  0.0411  0.0801
  939YOPE   C1B14103  14.410   9.791   6.674 -0.2895  0.0589 -0.0918
  939YOPE   C2B14104  14.139   9.527   6.977 -0.1471 -0.1170 -0.1105
  939YOPE   D3B14105  14.090   9.140   7.138 -0.1202 -0.2685 -0.1824
  939YOPE   C4B14106  13.959   9.046   7.448 -0.0295  0.0554  0.0313
  940YOPE   NH314107   9.579   9.058   5.903 -0.1511  0.1743  0.0050
  940YOPE   PO414108   9.342   8.651   5.876 -0.3467 -0.3428 -0.0947
  940YOPE   GL114109   9.244   8.860   6.245  0.0195  0.2111  0.2603
  940YOPE   GL214110   9.300   9.179   6.390 -0.1486 -0.4784  0.1145
  940YOPE   C1A14111   9.058   8.697   6.598  0.1257  0.1194 -0.0233
  940YOPE   D2A14112   9.002   8.750   6.973  0.2374 -0.0597 -0.4261
  940YOPE   C3A14113   9.119   8.562   7.351 -0.1496 -0.1745  0.1548
  940YOPE   C4A14114   8.961   8.584   7.652 -0.2429  0.2923  0.3766
  940YOPE   C1B14115   9.263   9.125   6.796  0.2418 -0.0403  0.0158
  940YOPE   C2B14116   9.258   9.030   7.229 -0.3275 -0.1133  0.0718
  940YOPE   D3B14117   9.045   9.086   7.536  0.1716 -0.2451 -0.1881
  940YOPE   C4B14118   8.632   9.334   7.631 -0.1693  0.4088 -0.2863
  941YOPE   NH314119   0.037  12.134   5.752  0.0518 -0.0627  0.0448
  941YOPE   PO414120   0.019  11.708   5.808 -0.2043 -0.2758  0.1684
  941YOPE   GL114121   0.089  11.720   6.212 -0.1763 -0.1572  0.0044
  941YOPE   GL214122  -0.121  11.418   6.206 -0.0749  0.4289 -0.1360
  941YOPE   C1A14123   0.104  11.869   6.682 -0.1027 -0.1340 -0.1236
  941YOPE   D2A14124   0.020  11.946   7.166 -0.2160  0.4294 -0.0106
  941YOPE   C3A14125   0.272  11.679   7.530 -0.1299  0.0830  0.3432
  941YOPE   C4A14126   0.382  11.526   8.013  0.2065  0.0709 -0.1163
  941YOPE   C1B14127   0.070  11.249   6.543  0.0453 -0.0406 -0.0988
  941YOPE   C2B14128   0.197  10.981   6.873  0.2378 -0.1467 -0.1277
  941YOPE   D3B14129   0.322  11.119   7.308  0.1074  0.0237 -0.1304
  941YOPE   C4B14130   0.139  11.207   7.720 -0.3785  0.1414 -0.1233
  942YOPE   NH314131   3.349  16.668   6.197 -0.0409  0.2223  0.1307
  942YOPE   PO414132   3.847  16.525   5.908 -0.1321 -0.1927  0.0864
  942YOPE   GL114133   3.876  16.613   6.352  0.2758  0.2248  0.4924
  942YOPE   GL214134   3.621  16.319   6.457  0.3503 -0.0571  0.0763
  942YOPE   C1A14135   3.881  16.690   6.784  0.0703 -0.0299  0.1110
  942YOPE   D2A14136   4.013  16.721   7.256 -0.0727  0.0770 -0.0527
  942YOPE   C3A14137   4.008  16.426   7.566  0.1265  0.0633  0.1323
  942YOPE   C4A14138   3.658  16.503   7.991 -0.2512  0.1678 -0.0418
  942YOPE   C1B14139   3.617  16.101   6.776 -0.0180  0.3890 -0.2687
  942YOPE   C2B14140   3.738  16.249   7.048 -0.2128  0.3067  0.1691
  942YOPE   D3B14141   3.932  16.011   7.306 -0.0466 -0.0289 -0.1435
  942YOPE   C4B14142   4.047  15.738   7.554  0.0058 -0.3985 -0.1190
  943YOPE   NH314143   7.782   0.120   6.251  0.2422  0.1134 -0.0276
  943YOPE   PO414144   8.159   0.149   6.160  0.1909  0.0791 -0.1566
  943YOPE   GL114145   8.006   0.464   6.522 -0.1866  0.1866 -0.0362
  943YOPE   GL214146   7.684   0.415   6.659 -0.3598  0.0108 -0.0381
  943YOPE   C1A14147   8.051   0.624   6.896  0.0533 -0.0719 -0.2184
  943YOPE   D2A14148   7.778   0.803   7.277 -0.0326  0.0160  0.0250
  943YOPE   C3A14149   7.429   0.677   7.551  0.0773  0.0625 -0.0083
  943YOPE   C4A14150   7.097   0.412   7.437  0.3286 -0.4607 -0.1227
  943YOPE   C1B14151   7.833   0.110   6.883  0.0879 -0.2283 -0.0838
  943YOPE   C2B14152   7.690   0.255   7.296  0.0868  0.1138 -0.0847
  943YOPE   D3B14153   7.926   0.436   7.635 -0.0617 -0.1258 -0.0052
  943YOPE   C4B14154   8.174   0.727   7.864  0.0437  0.0106  0.2619
  944POPC   NC314155   6.681   9.643   5.863 -0.0202 -0.1281 -0.3285
  944POPC   PO414156   6.538   9.306   6.034 -0.3044 -0.2183  0.3289
  944POPC   GL114157   6.251   9.478   6.406 -0.0039  0.3850 -0.2619
  944POPC   GL214158   5.868   9.621   6.340 -0.3332  0.2068  0.1105
  944POPC   C1A14159   5.976   9.398   6.731 -0.0182 -0.0801 -0.1477
  944POPC   D2A14160   6.048   9.213   7.088  0.1362 -0.1886  0.2365
  944POPC   C3A14161   5.852   9.162   7.333 -0.1111 -0.0440 -0.0221
  944POPC   C4A14162   5.605   9.451   7.498  0.1397 -0.3143 -0.1745
  944POPC   C1B14163   5.660   9.718   6.653 -0.0043 -0.3398 -0.0815
  944POPC   C2B14164   5.556   9.721   7.051 -0.1546  0.1447 -0.2163
  944POPC   C3B14165   5.434   9.891   7.324 -0.0634 -0.1012  0.3157
  944POPC   C4B14166   5.126   9.759   7.696  0.0202  0.1745  0.1175
  945POPC   NC314167  17.730   3.863   5.255 -0.1839  0.0429  0.2061
  945POPC   PO414168  17.796   3.454   5.193  0.1871  0.3600  0.2066
  945POPC   GL114169  17.696   3.495   5.604  0.2391 -0.0390  0.3503
  945POPC   GL214170  17.394   3.277   5.626 -0.0604  0.1920  0.1052
  945POPC   C1A14171  17.845   3.778   6.034 -0.2615 -0.2375 -0.0166
  945POPC   D2A14172  17.927   3.933   6.453 -0.0327  0.4801 -0.0008
  945POPC   C3A14173  18.013   3.743   6.892  0.0732  0.1120  0.1086
  945POPC   C4A14174  17.787   3.490   7.188 -0.2840  0.0778  0.0873
  945POPC   C1B14175  17.300   3.135   6.038 -0.0385  0.2102 -0.2921
  945POPC   C2B14176  17.413   3.061   6.431  0.0688 -0.3337  0.1511
  945POPC   C3B14177  17.409   3.237   6.849 -0.1625 -0.0211  0.3636
  945POPC   C4B14178  17.281   3.621   7.181 -0.4148 -0.0324 -0.0686
  946POPC   NC314179   6.235   2.501   5.182  0.1195  0.0771 -0.1542
  946POPC   PO414180   6.153   2.420   5.544 -0.3281  0.1720 -0.1343
  946POPC   GL114181   6.158   2.359   5.990 -0.1262 -0.1876 -0.4098
  946POPC   GL214182   5.940   2.586   6.160 -0.6045 -0.1019  0.2084
  946POPC   C1A14183   5.940   2.136   6.295  0.1379  0.0724 -0.0809
  946POPC   D2A14184   5.902   2.191   6.755  0.0483  0.0306  0.0081
  946POPC   C3A14185   6.232   2.373   6.941  0.2470 -0.0474  0.2587
  946POPC   C4A14186   6.152   2.716   7.244  0.2980  0.2447 -0.2480
  946POPC   C1B14187   5.583   2.504   6.247  0.0192 -0.0845  0.0691
  946POPC   C2B14188   5.349   2.083   6.218  0.2683 -0.0211 -0.1542
  946POPC   C3B14189   5.248   1.522   6.245 -0.4429  0.0482  0.2111
  946POPC   C4B14190   5.295   1.042   6.485 -0.2746  0.3737  0.0433
  947POPC   NC314191  14.575   3.945   5.521 -0.0151 -0.1890  0.1281
  947POPC   PO414192  14.847   4.053   5.145  0.0284  0.1402  0.0395
  947POPC   GL114193  15.076   4.074   5.565 -0.0573  0.1914  0.2914
  947POPC   GL214194  15.198   4.369   5.691 -0.1904 -0.1276 -0.0505
  947POPC   C1A14195  15.262   3.919   5.947 -0.1165  0.2978  0.2419
  947POPC   D2A14196  15.325   3.826   6.330  0.1760  0.2641  0.0324
  947POPC   C3A14197  15.498   3.691   6.662 -0.0888  0.2289 -0.1744
  947POPC   C4A14198  15.866   3.612   6.963  0.1246  0.2372 -0.0190
  947POPC   C1B14199  15.199   4.379   6.078 -0.0238  0.0131 -0.1499
  947POPC   C2B14200  15.260   4.349   6.486 -0.2949  0.2481  0.0311
  947POPC   C3B14201  15.213   4.097   6.724 -0.0621 -0.0806 -0.0515
  947POPC   C4B14202  14.813   3.821   6.612  0.0511 -0.3514 -0.1701
  948POPC   NC314203  14.240   1.675   5.521  0.3367  0.1045  0.0302
  948POPC   PO414204  13.956   2.012   5.587 -0.1483 -0.2387 -0.1115
  948POPC   GL114205  14.012   1.761   5.938  0.1613  0.0784  0.0484
  948POPC   GL214206  14.336   1.640   6.057 -0.0058  0.0401 -0.0338
  948POPC   C1A14207  13.798   1.820   6.269 -0.4312  0.0190 -0.3384
  948POPC   D2A14208  13.726   1.496   6.547 -0.2362  0.0114  0.1130
  948POPC   C3A14209  13.301   1.509   6.751  0.3001 -0.0255  0.1703
  948POPC   C4A14210  13.003   1.200   6.900 -0.2318 -0.1759  0.0072
  948POPC   C1B14211  14.205   1.378   6.382 -0.1177 -0.0922  0.2195
  948POPC   C2B14212  14.195   1.457   6.749  0.1155  0.4504 -0.0194
  948POPC   C3B14213  14.033   1.527   7.146 -0.0380 -0.3014 -0.1409
  948POPC   C4B14214  13.939   1.320   7.528  0.0204 -0.1208  0.1270
  949POPC   NC314215   2.616   4.418   5.523 -0.1603 -0.0037 -0.0966
  949POPC   PO414216   2.370   4.130   5.534  0.0478 -0.0574 -0.0416
  949POPC   GL114217   2.211   4.359   5.859 -0.0162 -0.3195 -0.3727
  949POPC   GL214218   2.276   4.709   5.854  0.2211 -0.1013 -0.1618
  949POPC   C1A14219   1.919   4.442   6.194  0.2002  0.1984  0.4706
  949POPC   D2A14220   1.751   4.360   6.588  0.0556 -0.0234  0.2061
  949POPC   C3A14221   1.509   4.673   6.859  0.1640  0.0013  0.1737
  949POPC   C4A14222   1.219   4.555   7.247 -0.1984 -0.0046  0.0867
  949POPC   C1B14223   2.310   4.714   6.295  0.0538  0.0581  0.4663
  949POPC   C2B14224   2.572   4.858   6.599  0.0116 -0.1105 -0.0678
  949POPC   C3B14225   2.638   5.250   6.825 -0.1185 -0.1474  0.2237
  949POPC   C4B14226   2.605   5.614   7.000 -0.0100 -0.2102 -0.0349
  950POPC   NC314227   0.585  12.769   5.621 -0.0616 -0.2664 -0.0340
  950POPC   PO414228   0.682  12.905   5.949 -0.1667 -0.1504  0.0604
  950POPC   GL114229   0.818  12.548   6.033 -0.1864 -0.0886 -0.0425
  950POPC   GL214230   1.271  12.525   6.119 -0.1879  0.3396  0.0925
  950POPC   C1A14231   0.808  12.335   6.440  0.2478  0.0804 -0.0538
  950POPC   D2A14232   0.595  12.043   6.723  0.1005 -0.3807 -0.1911
  950POPC   C3A14233   0.598  11.644   6.884  0.0012 -0.1331 -0.1500
  950POPC   C4A14234   0.770  11.443   7.173  0.2195 -0.0812 -0.1630
  950POPC   C1B14235   1.335  12.316   6.473 -0.2861 -0.2141  0.0802
  950POPC   C2B14236   1.064  12.262   6.925  0.1599 -0.0443 -0.0351
  950POPC   C3B14237   0.911  12.468   7.287  0.0784  0.2170  0.1549
  950POPC   C4B14238   0.821  12.467   7.700 -0.2380  0.1068 -0.0252
  951POPC   NC314239  11.377  17.175   5.361 -0.0436  0.1112  0.2460
  951POPC   PO414240  11.256  17.037   5.800 -0.1500  0.3518 -0.0011
  951POPC   GL114241  11.122  16.967   6.195  0.1175 -0.0408 -0.0129
  951POPC   GL214242  10.908  16.779   6.229  0.3035 -0.0696  0.1299
  951POPC   C1A14243  11.038  17.105   6.581  0.1027 -0.1621 -0.1708
  951POPC   D2A14244  11.071  17.143   6.943  0.2015 -0.0705  0.1331
  951POPC   C3A14245  10.781  17.039   7.246 -0.3374  0.1744 -0.0264
  951POPC   C4A14246  10.624  17.140   7.561 -0.0100 -0.3203  0.0609
  951POPC   C1B14247  10.751  16.694   6.618 -0.0720  0.1116 -0.2422
  951POPC   C2B14248  10.669  16.633   7.011 -0.0679  0.0126 -0.2752
  951POPC   C3B14249  10.413  16.736   7.386  0.0657 -0.0974  0.2494
  951POPC   C4B14250  10.220  16.905   7.714  0.0757 -0.1461 -0.1653
  952POPC   NC314251  10.113  18.220   5.853 -0.1344 -0.3132 -0.2181
  952POPC   PO414252   9.698  18.487   5.791 -0.4178  0.0918 -0.3436
  952POPC   GL114253   9.929  18.762   6.141 -0.0331 -0.0773 -0.0457
  952POPC   GL214254  10.221  18.614   6.324 -0.0682 -0.0433 -0.2366
  952POPC   C1A14255   9.834  18.861   6.529 -0.3167  0.2594 -0.3142
  952POPC   D2A14256   9.832  18.947   7.004  0.2247 -0.0934  0.1161
  952POPC   C3A14257  10.068  19.301   7.164 -0.3280 -0.0919  0.0839
  952POPC   C4A14258  10.369  19.384   7.462 -0.0135  0.0829  0.0082
  952POPC   C1B14259  10.250  18.700   6.828 -0.2590 -0.4773  0.0540
  952POPC   C2B14260  10.418  18.900   7.201  0.3112 -0.1900  0.1194
  952POPC   C3B14261  10.659  19.028   7.586 -0.0172  0.1653  0.1543
  952POPC   C4B14262  10.940  19.049   7.905  0.0432  0.0225  0.1544
  953POPC   NC314263   2.198   0.373   5.527 -0.1278  0.0066  0.2280
  953POPC   PO414264   1.891   0.169   5.757  0.0122  0.1709  0.2787
  953POPC   GL114265   1.580   0.313   6.032 -0.0136  0.2209 -0.4054
  953POPC   GL214266   1.302   0.108   6.076  0.0659 -0.0090 -0.2446
  953POPC   C1A14267   1.358   0.621   6.305 -0.0971  0.1040 -0.1907
  953POPC   D2A14268   1.465   1.002   6.565 -0.0130 -0.0329  0.3629
  953POPC   C3A14269   1.809   1.394   6.400 -0.0604 -0.1129  0.3284
  953POPC   C4A14270   2.058   1.726   6.534  0.2898  0.1164  0.0925
  953POPC   C1B14271   1.512   0.122   6.488 -0.0612  0.0621  0.0385
  953POPC   C2B14272   1.447  -0.034   6.912 -0.2955 -0.0537 -0.2000
  953POPC   C3B14273   1.370   0.150   7.334 -0.0416  0.2445  0.1439
  953POPC   C4B14274   1.119   0.507   7.375 -0.0618  0.3205 -0.1172
  954POPC   NC314275   4.591  14.654   5.621  0.4757 -0.1334 -0.0097
  954POPC   PO414276   4.630  14.697   6.034  0.0929  0.2935  0.2648
  954POPC   GL114277   4.717  14.844   6.493 -0.0414  0.0029 -0.0045
  954POPC   GL214278   4.505  15.046   6.552  0.2083  0.3363  0.0371
  954POPC   C1A14279   4.754  14.952   7.013  0.1680 -0.0461  0.2159
  954POPC   D2A14280   4.488  15.039   7.269 -0.0095 -0.1843 -0.1466
  954POPC   C3A14281   4.530  14.862   7.684 -0.0460 -0.3756  0.1441
  954POPC   C4A14282   4.582  15.130   8.013  0.2032  0.1263 -0.1907
  954POPC   C1B14283   4.268  14.831   6.849  0.2359 -0.0605 -0.3069
  954POPC   C2B14284   4.091  14.766   7.141  0.1719  0.0082 -0.1656
  954POPC   C3B14285   4.078  14.581   7.592 -0.3204 -0.2123  0.1246
  954POPC   C4B14286   4.196  14.379   7.924  0.4887 -0.0364  0.2550
  955POPC   NC314287  16.692   4.896   5.447  0.1332  0.0102 -0.1761
  955POPC   PO414288  16.360   4.709   5.554  0.2466  0.0810  0.1039
  955POPC   GL114289  16.346   4.889   5.932  0.0793 -0.2010  0.2910
  955POPC   GL214290  16.639   5.134   5.850 -0.0567  0.1301 -0.1037
  955POPC   C1A14291  16.240   4.944   6.403 -0.0341  0.2800 -0.0311
  955POPC   D2A14292  16.460   5.207   6.738 -0.2258 -0.2359  0.0154
  955POPC   C3A14293  16.644   4.990   7.147 -0.3492 -0.0382  0.2230
  955POPC   C4A14294  16.959   4.981   7.505  0.2198  0.2268  0.4521
  955POPC   C1B14295  16.940   5.001   6.193  0.2635  0.2967  0.0649
  955POPC   C2B14296  17.026   4.830   6.637  0.0266  0.2012 -0.0629
  955POPC   C3B14297  17.156   5.019   7.007  0.0544 -0.0743  0.1400
  955POPC   C4B14298  17.296   5.327   7.309 -0.4059 -0.0773 -0.1463
  956POPC   NC314299   4.744   2.486   5.011 -0.0551  0.0373  0.0412
  956POPC   PO414300   4.789   2.678   5.409  0.0121 -0.1031 -0.3294
  956POPC   GL114301   4.944   2.675   5.805  0.0504  0.0916 -0.2372
  956POPC   GL214302   4.743   2.955   5.930 -0.0494 -0.1233  0.0054
  956POPC   C1A14303   5.036   2.723   6.267  0.1779 -0.1048  0.0812
  956POPC   D2A14304   4.926   2.857   6.686  0.2105  0.1864 -0.1470
  956POPC   C3A14305   4.948   2.836   7.122  0.1434 -0.1763 -0.1256
  956POPC   C4A14306   4.681   2.621   7.404 -0.4714  0.1931 -0.0475
  956POPC   C1B14307   4.551   2.778   6.267 -0.0705  0.0816 -0.2308
  956POPC   C2B14308   4.380   2.630   6.743  0.4142  0.4618  0.0271
  956POPC   C3B14309   4.070   2.843   6.914 -0.0436  0.5003  0.1443
  956POPC   C4B14310   3.989   2.870   7.301  0.1582  0.2324 -0.0027
  957POPC   NC314311  15.403   6.723   5.617  0.0425  0.3330  0.1259
  957POPC   PO414312  15.041   6.647   5.499 -0.2209 -0.2615 -0.1826
  957POPC   GL114313  15.023   6.422   5.866  0.0872  0.0839  0.0196
  957POPC   GL214314  15.305   6.345   5.908 -0.0100  0.1679  0.0008
  957POPC   C1A14315  14.964   6.224   6.331 -0.1233  0.0909  0.1738
  957POPC   D2A14316  14.821   6.414   6.844 -0.0091  0.1236  0.1153
  957POPC   C3A14317  14.730   6.559   7.200  0.1085 -0.2072  0.2350
  957POPC   C4A14318  14.662   6.376   7.525 -0.1291 -0.2368 -0.0944
  957POPC   C1B14319  15.580   6.565   6.227 -0.0973  0.1277 -0.0342
  957POPC   C2B14320  15.800   6.466   6.585 -0.4719 -0.2027 -0.2970
  957POPC   C3B14321  15.783   6.723   7.027 -0.1684 -0.2072  0.1155
  957POPC   C4B14322  15.722   7.093   7.329  0.2487 -0.1268 -0.0472
  958POPC   NC314323  14.636  14.834   5.809  0.1625  0.0880  0.0050
  958POPC   PO414324  15.077  14.617   5.896  0.3000  0.0402  0.3038
  958POPC   GL114325  15.003  14.694   6.349 -0.0354  0.1445  0.2603
  958POPC   GL214326  14.717  14.622   6.274  0.1341  0.0878 -0.2557
  958POPC   C1A14327  14.999  14.676   6.802 -0.0922 -0.0259  0.0301
  958POPC   D2A14328  15.083  14.821   7.187  0.1639  0.1741 -0.1123
  958POPC   C3A14329  15.160  15.225   7.326  0.2969 -0.0418 -0.0958
  958POPC   C4A14330  15.093  15.335   7.744 -0.0367  0.1208  0.2271
  958POPC   C1B14331  14.646  14.381   6.582  0.1752 -0.1804  0.0919
  958POPC   C2B14332  14.661  14.356   7.015  0.1764  0.1965  0.0892
  958POPC   C3B14333  14.759  14.453   7.439 -0.3029 -0.1951 -0.0765
  958POPC   C4B14334  14.580  14.517   7.892  0.1328 -0.0321 -0.1018
  959POPC   NC314335  17.032  16.580   5.925 -0.1435  0.1472  0.2952
  959POPC   PO414336  16.833  16.252   5.918 -0.0301  0.1682 -0.1463
  959POPC   GL114337  17.049  16.268   6.334  0.0946  0.1387 -0.0813
  959POPC   GL214338  17.216  15.992   6.336  0.4069 -0.0365  0.0109
  959POPC   C1A14339  16.872  16.403   6.717  0.1932  0.1133 -0.1559
  959POPC   D2A14340  16.761  16.450   7.102 -0.0272  0.0032  0.0630
  959POPC   C3A14341  16.491  16.670   7.382 -0.2724  0.1877 -0.1877
  959POPC   C4A14342  16.157  16.495   7.802  0.3079  0.4527  0.2956
  959POPC   C1B14343  17.315  16.076   6.747 -0.0541  0.0184  0.2247
  959POPC   C2B14344  17.294  16.376   7.108  0.1702 -0.2214  0.0894
  959POPC   C3B14345  17.160  16.713   7.397  0.1940 -0.0204 -0.1337
  959POPC   C4B14346  16.867  16.899   7.638  0.3222 -0.0398 -0.0036
  960POPC   NC314347   8.502  18.105   5.895  0.1471  0.1225  0.0175
  960POPC   PO414348   8.230  17.699   6.078  0.0438 -0.0295  0.3201
  960POPC   GL114349   8.198  17.877   6.451 -0.1609 -0.2246  0.0353
  960POPC   GL214350   8.017  18.119   6.418  0.2018 -0.0942 -0.1951
  960POPC   C1A14351   8.325  17.808   6.826 -0.1032  0.0508 -0.3390
  960POPC   D2A14352   8.414  17.480   7.115  0.3402  0.1248 -0.0306
  960POPC   C3A14353   8.714  17.116   7.147 -0.2126 -0.0989 -0.0120
  960POPC   C4A14354   8.866  17.164   7.599  0.2752 -0.3143 -0.0084
  960POPC   C1B14355   7.868  18.027   6.865 -0.2560 -0.0587 -0.0503
  960POPC   C2B14356   7.916  17.937   7.189 -0.0323  0.0742  0.0601
  960POPC   C3B14357   8.205  17.845   7.402  0.0075 -0.1042  0.0379
  960POPC   C4B14358   8.388  17.964   7.796 -0.2306  0.1744 -0.0441
  961POPC   NC314359   9.864   1.335   5.425 -0.0523 -0.0910  0.0297
  961POPC   PO414360  10.139   1.606   5.765 -0.2767 -0.2107  0.3115
  961POPC   GL114361  10.406   1.796   5.948  0.0222  0.1657  0.2001
  961POPC   GL214362  10.548   2.048   6.109  0.0536  0.1925 -0.0812
  961POPC   C1A14363  10.349   1.706   6.380 -0.1752  0.2156  0.1367
  961POPC   D2A14364  10.424   1.945   6.720 -0.1077 -0.2622 -0.1596
  961POPC   C3A14365  10.581   1.787   7.031  0.0693 -0.2612  0.0626
  961POPC   C4A14366  10.875   1.815   7.372 -0.2370  0.0829  0.2775
  961POPC   C1B14367  10.489   2.418   6.415 -0.2896 -0.3660 -0.1665
  961POPC   C2B14368  10.504   2.831   6.619  0.0724 -0.1046  0.3126
  961POPC   C3B14369  10.617   2.942   7.015  0.1183  0.1953 -0.0145
  961POPC   C4B14370  10.456   2.932   7.433 -0.0631 -0.0158  0.0500
  962POPC   NC314371   8.494   0.858   5.721 -0.2051  0.0131 -0.0252
  962POPC   PO414372   8.668   1.306   5.914  0.0770 -0.0664  0.1299
  962POPC   GL114373   8.934   1.152   6.248 -0.1614 -0.0165 -0.0017
  962POPC   GL214374   9.126   0.977   6.100  0.0595 -0.2135 -0.2210
  962POPC   C1A14375   8.971   1.013   6.622  0.1011 -0.0973 -0.1342
  962POPC   D2A14376   9.051   0.921   6.993  0.2815 -0.1745 -0.1000
  962POPC   C3A14377   8.761   0.854   7.397 -0.0566  0.0796 -0.1172
  962POPC   C4A14378   8.488   1.121   7.664 -0.0226 -0.0215  0.5978
  962POPC   C1B14379   9.370   0.671   6.419  0.1030  0.0307 -0.0101
  962POPC   C2B14380   9.520   0.858   6.780 -0.1177  0.0313 -0.1072
  962POPC   C3B14381   9.546   1.042   7.125 -0.3748  0.1182 -0.2515
  962POPC   C4B14382   9.429   1.311   7.429 -0.3610 -0.1034  0.0837
  963POPC   NC314383  18.336  15.627   6.054  0.0513  0.1267  0.0450
  963POPC   PO414384  18.743  15.591   6.121 -0.0307  0.0305  0.1385
  963POPC   GL114385  18.946  15.425   6.518  0.0476  0.0220 -0.1468
  963POPC   GL214386  18.866  15.046   6.567 -0.0256  0.0988  0.0292
  963POPC   C1A14387  19.270  15.444   6.839 -0.0529 -0.3328 -0.1818
  963POPC   D2A14388  19.588  15.531   7.152  0.0602  0.0682  0.1682
  963POPC   C3A14389  19.741  15.702   7.512 -0.2098  0.1081  0.0519
  963POPC   C4A14390  20.137  15.704   7.667  0.1683 -0.1728  0.1556
  963POPC   C1B14391  18.785  15.194   6.934 -0.1066 -0.0086  0.2204
  963POPC   C2B14392  18.987  15.437   7.228 -0.0090  0.0215 -0.0972
  963POPC   C3B14393  19.282  15.549   7.650 -0.0730 -0.0154 -0.3201
  963POPC   C4B14394  19.539  15.549   7.961  0.0689 -0.0553  0.2748
  964POPC   NC314395   9.998  16.399   5.807 -0.1712 -0.0373 -0.0107
  964POPC   PO414396   9.875  16.818   5.957 -0.4304 -0.1766 -0.0038
  964POPC   GL114397   9.802  16.986   6.331  0.1782 -0.0557  0.1411
  964POPC   GL214398   9.487  16.791   6.403 -0.3909  0.1352 -0.1909
  964POPC   C1A14399   9.830  17.121   6.733 -0.1397 -0.0922 -0.2363
  964POPC   D2A14400  10.152  17.121   7.084 -0.1439 -0.0075 -0.0098
  964POPC   C3A14401  10.032  17.301   7.454  0.0056 -0.0205 -0.0417
  964POPC   C4A14402   9.611  17.235   7.575 -0.2546 -0.1979 -0.1534
  964POPC   C1B14403   9.624  16.677   6.703  0.0757 -0.0076  0.0074
  964POPC   C2B14404   9.677  16.803   7.115 -0.2927 -0.2893  0.0920
  964POPC   C3B14405   9.709  16.777   7.427 -0.1163  0.4009 -0.0709
  964POPC   C4B14406   9.669  16.828   7.892  0.0577  0.1626  0.0965
  965POPC   NC314407  16.865  15.402   5.801  0.0892  0.3188  0.2274
  965POPC   PO414408  17.139  15.185   5.996 -0.1590  0.4312  0.2029
  965POPC   GL114409  17.032  15.181   6.358 -0.0402  0.1194 -0.1572
  965POPC   GL214410  16.958  14.927   6.373 -0.0056 -0.1356 -0.2051
  965POPC   C1A14411  17.014  15.262   6.837  0.0577  0.2027  0.0061
  965POPC   D2A14412  16.873  15.479   7.158 -0.0232  0.0612  0.0992
  965POPC   C3A14413  16.576  15.697   7.487  0.0450 -0.1332 -0.1124
  965POPC   C4A14414  16.470  15.823   7.867 -0.2502 -0.1708 -0.1336
  965POPC   C1B14415  16.798  14.715   6.691  0.0677 -0.2406 -0.2438
  965POPC   C2B14416  16.829  14.503   7.059  0.3164  0.2489  0.1703
  965POPC   C3B14417  16.976  14.522   7.478 -0.2368  0.3630  0.0387
  965POPC   C4B14418  16.808  14.747   7.812  0.2223  0.0298 -0.3150
  966POPC   NC314419  12.682   8.599   5.796 -0.0261 -0.4214  0.1781
  966POPC   PO414420  12.903   8.967   6.029  0.1959 -0.2393 -0.4315
  966POPC   GL114421  12.723   9.155   6.393 -0.2246 -0.3216 -0.0635
  966POPC   GL214422  13.021   9.170   6.559  0.0893  0.0470  0.2677
  966POPC   C1A14423  12.498   9.217   6.718  0.2781 -0.1553  0.2224
  966POPC   D2A14424  12.423   9.313   7.157 -0.4244 -0.2948  0.1346
  966POPC   C3A14425  12.250   8.988   7.494  0.1547 -0.3402  0.2235
  966POPC   C4A14426  12.382   8.883   7.890 -0.0041  0.0900  0.2758
  966POPC   C1B14427  13.007   9.215   7.075  0.1624  0.4120 -0.2439
  966POPC   C2B14428  13.368   9.154   7.399 -0.2796  0.0005 -0.2572
  966POPC   C3B14429  13.567   9.086   7.760  0.3261 -0.2495  0.0806
  966POPC   C4B14430  13.242   9.027   8.096  0.1692  0.2269 -0.0947
  967POPC   NC314431  12.560   2.452   5.199 -0.0878 -0.1313  0.2319
  967POPC   PO414432  12.891   2.490   5.427  0.0689 -0.0807  0.1201
  967POPC   GL114433  12.914   2.381   5.847 -0.1456  0.0839  0.0510
  967POPC   GL214434  13.110   2.673   5.829 -0.2152  0.2666 -0.2739
  967POPC   C1A14435  12.652   2.537   6.246 -0.1721 -0.0265 -0.2892
  967POPC   D2A14436  12.485   2.509   6.607  0.1343 -0.1943 -0.0963
  967POPC   C3A14437  12.304   2.187   6.760  0.1448  0.1582 -0.2858
  967POPC   C4A14438  12.456   1.847   7.152  0.0832 -0.2795  0.1863
  967POPC   C1B14439  13.015   2.904   6.211 -0.2629 -0.0389  0.1356
  967POPC   C2B14440  13.027   3.167   6.507  0.1337  0.1679  0.2636
  967POPC   C3B14441  12.896   3.675   6.490  0.1201 -0.0739  0.0715
  967POPC   C4B14442  12.505   3.926   6.334 -0.0455 -0.1925  0.0937
  968POPC   NC314443   3.148  13.057   6.139 -0.0352 -0.2357 -0.0225
  968POPC   PO414444   2.948  13.410   6.080  0.1428 -0.1123  0.4204
  968POPC   GL114445   2.705  13.241   6.406 -0.0346 -0.2548 -0.2765
  968POPC   GL214446   2.514  13.480   6.470  0.1115 -0.0382 -0.0464
  968POPC   C1A14447   2.604  13.045   6.861 -0.2689  0.0615  0.0808
  968POPC   D2A14448   2.411  12.940   7.257  0.1489  0.0137 -0.1524
  968POPC   C3A14449   2.409  12.628   7.523  0.1693 -0.2563  0.4201
  968POPC   C4A14450   2.458  12.395   7.944  0.0215  0.0661 -0.0050
  968POPC   C1B14451   2.712  13.660   6.896 -0.1550 -0.2245  0.1201
  968POPC   C2B14452   2.911  13.969   6.982 -0.5109 -0.0734  0.2726
  968POPC   C3B14453   3.228  14.187   7.211  0.0742 -0.3793 -0.0340
  968POPC   C4B14454   3.313  14.330   7.584  0.5068  0.3076  0.0570
  969POPC   NC314455  13.561   4.575   5.531 -0.0482 -0.2150 -0.2830
  969POPC   PO414456  13.641   4.118   5.458 -0.5154 -0.3266  0.0968
  969POPC   GL114457  13.576   4.186   5.891  0.0165  0.1993  0.1496
  969POPC   GL214458  13.479   3.937   6.108 -0.0904  0.1564  0.0063
  969POPC   C1A14459  13.529   4.418   6.213  0.0249 -0.2979 -0.3234
  969POPC   D2A14460  13.471   4.419   6.629  0.1915 -0.0012  0.0532
  969POPC   C3A14461  13.593   4.799   6.761  0.0817 -0.1564  0.0567
  969POPC   C4A14462  13.539   5.017   7.078  0.0315  0.2289 -0.1990
  969POPC   C1B14463  13.267   4.011   6.480  0.1772 -0.4169 -0.2528
  969POPC   C2B14464  13.397   4.070   6.921 -0.1203 -0.1416 -0.0159
  969POPC   C3B14465  13.501   3.960   7.356 -0.3288 -0.1201  0.0739
  969POPC   C4B14466  13.991   3.865   7.546  0.3348  0.0929 -0.0612
  970POPC   NC314467   7.155  10.204   5.453 -0.1827 -0.1434  0.0208
  970POPC   PO414468   7.266  10.498   5.767  0.0582 -0.0818  0.0606
  970POPC   GL114469   7.446  10.571   6.207  0.1819  0.1992  0.3177
  970POPC   GL214470   7.216  10.782   6.392  0.1706  0.2910 -0.2628
  970POPC   C1A14471   7.787  10.752   6.476  0.3127 -0.0468  0.2081
  970POPC   D2A14472   7.934  10.858   6.816  0.2868 -0.1089 -0.3433
  970POPC   C3A14473   7.816  11.101   7.243 -0.0717  0.2137 -0.4461
  970POPC   C4A14474   8.086  11.527   7.205  0.2369 -0.1806 -0.0961
  970POPC   C1B14475   7.227  10.584   6.781  0.1814 -0.1383  0.0069
  970POPC   C2B14476   6.969  10.496   7.129 -0.3289 -0.1523 -0.3330
  970POPC   C3B14477   6.809  10.495   7.553 -0.1032  0.1960  0.0094
  970POPC   C4B14478   6.741  10.530   8.042  0.1380 -0.3230  0.1356
  971POPC   NC314479   7.706   3.073   5.835  0.2783  0.2208  0.0804
  971POPC   PO414480   7.769   3.532   5.820  0.1231  0.2341 -0.0686
  971POPC   GL114481   7.674   3.353   6.223 -0.1542 -0.1499 -0.0984
  971POPC   GL214482   7.730   3.004   6.302 -0.1463 -0.0978 -0.0461
  971POPC   C1A14483   7.380   3.362   6.524  0.2406  0.2005  0.2329
  971POPC   D2A14484   7.473   3.423   6.992 -0.1400 -0.0548 -0.0049
  971POPC   C3A14485   7.119   3.520   7.119 -0.2184 -0.1242  0.0381
  971POPC   C4A14486   6.679   3.352   7.010 -0.0085  0.2433 -0.2746
  971POPC   C1B14487   7.824   3.071   6.678 -0.1913  0.1058 -0.2009
  971POPC   C2B14488   7.834   3.047   7.099  0.0981  0.2032 -0.0514
  971POPC   C3B14489   7.908   2.936   7.446  0.1585  0.0837 -0.0403
  971POPC   C4B14490   7.965   2.498   7.752 -0.0678 -0.0635 -0.2111
  972POPC   NC314491   8.880   5.763   5.881 -0.4911 -0.0343  0.2653
  972POPC   PO414492   9.196   5.446   5.839 -0.0544  0.4121  0.0872
  972POPC   GL114493   9.025   5.355   6.272  0.0979 -0.1421 -0.1453
  972POPC   GL214494   9.067   5.646   6.348  0.0651 -0.2589  0.0857
  972POPC   C1A14495   9.074   5.274   6.718  0.0626  0.1427  0.4765
  972POPC   D2A14496   8.924   5.456   7.101  0.0711  0.2268  0.2198
  972POPC   C3A14497   8.584   5.399   7.443  0.1121 -0.0198 -0.1363
  972POPC   C4A14498   8.398   5.019   7.532  0.3002 -0.4059 -0.2334
  972POPC   C1B14499   9.147   5.787   6.710  0.1393  0.0730 -0.3348
  972POPC   C2B14500   9.097   5.907   7.070  0.1127  0.1686  0.0409
  972POPC   C3B14501   9.258   6.126   7.408  0.0998  0.0334 -0.0039
  972POPC   C4B14502   9.468   6.409   7.792 -0.3656  0.0654  0.3020
  973POPC   NC314503  14.069   7.808   5.242 -0.0618 -0.1223 -0.3490
  973POPC   PO414504  13.603   7.825   5.264  0.0512 -0.2223 -0.3382
  973POPC   GL114505  13.536   7.911   5.600 -0.2771  0.4281 -0.0571
  973POPC   GL214506  13.430   7.782   5.909 -0.0254  0.1442 -0.1612
  973POPC   C1A14507  13.735   8.162   5.985  0.1437  0.1663 -0.0000
  973POPC   D2A14508  13.645   8.568   6.314  0.3556 -0.0588 -0.3944
  973POPC   C3A14509  13.614   8.572   6.727 -0.1146 -0.0887  0.0555
  973POPC   C4A14510  13.610   8.855   7.081  0.2270  0.2967 -0.0163
  973POPC   C1B14511  13.644   7.754   6.284  0.0545 -0.0167 -0.0440
  973POPC   C2B14512  13.966   7.867   6.589 -0.3680  0.2942 -0.0666
  973POPC   C3B14513  14.271   7.867   6.980  0.0479 -0.3177 -0.1691
  973POPC   C4B14514  14.596   7.837   7.350 -0.0769 -0.0268 -0.3024
  974POPC   NC314515  12.996   7.904   5.407  0.2896  0.1989  0.2171
  974POPC   PO414516  12.923   8.327   5.476  0.0764  0.1740  0.0195
  974POPC   GL114517  12.995   8.100   5.851  0.0685  0.1169 -0.2359
  974POPC   GL214518  12.982   8.324   6.009 -0.3049 -0.1010 -0.0668
  974POPC   C1A14519  12.756   8.038   6.301 -0.1114  0.1846 -0.1413
  974POPC   D2A14520  12.979   8.068   6.697 -0.1891 -0.2106  0.2935
  974POPC   C3A14521  12.751   8.117   7.112  0.4370  0.1248 -0.4483
  974POPC   C4A14522  12.648   8.405   7.400 -0.2150 -0.0026 -0.1099
  974POPC   C1B14523  13.294   8.143   6.223  0.2127  0.0471 -0.1051
  974POPC   C2B14524  13.502   8.134   6.668  0.3763  0.3274 -0.0006
  974POPC   C3B14525  13.758   8.127   7.049 -0.1061  0.2039  0.1360
  974POPC   C4B14526  13.989   7.969   7.405 -0.1519 -0.3111 -0.1429
  975POPC   NC314527   3.678   1.314   5.801  0.0382 -0.2019 -0.1727
  975POPC   PO414528   3.984   0.999   5.834 -0.1954  0.0973  0.1245
  975POPC   GL114529   3.959   1.080   6.237  0.0044  0.0358 -0.2976
  975POPC   GL214530   3.743   1.263   6.345  0.0162  0.0993 -0.1519
  975POPC   C1A14531   4.008   0.966   6.720 -0.2969 -0.1546 -0.3891
  975POPC   D2A14532   3.988   1.141   7.102 -0.3515  0.0886 -0.1424
  975POPC   C3A14533   4.438   1.049   7.238  0.1007  0.0627 -0.2496
  975POPC   C4A14534   4.756   1.447   7.460  0.2309 -0.1250 -0.0924
  975POPC   C1B14535   3.887   1.469   6.744  0.2365  0.0598  0.0847
  975POPC   C2B14536   4.024   1.694   7.144 -0.3729 -0.1023 -0.1320
  975POPC   C3B14537   4.148   1.905   7.542 -0.2872 -0.0609  0.0118
  975POPC   C4B14538   4.491   1.892   7.872 -0.0140  0.1588  0.1218
  976POPC   NC314539  10.847   5.825   5.142  0.2654  0.1092  0.0759
  976POPC   PO414540  10.837   5.493   5.491  0.0822  0.0137 -0.3252
  976POPC   GL114541  10.766   5.184   5.854 -0.1535 -0.2144  0.0891
  976POPC   GL214542  10.519   5.041   5.949 -0.1327  0.1582 -0.0816
  976POPC   C1A14543  10.905   5.328   6.206  0.1092 -0.1608  0.0212
  976POPC   D2A14544  10.894   5.371   6.700 -0.0584  0.0857 -0.0349
  976POPC   C3A14545  11.382   5.358   6.867  0.2585 -0.2029 -0.1308
  976POPC   C4A14546  11.402   5.321   7.359  0.2119  0.0698  0.3166
  976POPC   C1B14547  10.740   4.927   6.412  0.0153  0.1542 -0.2266
  976POPC   C2B14548  10.521   5.033   6.860 -0.0064  0.0869 -0.1646
  976POPC   C3B14549  10.160   4.870   6.961  0.1827  0.1219  0.0969
  976POPC   C4B14550   9.757   4.866   7.009  0.2179 -0.0792  0.3070
  977POPC   NC314551   6.852  14.753   5.933 -0.0411 -0.1968  0.2088
  977POPC   PO414552   6.980  15.053   6.233 -0.5200 -0.3652  0.0560
  977POPC   GL114553   6.752  15.038   6.687 -0.5814  0.1293  0.0065
  977POPC   GL214554   6.424  15.180   6.785  0.1914  0.0469 -0.0584
  977POPC   C1A14555   6.652  14.864   7.067 -0.0469 -0.0360 -0.0452
  977POPC   D2A14556   6.174  14.816   7.173  0.3970 -0.0599  0.1095
  977POPC   C3A14557   5.949  15.209   7.234 -0.1097 -0.1140  0.2892
  977POPC   C4A14558   5.831  15.251   7.652 -0.0587 -0.2454  0.0500
  977POPC   C1B14559   6.441  15.455   7.070 -0.3041  0.0011 -0.3519
  977POPC   C2B14560   6.232  15.611   7.496 -0.0787 -0.1604 -0.0522
  977POPC   C3B14561   6.123  15.882   7.762  0.2508 -0.2605 -0.4030
  977POPC   C4B14562   5.759  16.048   7.892  0.0676 -0.0779  0.0260
  978POPC   NC314563   3.220  14.185   6.016 -0.3107 -0.2254 -0.3026
  978POPC   PO414564   3.257  14.688   5.973  0.0703  0.0356  0.3167
  978POPC   GL114565   2.946  14.600   6.347  0.2716 -0.1492 -0.0476
  978POPC   GL214566   2.722  14.434   6.301  0.1385  0.0177  0.1525
  978POPC   C1A14567   3.015  14.378   6.732  0.0308 -0.4411 -0.0983
  978POPC   D2A14568   2.708  14.466   7.038  0.2443 -0.0825 -0.2063
  978POPC   C3A14569   2.781  14.237   7.390 -0.2252  0.1321 -0.2436
  978POPC   C4A14570   3.080  13.912   7.659  0.3598  0.1508  0.2934
  978POPC   C1B14571   2.565  14.784   6.645  0.2423 -0.0045  0.2560
  978POPC   C2B14572   2.639  15.001   7.019  0.2175 -0.0323  0.2605
  978POPC   C3B14573   2.394  15.098   7.383 -0.1337 -0.2243  0.0823
  978POPC   C4B14574   2.227  15.049   7.864 -0.1958 -0.0382  0.2691
  979POPC   NC314575  18.207   2.450   5.439 -0.0443  0.1682  0.2609
  979POPC   PO414576  18.530   2.162   5.544 -0.0784 -0.1039  0.0506
  979POPC   GL114577  18.303   2.126   5.921 -0.1688 -0.1152  0.1419
  979POPC   GL214578  18.405   2.079   6.254  0.0226  0.0428  0.1359
  979POPC   C1A14579  17.966   2.356   6.273 -0.0489 -0.3252 -0.0587
  979POPC   D2A14580  17.810   2.294   6.675  0.0450  0.0296 -0.3652
  979POPC   C3A14581  17.664   2.038   6.943 -0.1524  0.0503  0.0554
  979POPC   C4A14582  17.800   1.810   7.312  0.2250  0.0857 -0.2513
  979POPC   C1B14583  18.495   2.200   6.580 -0.1154 -0.1656  0.1177
  979POPC   C2B14584  18.758   2.429   6.894  0.4456  0.2381 -0.2189
  979POPC   C3B14585  19.096   2.556   7.248  0.1611 -0.0805  0.3277
  979POPC   C4B14586  18.878   2.962   7.268  0.3388  0.2318  0.3335
  980POPC   NC314587  15.952  14.850   5.453 -0.0584  0.0225 -0.0540
  980POPC   PO414588  16.020  15.257   5.646  0.3405 -0.3927  0.3284
  980POPC   GL114589  15.873  15.318   6.110 -0.1132 -0.1010  0.1088
  980POPC   GL214590  16.022  15.193   6.426 -0.4451 -0.0498  0.0308
  980POPC   C1A14591  15.707  15.590   6.419  0.0265  0.1672 -0.1284
  980POPC   D2A14592  15.849  15.722   6.882 -0.2191 -0.0687  0.1651
  980POPC   C3A14593  15.812  16.011   7.157 -0.3367 -0.2822 -0.0821
  980POPC   C4A14594  15.935  16.033   7.609 -0.1579  0.0010  0.3684
  980POPC   C1B14595  16.039  15.270   6.809  0.0326  0.0876  0.3157
  980POPC   C2B14596  16.006  15.397   7.204  0.2443  0.1977  0.1656
  980POPC   C3B14597  15.561  15.525   7.498 -0.1634 -0.0346 -0.1780
  980POPC   C4B14598  15.275  15.811   7.628 -0.1098 -0.1918 -0.1825
  981POPC   NC314599   8.821   4.120   5.869 -0.3049 -0.1049 -0.0737
  981POPC   PO414600   8.924   4.260   6.059  0.0541  0.1486  0.0675
  981POPC   GL114601   8.904   4.345   6.509 -0.1172 -0.1558  0.0569
  981POPC   GL214602   8.648   4.145   6.574  0.0323  0.1153  0.4517
  981POPC   C1A14603   9.178   4.061   6.817 -0.1421 -0.0404  0.0836
  981POPC   D2A14604   9.559   4.013   6.765 -0.1237  0.0497 -0.4261
  981POPC   C3A14605   9.766   3.966   7.200 -0.1453  0.4364 -0.0318
  981POPC   C4A14606   9.708   4.012   7.618  0.3547 -0.3383  0.0981
  981POPC   C1B14607   8.308   3.966   6.785 -0.0163  0.0763  0.1912
  981POPC   C2B14608   8.255   4.058   7.192  0.0268  0.2098 -0.4106
  981POPC   C3B14609   8.297   3.954   7.619  0.0588  0.4188  0.0811
  981POPC   C4B14610   8.180   4.169   8.088 -0.2748  0.1108  0.2903
  982POPC   NC314611   9.862   8.549   5.151 -0.3049 -0.1669  0.0196
  982POPC   PO414612   9.726   8.166   5.443 -0.0530 -0.2454  0.0315
  982POPC   GL114613   9.909   8.075   5.934  0.0502  0.3656 -0.1791
  982POPC   GL214614  10.083   7.778   6.124 -0.0685  0.0984  0.0358
  982POPC   C1A14615  10.152   8.370   6.227 -0.5611  0.1835 -0.1565
  982POPC   D2A14616  10.556   8.318   6.492  0.2709  0.2150 -0.0396
  982POPC   C3A14617  10.533   8.131   6.860  0.0663  0.0536  0.0938
  982POPC   C4A14618  10.638   7.835   6.949  0.1640 -0.2145  0.3396
  982POPC   C1B14619   9.869   8.116   6.500 -0.0378  0.0034  0.1054
  982POPC   C2B14620   9.802   8.143   6.886 -0.3472 -0.2322  0.3734
  982POPC   C3B14621   9.710   7.910   7.205  0.1501  0.0125 -0.3900
  982POPC   C4B14622   9.429   7.626   7.265  0.3243  0.0018  0.3951
  983POPC   NC314623  13.948  10.837   5.755 -0.1746 -0.4152  0.2261
  983POPC   PO414624  13.861  10.430   5.759  0.0224  0.2189 -0.1076
  983POPC   GL114625  13.877  10.191   6.100  0.1127 -0.0753 -0.2857
  983POPC   GL214626  14.203  10.364   6.145 -0.0579 -0.1273 -0.1006
  983POPC   C1A14627  13.972   9.965   6.375  0.1100 -0.0891  0.0228
  983POPC   D2A14628  13.774   9.900   6.745 -0.0625 -0.0026 -0.0337
  983POPC   C3A14629  13.871   9.956   7.149  0.1531 -0.0013 -0.1539
  983POPC   C4A14630  14.054   9.895   7.486  0.0280 -0.0583  0.2117
  983POPC   C1B14631  14.347  10.701   6.554  0.0194  0.2507  0.0541
  983POPC   C2B14632  14.124  10.872   6.837 -0.2949 -0.0960 -0.0156
  983POPC   C3B14633  13.999  11.163   7.052 -0.2441  0.1975  0.0873
  983POPC   C4B14634  13.672  11.489   7.136  0.2639 -0.0433 -0.0654
  984YOPC   NC314635  18.358   4.510   5.207 -0.3766  0.1914 -0.0235
  984YOPC   PO414636  18.091   4.232   5.107  0.0847 -0.0145 -0.0951
  984YOPC   GL114637  18.044   4.186   5.485  0.2476 -0.1018 -0.0185
  984YOPC   GL214638  18.138   3.866   5.588 -0.0082  0.0764 -0.0828
  984YOPC   C1A14639  17.925   4.296   5.849  0.0205 -0.0986  0.1045
  984YOPC   D2A14640  17.557   4.653   5.898  0.2648 -0.2026 -0.0894
  984YOPC   C3A14641  17.514   4.900   6.390  0.1087  0.0894  0.1321
  984YOPC   C4A14642  17.552   4.809   6.790  0.2919 -0.1130  0.1234
  984YOPC   C1B14643  18.179   3.488   5.810  0.2033  0.0462 -0.2139
  984YOPC   C2B14644  18.536   3.105   5.825 -0.1342  0.1239  0.1351
  984YOPC   D3B14645  18.728   3.045   6.222 -0.2878 -0.1110  0.0109
  984YOPC   C4B14646  18.552   3.137   6.657  0.1653 -0.1857 -0.0865
  985YOPC   NC314647   9.303   5.922   5.920  0.1653 -0.1101 -0.2510
  985YOPC   PO414648   9.656   6.031   5.793  0.2099 -0.1056 -0.1044
  985YOPC   GL114649   9.808   6.016   6.190 -0.1336 -0.0838 -0.0051
  985YOPC   GL214650   9.528   5.917   6.417 -0.0633  0.1312 -0.2406
  985YOPC   C1A14651   9.981   5.716   6.541  0.3141 -0.3181 -0.1372
  985YOPC   D2A14652  10.179   5.362   6.840  0.0591 -0.2919  0.0953
  985YOPC   C3A14653  10.519   5.551   7.110  0.1475  0.2493  0.2474
  985YOPC   C4A14654  10.894   5.385   7.223  0.0474  0.3340  0.0285
  985YOPC   C1B14655   9.634   6.041   6.897  0.2501  0.0849 -0.0230
  985YOPC   C2B14656   9.830   6.236   7.255  0.1739  0.0533 -0.2993
  985YOPC   D3B14657   9.728   5.967   7.603 -0.2321 -0.3757  0.0228
  985YOPC   C4B14658   9.417   5.827   8.019 -0.0125  0.0265 -0.3428
  986YOPC   NC314659   0.445   1.156   5.253 -0.1820 -0.0877  0.0811
  986YOPC   PO414660   0.168   1.327   5.573 -0.0871 -0.2908  0.0543
  986YOPC   GL114661  -0.095   1.228   5.941 -0.2805 -0.1763 -0.0876
  986YOPC   GL214662  -0.368   1.006   6.039 -0.1459 -0.1577 -0.0342
  986YOPC   C1A14663  -0.218   1.395   6.354  0.3900  0.1892  0.4408
  986YOPC   D2A14664  -0.266   1.358   6.804  0.0376  0.1287  0.2276
  986YOPC   C3A14665  -0.162   1.561   7.214  0.0918 -0.2794  0.1128
  986YOPC   C4A14666  -0.121   1.782   7.563 -0.2760  0.0824  0.0090
  986YOPC   C1B14667  -0.359   0.908   6.445 -0.0514 -0.2742 -0.1690
  986YOPC   C2B14668  -0.044   0.913   6.663 -0.1058 -0.1220 -0.0157
  986YOPC   D3B14669  -0.029   0.868   6.987  0.0283 -0.1415  0.0548
  986YOPC   C4B14670   0.151   0.686   7.375  0.3105 -0.0775  0.1998
  987YOPC   NC314671  14.049  12.114   5.703  0.3861  0.1253 -0.0291
  987YOPC   PO414672  13.897  12.018   6.139  0.0683  0.2077  0.2858
  987YOPC   GL114673  14.168  11.938   6.452  0.2014  0.0438 -0.0139
  987YOPC   GL214674  14.409  11.761   6.625  0.0231 -0.0035  0.1341
  987YOPC   C1A14675  14.065  11.649   6.931 -0.1785  0.1191  0.2548
  987YOPC   D2A14676  14.255  11.526   7.256  0.2600  0.1154 -0.0210
  987YOPC   C3A14677  13.966  11.280   7.512 -0.1211 -0.0702 -0.1333
  987YOPC   C4A14678  13.762  11.180   8.026  0.1066  0.0345  0.0654
  987YOPC   C1B14679  14.479  11.958   7.106 -0.2910  0.0315 -0.0099
  987YOPC   C2B14680  14.619  11.792   7.542  0.0722  0.1640 -0.2785
  987YOPC   D3B14681  14.338  11.649   7.745 -0.2232  0.1812  0.2652
  987YOPC   C4B14682  14.202  11.410   8.031  0.0302  0.0817  0.0917
  988YOPC   NC314683   8.112   5.890   5.750 -0.1453 -0.0119  0.1030
  988YOPC   PO414684   8.552   6.113   5.708  0.1275  0.1243  0.0547
  988YOPC   GL114685   8.577   6.236   6.207 -0.0783  0.1330 -0.1376
  988YOPC   GL214686   8.664   5.974   6.269  0.0399 -0.0697  0.0974
  988YOPC   C1A14687   8.552   6.485   6.533 -0.1440  0.0901 -0.2609
  988YOPC   D2A14688   8.190   6.657   6.745  0.0167  0.2407  0.0508
  988YOPC   C3A14689   8.134   6.739   7.140 -0.2803 -0.0038  0.0870
  988YOPC   C4A14690   7.827   6.550   7.376 -0.0739 -0.0268  0.2316
  988YOPC   C1B14691   8.656   6.033   6.717  0.1762  0.1648 -0.3136
  988YOPC   C2B14692   8.632   5.975   7.268  0.0352 -0.3414 -0.1453
  988YOPC   D3B14693   8.407   5.815   7.709 -0.1997 -0.3159 -0.3693
  988YOPC   C4B14694   8.204   5.444   7.882  0.1011  0.1616 -0.0170
  989YOPC   NC314695  15.682   7.663   4.667  0.1094 -0.0196  0.2308
  989YOPC   PO414696  15.421   7.666   5.124 -0.0681 -0.1192  0.1870
  989YOPC   GL114697  15.255   7.846   5.547 -0.1478  0.1997  0.1674
  989YOPC   GL214698  15.564   8.005   5.804 -0.3074  0.0376 -0.0577
  989YOPC   C1A14699  15.128   7.770   5.999 -0.0068 -0.0047 -0.2397
  989YOPC   D2A14700  14.924   7.812   6.388 -0.2026  0.0381  0.1743
  989YOPC   C3A14701  15.170   7.681   6.792 -0.3130  0.1472  0.0658
  989YOPC   C4A14702  15.305   7.358   6.935  0.0482 -0.0896  0.1923
  989YOPC   C1B14703  15.488   8.151   6.202  0.1119  0.1640  0.1733
  989YOPC   C2B14704  15.456   7.829   6.423  0.1898 -0.0519 -0.0813
  989YOPC   D3B14705  15.615   7.810   6.841 -0.2128 -0.0187 -0.0525
  989YOPC   C4B14706  15.477   7.758   7.230  0.2233 -0.1664  0.3524
  990YOPC   NC314707  10.757  17.876   5.878 -0.0755  0.4357 -0.1167
  990YOPC   PO414708  10.327  17.741   5.835 -0.0580 -0.2300 -0.4039
  990YOPC   GL114709  10.235  17.939   6.243  0.1362 -0.5036  0.4966
  990YOPC   GL214710  10.558  18.105   6.399 -0.0341  0.0893 -0.0315
  990YOPC   C1A14711   9.856  17.913   6.563 -0.2931  0.0387 -0.0463
  990YOPC   D2A14712   9.770  18.050   6.990 -0.4386 -0.2136 -0.0131
  990YOPC   C3A14713   9.468  18.379   7.155  0.1163 -0.0671 -0.1780
  990YOPC   C4A14714   9.497  18.594   7.539 -0.3073 -0.1992 -0.0150
  990YOPC   C1B14715  10.247  18.172   6.720 -0.1443  0.1417  0.1310
  990YOPC   C2B14716  10.276  18.345   7.133 -0.1472 -0.0611  0.1423
  990YOPC   D3B14717   9.974  18.630   7.376  0.0235 -0.2146 -0.0389
  990YOPC   C4B14718  10.106  18.935   7.592  0.2957  0.1030 -0.1220
  991YOPC   NC314719   8.331   7.919   5.469  0.0505  0.0698  0.0516
  991YOPC   PO414720   7.824   7.643   5.576 -0.4057 -0.0314  0.0083
  991YOPC   GL114721   7.820   7.565   5.901  0.1981 -0.0482 -0.1774
  991YOPC   GL214722   7.595   7.819   5.990  0.1486 -0.2994 -0.1026
  991YOPC   C1A14723   7.875   7.357   6.252  0.1887 -0.0332  0.1135
  991YOPC   D2A14724   7.769   7.406   6.690 -0.3694  0.0524  0.0637
  991YOPC   C3A14725   7.949   7.613   7.081  0.1626 -0.3079  0.2393
  991YOPC   C4A14726   8.242   7.988   7.283 -0.3316 -0.1440 -0.0520
  991YOPC   C1B14727   7.888   7.843   6.349  0.1349 -0.0789  0.1484
  991YOPC   C2B14728   7.904   7.954   6.766  0.1998 -0.0423  0.0079
  991YOPC   D3B14729   7.698   8.204   7.042 -0.2070 -0.2006  0.1401
  991YOPC   C4B14730   7.667   8.203   7.534 -0.1097 -0.0260  0.0444
  992YOPC   NC314731   7.846  12.661   6.324 -0.0430 -0.0859 -0.2258
  992YOPC   PO414732   7.972  12.985   6.278  0.1375 -0.0639 -0.0136
  992YOPC   GL114733   7.765  13.111   6.702 -0.1303 -0.1748 -0.2665
  992YOPC   GL214734   7.448  13.168   6.683 -0.1684 -0.2009  0.0057
  992YOPC   C1A14735   7.774  12.962   7.069 -0.1969 -0.1028  0.1585
  992YOPC   D2A14736   8.170  12.914   7.305 -0.0668 -0.0696 -0.1497
  992YOPC   C3A14737   8.191  12.954   7.711 -0.1320  0.3122 -0.2061
  992YOPC   C4A14738   7.950  13.113   8.045 -0.1474  0.0573  0.2093
  992YOPC   C1B14739   7.348  13.166   7.015 -0.0693  0.2512  0.0106
  992YOPC   C2B14740   7.396  13.183   7.437  0.0362  0.2566 -0.2043
  992YOPC   D3B14741   7.737  12.989   7.564  0.0026 -0.0458  0.2304
  992YOPC   C4B14742   7.706  12.720   7.754 -0.2320  0.1701  0.0636
  993YOPC   NC314743  11.112  14.671   5.950  0.2459 -0.1943 -0.2022
  993YOPC   PO414744  11.244  14.174   5.901  0.2611 -0.1590 -0.1769
  993YOPC   GL114745  11.155  14.240   6.321 -0.0668  0.0507  0.1502
  993YOPC   GL214746  11.162  14.522   6.440  0.1576 -0.1076 -0.1637
  993YOPC   C1A14747  10.904  14.158   6.643  0.2594  0.2222 -0.0436
  993YOPC   D2A14748  10.578  14.247   6.922  0.0790  0.1592 -0.1585
  993YOPC   C3A14749  10.313  14.622   7.049 -0.1730 -0.0611  0.0772
  993YOPC   C4A14750  10.041  14.992   7.124 -0.0682 -0.3333 -0.0049
  993YOPC   C1B14751  11.217  14.426   6.831  0.1577  0.3062  0.0170
  993YOPC   C2B14752  11.251  14.506   7.198  0.1772  0.0382  0.1384
  993YOPC   D3B14753  11.232  14.804   7.354  0.0466 -0.0201  0.1128
  993YOPC   C4B14754  11.447  14.984   7.577  0.2192  0.0848  0.0964
  994YOPC   NC314755  10.244   9.964   5.956  0.0701 -0.1393 -0.0328
  994YOPC   PO414756  10.431   9.611   6.043  0.0625 -0.2628 -0.0934
  994YOPC   GL114757  10.558   9.234   6.250  0.1271  0.1244 -0.0810
  994YOPC   GL214758  10.814   9.478   6.475 -0.0832 -0.0009  0.4589
  994YOPC   C1A14759  10.522   9.118   6.676  0.2608  0.0303 -0.3617
  994YOPC   D2A14760  10.338   9.230   6.996 -0.1556  0.4079  0.1623
  994YOPC   C3A14761  10.619   9.153   7.242  0.0349  0.3098 -0.1711
  994YOPC   C4A14762  10.802   9.214   7.650 -0.2450  0.0803 -0.0337
  994YOPC   C1B14763  11.236   9.581   6.671 -0.2521 -0.0556  0.0045
  994YOPC   C2B14764  11.640   9.672   6.815 -0.2573  0.5872  0.0243
  994YOPC   D3B14765  11.876   9.957   7.132  0.2687  0.1573 -0.0256
  994YOPC   C4B14766  11.434  10.069   7.293  0.0775  0.1089 -0.1388
  995YOPC   NC314767   6.551  11.999   5.842 -0.0587 -0.1140  0.1174
  995YOPC   PO414768   6.407  11.598   5.954 -0.3739 -0.0398  0.1633
  995YOPC   GL114769   6.271  11.517   6.338 -0.1008 -0.1271  0.0155
  995YOPC   GL214770   6.383  11.520   6.737 -0.0205 -0.0407  0.4282
  995YOPC   C1A14771   5.945  11.465   6.561 -0.0163  0.2797  0.0553
  995YOPC   D2A14772   5.548  11.616   6.800 -0.0786  0.0772 -0.0600
  995YOPC   C3A14773   5.152  11.642   6.853 -0.1498  0.4868  0.0707
  995YOPC   C4A14774   4.801  11.837   6.880  0.0203 -0.1008 -0.0170
  995YOPC   C1B14775   5.977  11.730   6.946 -0.1756 -0.0011 -0.2234
  995YOPC   C2B14776   5.687  11.560   7.253 -0.2864 -0.1251 -0.0351
  995YOPC   D3B14777   5.776  11.362   7.600  0.1892  0.2247  0.0276
  995YOPC   C4B14778   5.997  10.908   7.664 -0.1331  0.2218  0.2849
  996YOPC   NC314779  12.727  15.658   5.991  0.0081  0.0312 -0.2053
  996YOPC   PO414780  12.717  15.265   6.314  0.2569  0.1397 -0.0541
  996YOPC   GL114781  12.599  15.317   6.736 -0.1359  0.0532 -0.0056
  996YOPC   GL214782  12.312  15.219   6.695  0.1853  0.0298 -0.2903
  996YOPC   C1A14783  12.639  15.434   7.171 -0.1198 -0.0558 -0.0268
  996YOPC   D2A14784  12.369  15.272   7.566  0.3297  0.2114 -0.0137
  996YOPC   C3A14785  12.071  15.066   7.389  0.1812  0.2833 -0.0586
  996YOPC   C4A14786  11.798  14.816   7.196 -0.2302  0.2741 -0.3107
  996YOPC   C1B14787  11.911  15.211   6.861  0.0505  0.0277 -0.0946
  996YOPC   C2B14788  11.524  15.210   7.112  0.0926  0.0096  0.0910
  996YOPC   D3B14789  11.628  15.479   7.482  0.1378  0.0575 -0.3006
  996YOPC   C4B14790  11.872  15.354   7.786  0.0626  0.0240 -0.2916
  997YOPC   NC314791   2.140  10.545   5.427  0.1707  0.1292  0.0973
  997YOPC   PO414792   2.600  10.453   5.549  0.0927 -0.0878 -0.3375
  997YOPC   GL114793   2.412  10.391   5.883 -0.1763  0.0411 -0.0072
  997YOPC   GL214794   2.420  10.700   6.000  0.0999  0.2899 -0.0656
  997YOPC   C1A14795   2.526  10.304   6.333  0.1266 -0.1811 -0.0793
  997YOPC   D2A14796   2.589  10.335   6.737  0.3210 -0.2341 -0.3047
  997YOPC   C3A14797   2.227  10.625   6.913  0.0235 -0.0449  0.0501
  997YOPC   C4A14798   2.418  10.970   6.999  0.3221  0.1463 -0.2297
  997YOPC   C1B14799   2.490  10.865   6.476 -0.0955 -0.2934 -0.0303
  997YOPC   C2B14800   2.524  11.247   6.649  0.2233  0.0800  0.1163
  997YOPC   D3B14801   2.717  11.326   7.059 -0.1147  0.0999  0.0476
  997YOPC   C4B14802   2.993  11.331   7.360  0.0547 -0.3457  0.2382
  998YOPC   NC314803   2.055  14.316   5.517  0.1152  0.0353  0.0270
  998YOPC   PO414804   1.881  14.616   5.952  0.1244  0.0890  0.4712
  998YOPC   GL114805   1.954  14.329   6.440 -0.3865  0.1324  0.3289
  998YOPC   GL214806   1.705  14.296   6.645  0.1527 -0.0160  0.1201
  998YOPC   C1A14807   2.081  14.519   6.871 -0.1357  0.1696  0.3270
  998YOPC   D2A14808   2.274  14.659   7.149 -0.0146 -0.0491  0.0409
  998YOPC   C3A14809   2.544  14.683   7.524  0.1654 -0.0444  0.1501
  998YOPC   C4A14810   2.533  14.638   7.882 -0.3003  0.2078  0.2592
  998YOPC   C1B14811   1.439  14.193   6.916 -0.1102 -0.1002 -0.0292
  998YOPC   C2B14812   1.260  14.153   7.373 -0.1161 -0.1871 -0.0425
  998YOPC   D3B14813   1.410  14.239   7.768  0.0243  0.0905 -0.0337
  998YOPC   C4B14814   1.800  14.296   7.872 -0.0437 -0.0675  0.1717
  999YOPC   NC314815  15.613   8.122   5.280  0.0750 -0.1003 -0.1361
  999YOPC   PO414816  15.663   8.464   5.536  0.0252  0.1250 -0.4397
  999YOPC   GL114817  15.869   8.447   5.927  0.0478  0.2301 -0.2640
  999YOPC   GL214818  16.057   8.111   5.938  0.2624 -0.0638 -0.0743
  999YOPC   C1A14819  15.924   8.426   6.380 -0.0036  0.0501 -0.1014
  999YOPC   D2A14820  15.785   8.302   6.749 -0.3435  0.1155 -0.2974
  999YOPC   C3A14821  16.031   8.192   7.146 -0.3307  0.1377  0.0623
  999YOPC   C4A14822  16.198   7.925   7.459 -0.2348 -0.1735  0.1111
  999YOPC   C1B14823  15.936   7.929   6.315 -0.0216  0.0016  0.0682
  999YOPC   C2B14824  16.079   7.921   6.723 -0.3262  0.0536  0.1984
  999YOPC   D3B14825  16.292   7.458   6.797  0.3431 -0.4620 -0.2091
  999YOPC   C4B14826  16.203   7.129   7.037  0.1220 -0.2888 -0.0332
 1000YOPC   NC314827  14.770   5.609   4.702  0.2431 -0.1633 -0.1652
 1000YOPC   PO414828  14.808   5.403   5.105 -0.2983 -0.1276  0.0652
 1000YOPC   GL114829  14.844   5.558   5.482  0.0498 -0.2396 -0.2050
 1000YOPC   GL214830  15.124   5.718   5.543  0.2921 -0.0888 -0.1212
 1000YOPC   C1A14831  14.956   5.397   5.878  0.1550 -0.3453 -0.1672
 1000YOPC   D2A14832  15.350   5.323   6.206  0.3635  0.1252 -0.2084
 1000YOPC   C3A14833  15.289   5.396   6.579  0.0383 -0.0049 -0.0283
 1000YOPC   C4A14834  15.477   5.546   6.886  0.0287 -0.2115  0.0039
 1000YOPC   C1B14835  14.803   5.972   5.878 -0.2182  0.2225  0.1795
 1000YOPC   C2B14836  14.462   5.985   6.300 -0.2090  0.1854  0.2373
 1000YOPC   D3B14837  14.597   6.001   6.679  0.0502 -0.4971 -0.1987
 1000YOPC   C4B14838  14.546   5.764   7.069  0.2846 -0.0842  0.4966
 1001YOPC   NC314839  13.076  14.956   6.289  0.0712  0.2207  0.5192
 1001YOPC   PO414840  13.302  14.490   6.276  0.2600 -0.0809  0.0434
 1001YOPC   GL114841  13.567  14.731   6.554  0.1169  0.0740 -0.0518
 1001YOPC   GL214842  13.528  15.016   6.578  0.1732 -0.1637  0.2940
 1001YOPC   C1A14843  13.638  14.732   7.050 -0.3163 -0.0564  0.1248
 1001YOPC   D2A14844  13.971  14.761   7.392 -0.0471 -0.3713 -0.1041
 1001YOPC   C3A14845  14.389  14.797   7.279  0.1518  0.2025  0.2305
 1001YOPC   C4A14846  14.416  14.828   6.857  0.0831 -0.1082  0.0715
 1001YOPC   C1B14847  13.238  14.977   6.926  0.1628  0.2887  0.0767
 1001YOPC   C2B14848  13.217  14.705   7.357 -0.1189  0.3061 -0.1876
 1001YOPC   D3B14849  13.545  14.872   7.719 -0.0198  0.1404 -0.0685
 1001YOPC   C4B14850  13.616  14.711   8.126  0.1694 -0.0527  0.0810
 1002YOPC   NC314851   2.414  16.461   5.848  0.0117  0.1332 -0.0972
 1002YOPC   PO414852   1.997  16.440   5.797 -0.1212 -0.1006 -0.3137
 1002YOPC   GL114853   1.892  16.327   6.193  0.1994  0.1240 -0.1987
 1002YOPC   GL214854   1.720  16.591   6.179  0.0821  0.3759 -0.2162
 1002YOPC   C1A14855   2.054  16.251   6.590 -0.1150  0.1007  0.0332
 1002YOPC   D2A14856   1.938  16.395   7.050 -0.2805 -0.1384 -0.1419
 1002YOPC   C3A14857   2.181  16.224   7.402 -0.0030  0.0036 -0.1014
 1002YOPC   C4A14858   2.176  16.019   7.824  0.2582  0.2581  0.2385
 1002YOPC   C1B14859   1.628  16.597   6.640 -0.0700 -0.1476  0.0978
 1002YOPC   C2B14860   1.563  16.666   7.175  0.1846 -0.0765  0.0815
 1002YOPC   D3B14861   1.761  16.908   7.513 -0.0118 -0.2056 -0.2030
 1002YOPC   C4B14862   2.037  17.092   7.846  0.0232  0.3887  0.1067
 1003YOPC   NC314863  15.526  11.357   6.020  0.0805  0.5586 -0.0354
 1003YOPC   PO414864  15.637  11.778   6.069  0.2519  0.1339  0.2879
 1003YOPC   GL114865  15.679  11.894   6.432 -0.1823 -0.0519 -0.0075
 1003YOPC   GL214866  15.568  12.083   6.566  0.1238  0.1342  0.0955
 1003YOPC   C1A14867  15.894  11.870   6.907  0.4505  0.0749 -0.0953
 1003YOPC   D2A14868  16.211  11.721   7.191 -0.0107  0.1955 -0.0584
 1003YOPC   C3A14869  15.901  11.628   7.627 -0.1542 -0.4142  0.0845
 1003YOPC   C4A14870  16.020  11.439   8.028 -0.0299  0.3690  0.0268
 1003YOPC   C1B14871  15.566  12.218   6.917 -0.0814 -0.0443 -0.3405
 1003YOPC   C2B14872  15.806  12.445   7.155  0.0332  0.0847 -0.0917
 1003YOPC   D3B14873  16.072  12.158   7.393 -0.2506 -0.1508  0.2302
 1003YOPC   C4B14874  16.429  12.276   7.604 -0.2282  0.1917 -0.0629
 1004YOPC   NC314875   2.689  17.923   5.884  0.0231 -0.2191  0.5813
 1004YOPC   PO414876   2.381  18.274   5.884  0.0432  0.2592 -0.1634
 1004YOPC   GL114877   2.104  18.401   6.153 -0.0942 -0.4560 -0.2691
 1004YOPC   GL214878   2.038  18.278   6.493  0.0812 -0.2199 -0.2106
 1004YOPC   C1A14879   1.970  18.764   6.371 -0.0089  0.0216  0.0768
 1004YOPC   D2A14880   1.866  19.094   6.536  0.0516 -0.1282  0.0010
 1004YOPC   C3A14881   1.738  18.910   6.968  0.0004 -0.3665 -0.0098
 1004YOPC   C4A14882   1.722  19.022   7.376 -0.1802  0.2949 -0.0188
 1004YOPC   C1B14883   2.119  18.525   6.826  0.2589  0.0366 -0.0562
 1004YOPC   C2B14884   2.117  18.737   7.236 -0.4100 -0.3248 -0.0571
 1004YOPC   D3B14885   2.392  18.585   7.680  0.0280 -0.0052  0.1289
 1004YOPC   C4B14886   2.510  18.336   8.055  0.0318 -0.0156  0.1037
 1005YOPC   NC314887   1.551   5.710   5.314  0.0747  0.0707 -0.0455
 1005YOPC   PO414888   1.859   5.611   5.510  0.4172  0.1798 -0.2577
 1005YOPC   GL114889   1.827   5.907   5.796 -0.3738 -0.3016 -0.2450
 1005YOPC   GL214890   1.456   5.956   5.861 -0.3493 -0.0033 -0.0428
 1005YOPC   C1A14891   1.794   6.234   6.131  0.1246  0.0197  0.3957
 1005YOPC   D2A14892   1.642   6.375   6.482  0.0523  0.2574 -0.2443
 1005YOPC   C3A14893   1.624   6.118   6.782  0.2517 -0.1177 -0.0954
 1005YOPC   C4A14894   1.831   6.070   7.037  0.5587  0.0038  0.0531
 1005YOPC   C1B14895   1.558   5.811   6.362 -0.2713  0.0425 -0.0191
 1005YOPC   C2B14896   1.260   5.642   6.595 -0.2407  0.0237  0.0815
 1005YOPC   D3B14897   0.952   5.609   6.900  0.4700  0.0895 -0.1846
 1005YOPC   C4B14898   0.617   5.490   7.128 -0.1138  0.0189  0.0745
 1006YOPC   NC314899  17.641  10.261   5.618 -0.1553 -0.1842 -0.2700
 1006YOPC   PO414900  17.717  10.609   5.911  0.2231 -0.2014  0.1791
 1006YOPC   GL114901  17.653  10.593   6.380 -0.0477  0.1170 -0.1176
 1006YOPC   GL214902  17.443  10.901   6.378 -0.2581 -0.0237 -0.0220
 1006YOPC   C1A14903  17.573  10.584   6.874 -0.0079  0.1001  0.3896
 1006YOPC   D2A14904  17.867  10.654   7.282  0.2305 -0.3464 -0.3721
 1006YOPC   C3A14905  18.046  10.335   7.515 -0.2712 -0.0082 -0.0474
 1006YOPC   C4A14906  18.455  10.224   7.717  0.2451  0.1107  0.2343
 1006YOPC   C1B14907  17.587  11.105   6.786  0.2131  0.2934  0.0794
 1006YOPC   C2B14908  17.385  11.215   7.196  0.0126  0.3289 -0.2635
 1006YOPC   D3B14909  17.633  11.155   7.553 -0.0823  0.0200 -0.3264
 1006YOPC   C4B14910  17.757  11.171   7.944  0.0564  0.0845  0.0448
 1007YOPC   NC314911  15.854  10.708   5.510  0.2900  0.1498  0.1538
 1007YOPC   PO414912  15.889  10.919   5.905 -0.3267  0.0108  0.0009
 1007YOPC   GL114913  16.015  10.914   6.291  0.5279  0.2505 -0.2705
 1007YOPC   GL214914  15.781  11.227   6.395  0.1062 -0.0632  0.0189
 1007YOPC   C1A14915  15.937  10.853   6.817 -0.3093  0.0349  0.1812
 1007YOPC   D2A14916  16.083  10.814   7.165  0.0834 -0.1782  0.0561
 1007YOPC   C3A14917  15.840  10.741   7.523 -0.0295  0.0792  0.1305
 1007YOPC   C4A14918  15.751  10.978   7.918  0.1725 -0.2970  0.3193
 1007YOPC   C1B14919  15.625  11.194   6.798  0.2424 -0.1600 -0.1284
 1007YOPC   C2B14920  15.516  10.832   7.075 -0.0963 -0.1773  0.0577
 1007YOPC   D3B14921  15.462  10.387   7.058 -0.2603  0.1383  0.4068
 1007YOPC   C4B14922  15.425  10.044   6.916 -0.3122  0.0015 -0.3341
 1008YOPC   NC314923   4.666   0.192   5.728 -0.0095 -0.0444 -0.0224
 1008YOPC   PO414924   5.131   0.495   5.756  0.0817 -0.1424  0.2166
 1008YOPC   GL114925   4.829   0.531   6.048  0.0293  0.0052 -0.1771
 1008YOPC   GL214926   4.802   0.310   6.294  0.2922 -0.1728  0.3660
 1008YOPC   C1A14927   4.869   0.748   6.420  0.1210  0.0606  0.0653
 1008YOPC   D2A14928   4.953   0.922   6.871 -0.1372  0.2231 -0.1373
 1008YOPC   C3A14929   4.901   0.960   7.372 -0.5885  0.0998  0.1305
 1008YOPC   C4A14930   4.904   0.759   7.733  0.1992  0.0705  0.0547
 1008YOPC   C1B14931   4.456   0.284   6.502  0.1860  0.1423 -0.1681
 1008YOPC   C2B14932   4.075   0.039   6.621  0.1329  0.2192  0.0788
 1008YOPC   D3B14933   4.091  -0.206   6.965 -0.2101  0.1811 -0.1093
 1008YOPC   C4B14934   4.383  -0.369   7.290  0.0565 -0.1377  0.0025
 1009YOPC   NC314935   2.129  15.142   5.427  0.0713 -0.0647  0.1315
 1009YOPC   PO414936   2.372  14.718   5.664  0.0026  0.1480 -0.1166
 1009YOPC   GL114937   2.377  14.784   6.050  0.1022 -0.0960 -0.1620
 1009YOPC   GL214938   2.644  14.951   6.043  0.0551 -0.0041 -0.3313
 1009YOPC   C1A14939   2.092  14.783   6.493 -0.0345  0.2203  0.0479
 1009YOPC   D2A14940   1.754  14.840   6.754 -0.1511  0.3025  0.1759
 1009YOPC   C3A14941   1.711  14.736   7.139  0.1986  0.2980 -0.0751
 1009YOPC   C4A14942   1.661  14.396   7.296 -0.2898 -0.0676  0.0308
 1009YOPC   C1B14943   2.574  15.267   6.415 -0.2667 -0.1002 -0.1050
 1009YOPC   C2B14944   2.270  15.244   6.779 -0.0375  0.3660 -0.0166
 1009YOPC   D3B14945   1.970  15.092   7.156  0.1827 -0.0972  0.1013
 1009YOPC   C4B14946   1.896  15.128   7.523 -0.1689 -0.0072 -0.1538
 1010YOPC   NC314947  15.811   9.959   5.121 -0.2521 -0.1767 -0.1788
 1010YOPC   PO414948  15.896  10.155   5.511 -0.0734 -0.1590 -0.0771
 1010YOPC   GL114949  15.843   9.819   5.790  0.0710 -0.1180 -0.1982
 1010YOPC   GL214950  16.019   9.587   5.883 -0.0083 -0.1148 -0.0011
 1010YOPC   C1A14951  15.918  10.004   6.208  0.1117 -0.2926 -0.1672
 1010YOPC   D2A14952  16.012   9.853   6.656 -0.1966 -0.1196 -0.1194
 1010YOPC   C3A14953  15.843   9.868   7.127 -0.3898 -0.0145  0.4262
 1010YOPC   C4A14954  15.556   9.913   7.429  0.2293  0.1152 -0.0726
 1010YOPC   C1B14955  15.989   9.489   6.305  0.0629  0.1833 -0.0146
 1010YOPC   C2B14956  15.764   9.276   6.623 -0.0410 -0.0724 -0.2742
 1010YOPC   D3B14957  15.906   9.232   6.992 -0.1572 -0.2726 -0.0386
 1010YOPC   C4B14958  15.731   9.382   7.313 -0.2576  0.2972 -0.0298
 1011YOPC   NC314959  16.267  14.120   5.928  0.0001  0.2753  0.2428
 1011YOPC   PO414960  16.540  14.454   6.102 -0.0315 -0.0672 -0.0480
 1011YOPC   GL114961  16.351  14.637   6.517  0.2325 -0.1655  0.2449
 1011YOPC   GL214962  16.368  14.907   6.672 -0.2017  0.1052 -0.2532
 1011YOPC   C1A14963  16.276  14.412   6.909 -0.0479  0.0174 -0.0269
 1011YOPC   D2A14964  16.356  14.452   7.379 -0.2253  0.2981  0.1386
 1011YOPC   C3A14965  16.429  14.786   7.508 -0.0558 -0.1057 -0.1297
 1011YOPC   C4A14966  16.382  15.224   7.495  0.2097  0.2419 -0.1751
 1011YOPC   C1B14967  16.521  15.106   7.032 -0.0218  0.1937 -0.4728
 1011YOPC   C2B14968  16.860  15.012   7.258 -0.0450  0.0921 -0.0364
 1011YOPC   D3B14969  16.853  15.302   7.677 -0.3686 -0.0714  0.1990
 1011YOPC   C4B14970  16.712  15.421   8.081 -0.3167 -0.0740  0.0247
 1012YOPC   NC314971   4.843   1.667   5.555  0.1892  0.0883  0.1903
 1012YOPC   PO414972   5.109   1.362   5.664  0.0981  0.1247  0.1175
 1012YOPC   GL114973   4.939   1.200   6.065 -0.1570  0.0440  0.2405
 1012YOPC   GL214974   4.544   1.152   6.166  0.2809 -0.0100 -0.3097
 1012YOPC   C1A14975   4.856   1.337   6.566  0.0802  0.1449  0.2120
 1012YOPC   D2A14976   4.883   1.417   7.006  0.1012  0.1591  0.0807
 1012YOPC   C3A14977   5.024   1.804   7.182 -0.0677 -0.1161 -0.0863
 1012YOPC   C4A14978   5.338   2.076   7.458 -0.0261 -0.2126 -0.0301
 1012YOPC   C1B14979   4.365   1.274   6.525 -0.3011  0.1410 -0.6894
 1012YOPC   C2B14980   4.352   1.430   6.905  0.4149 -0.1456 -0.1332
 1012YOPC   D3B14981   4.547   1.757   7.141  0.0540  0.1684  0.2521
 1012YOPC   C4B14982   4.605   2.088   7.440 -0.0246  0.0451  0.0167
 1013YOPC   NC314983   5.015   6.150   5.695 -0.0536  0.1773  0.2796
 1013YOPC   PO414984   4.833   5.847   5.446 -0.1753  0.3351  0.1129
 1013YOPC   GL114985   4.603   5.890   5.865 -0.1063 -0.1951 -0.0639
 1013YOPC   GL214986   4.248   5.791   5.995 -0.4162 -0.2229  0.0742
 1013YOPC   C1A14987   4.566   6.051   6.360  0.0732  0.0511  0.1586
 1013YOPC   D2A14988   4.505   5.719   6.831 -0.3411  0.2562 -0.1126
 1013YOPC   C3A14989   4.505   5.499   7.177  0.2836 -0.1814  0.3872
 1013YOPC   C4A14990   4.305   5.058   7.394  0.1140  0.1036  0.1308
 1013YOPC   C1B14991   4.524   5.533   6.277 -0.0432 -0.1984 -0.0186
 1013YOPC   C2B14992   4.508   5.253   6.628 -0.3407  0.2921 -0.0604
 1013YOPC   D3B14993   4.800   4.972   6.559  0.1822  0.0505  0.1530
 1013YOPC   C4B14994   4.807   4.544   6.608 -0.0803 -0.2050  0.3406
 1014YOPC   NC314995  11.478   0.922   5.810 -0.0595  0.3418  0.1147
 1014YOPC   PO414996  11.717   0.432   5.774 -0.0478 -0.1693 -0.0621
 1014YOPC   GL114997  11.837   0.238   6.147  0.1049  0.2255 -0.2996
 1014YOPC   GL214998  11.805  -0.130   6.184 -0.0383 -0.2205  0.0794
 1014YOPC   C1A14999  11.810   0.153   6.589 -0.2454 -0.2149  0.4481
 1014YOPC   D2A15000  11.874   0.060   6.984  0.2333 -0.2135  0.0474
 1014YOPC   C3A15001  11.715  -0.161   7.350 -0.1126  0.0744  0.4431
 1014YOPC   C4A15002  11.603  -0.562   7.501  0.0941  0.3758  0.1938
 1014YOPC   C1B15003  11.585  -0.304   6.495 -0.1481 -0.1391 -0.1178
 1014YOPC   C2B15004  11.546  -0.589   6.795  0.2612 -0.3291  0.1601
 1014YOPC   D3B15005  11.975  -0.583   7.146 -0.0159  0.0501  0.1202
 1014YOPC   C4B15006  12.103  -0.697   7.558  0.0862 -0.2523 -0.0533
 1015YOPC   NC315007   3.355  17.380   5.734 -0.0736  0.0576 -0.0907
 1015YOPC   PO415008   3.196  17.073   5.920 -0.2866 -0.0246 -0.3181
 1015YOPC   GL115009   3.147  17.151   6.295 -0.0710 -0.1364  0.2588
 1015YOPC   GL215010   3.102  17.404   6.531 -0.2869  0.0586 -0.2749
 1015YOPC   C1A15011   3.472  17.188   6.735 -0.3416 -0.1169  0.0242
 1015YOPC   D2A15012   3.544  17.013   7.152  0.1492 -0.0924 -0.3331
 1015YOPC   C3A15013   3.628  17.127   7.571 -0.0961 -0.0788 -0.0767
 1015YOPC   C4A15014   3.490  16.956   7.987  0.1819 -0.0936  0.0386
 1015YOPC   C1B15015   3.014  17.372   6.865 -0.3374  0.2740  0.0093
 1015YOPC   C2B15016   3.075  17.305   7.246 -0.2298 -0.4199 -0.3420
 1015YOPC   D3B15017   3.187  16.865   7.485  0.0951 -0.3936 -0.1168
 1015YOPC   C4B15018   3.563  16.564   7.506  0.1785 -0.1887  0.1845
 1016YOPC   NC315019  15.191   5.053   5.185  0.1140  0.1080 -0.1332
 1016YOPC   PO415020  15.394   4.821   5.593  0.1153 -0.1901  0.1423
 1016YOPC   GL115021  15.638   4.755   5.978 -0.1405  0.0003  0.2687
 1016YOPC   GL215022  15.834   5.037   5.880  0.3971  0.4521  0.1777
 1016YOPC   C1A15023  15.669   4.639   6.436  0.0134 -0.1053  0.2088
 1016YOPC   D2A15024  15.517   4.494   6.908 -0.2085  0.1914 -0.1213
 1016YOPC   C3A15025  15.815   4.381   7.292  0.3336  0.1644 -0.0618
 1016YOPC   C4A15026  15.611   4.555   7.736 -0.0607  0.2280 -0.1563
 1016YOPC   C1B15027  15.730   5.100   6.361  0.0065 -0.0959 -0.0012
 1016YOPC   C2B15028  15.696   5.033   6.854 -0.1975 -0.1796  0.0638
 1016YOPC   D3B15029  15.399   4.746   7.279 -0.1018 -0.2372  0.0587
 1016YOPC   C4B15030  15.129   4.821   7.613 -0.2240  0.0326 -0.2058
 1017YOPC   NC315031   1.718   2.255   5.437 -0.3931 -0.0913  0.1219
 1017YOPC   PO415032   1.631   1.900   5.664  0.1817 -0.1180  0.1556
 1017YOPC   GL115033   1.618   1.814   6.056  0.1101  0.2331  0.2621
 1017YOPC   GL215034   1.392   1.592   6.157 -0.1077  0.2429  0.4329
 1017YOPC   C1A15035   1.567   1.956   6.515 -0.0914  0.2234 -0.0849
 1017YOPC   D2A15036   1.626   1.611   6.885 -0.1240 -0.0411  0.0858
 1017YOPC   C3A15037   1.820   1.651   7.250  0.0193 -0.0320  0.0968
 1017YOPC   C4A15038   1.859   1.880   7.642 -0.0915 -0.2742  0.0098
 1017YOPC   C1B15039   1.219   1.512   6.586 -0.0138  0.4005 -0.2249
 1017YOPC   C2B15040   0.837   1.620   6.829  0.0253  0.1417  0.1469
 1017YOPC   D3B15041   0.730   1.438   7.161  0.1713  0.0230  0.0557
 1017YOPC   C4B15042   1.032   1.129   7.435  0.0233 -0.0086  0.0959
 1018YOPC   NC315043   1.636  11.041   5.221  0.2124 -0.1143  0.0087
 1018YOPC   PO415044   1.729  10.891   5.575  0.1130  0.0391 -0.5225
 1018YOPC   GL115045   1.628  10.911   6.022  0.0997  0.1469  0.0434
 1018YOPC   GL215046   1.507  10.630   6.259  0.1392  0.1015  0.1690
 1018YOPC   C1A15047   1.463  11.112   6.326 -0.0912 -0.0087  0.4149
 1018YOPC   D2A15048   1.522  11.457   6.595 -0.0716  0.0120 -0.0788
 1018YOPC   C3A15049   1.699  11.506   6.998 -0.1572 -0.1393  0.1284
 1018YOPC   C4A15050   1.629  11.337   7.411  0.0770  0.1207 -0.3714
 1018YOPC   C1B15051   1.457  10.477   6.668 -0.2628  0.0753 -0.2656
 1018YOPC   C2B15052   1.370  10.351   7.117  0.0268 -0.0708 -0.2112
 1018YOPC   D3B15053   1.585  10.428   7.522  0.0337  0.0459 -0.2319
 1018YOPC   C4B15054   1.618  10.205   7.878 -0.0718  0.2781  0.0462
 1019YOPC   NC315055   3.018   0.045   5.766 -0.2209 -0.2901  0.1944
 1019YOPC   PO415056   2.809   0.079   6.019 -0.2011 -0.2121  0.0147
 1019YOPC   GL115057   2.982  -0.126   6.237  0.1268  0.1696  0.2056
 1019YOPC   GL215058   3.291  -0.052   6.406  0.2293 -0.0380 -0.2747
 1019YOPC   C1A15059   2.878  -0.300   6.719  0.0529 -0.0641  0.1268
 1019YOPC   D2A15060   2.826  -0.519   7.166  0.2278  0.1472 -0.0063
 1019YOPC   C3A15061   3.121  -0.491   7.565  0.2036 -0.0020  0.3666
 1019YOPC   C4A15062   3.415  -0.238   7.698  0.1582  0.1346  0.0973
 1019YOPC   C1B15063   3.225   0.009   6.884  0.0167  0.0739 -0.1302
 1019YOPC   C2B15064   3.074  -0.045   7.309 -0.3676  0.1339  0.0529
 1019YOPC   D3B15065   2.924   0.345   7.393 -0.4740 -0.1597  0.1227
 1019YOPC   C4B15066   2.680   0.584   7.554  0.4010  0.1629 -0.1776
 1020YOPC   NC315067   3.718   8.733   6.054  0.1428  0.0522 -0.0117
 1020YOPC   PO415068   3.859   8.246   6.046  0.0070  0.2017 -0.1041
 1020YOPC   GL115069   3.773   8.356   6.437  0.1568 -0.0873 -0.1098
 1020YOPC   GL215070   3.873   8.629   6.573 -0.1114  0.1541 -0.1700
 1020YOPC   C1A15071   3.757   8.244   6.854  0.0193  0.0705  0.1752
 1020YOPC   D2A15072   3.743   8.008   7.191 -0.0376  0.0027 -0.0396
 1020YOPC   C3A15073   4.013   8.039   7.534  0.0188 -0.1323  0.1684
 1020YOPC   C4A15074   4.211   8.282   7.857  0.1209  0.0673  0.0030
 1020YOPC   C1B15075   3.964   8.671   6.970  0.0406 -0.2606  0.3285
 1020YOPC   C2B15076   3.724   8.547   7.300 -0.0884 -0.1152 -0.0622
 1020YOPC   D3B15077   3.353   8.271   7.124 -0.0301 -0.3236 -0.1333
 1020YOPC   C4B15078   3.032   8.149   7.387  0.1351  0.0277  0.2425
 1021YOPC   NC315079  14.562  13.838   5.879  0.1423 -0.0445 -0.2847
 1021YOPC   PO415080  14.180  13.998   6.203  0.3431  0.4993  0.0221
 1021YOPC   GL115081  14.195  14.138   6.510  0.0516 -0.3470 -0.1008
 1021YOPC   GL215082  14.118  14.487   6.582 -0.0183  0.2495 -0.2325
 1021YOPC   C1A15083  14.482  13.941   6.791  0.0188  0.0275 -0.0357
 1021YOPC   D2A15084  14.582  13.887   7.204  0.1777  0.1705  0.0098
 1021YOPC   C3A15085  14.781  13.566   7.567 -0.3186  0.1249  0.0767
 1021YOPC   C4A15086  14.750  13.149   7.654  0.0238 -0.0637  0.0655
 1021YOPC   C1B15087  14.083  14.445   7.030 -0.1559 -0.1218  0.0672
 1021YOPC   C2B15088  14.251  14.267   7.296 -0.2010 -0.0913 -0.0035
 1021YOPC   D3B15089  14.120  14.322   7.649 -0.2584 -0.1037 -0.0312
 1021YOPC   C4B15090  14.206  14.085   8.064  0.1550  0.1215 -0.1421
 1022YOPC   NC315091  13.618   2.330   5.732 -0.0895 -0.0833  0.1497
 1022YOPC   PO415092  13.903   2.530   5.533 -0.0175 -0.1233 -0.1926
 1022YOPC   GL115093  14.054   2.590   5.867  0.3382 -0.2949 -0.0676
 1022YOPC   GL215094  14.068   2.303   6.010 -0.2746 -0.1274  0.0734
 1022YOPC   C1A15095  14.326   2.585   6.350 -0.2766 -0.2238 -0.1118
 1022YOPC   D2A15096  14.429   2.433   6.746  0.0798  0.1125 -0.0142
 1022YOPC   C3A15097  14.202   2.335   7.192  0.3585 -0.0562 -0.0421
 1022YOPC   C4A15098  13.983   2.012   7.249 -0.0570 -0.0575 -0.1818
 1022YOPC   C1B15099  13.810   2.452   6.341  0.1996 -0.0853 -0.1361
 1022YOPC   C2B15100  13.921   2.629   6.730 -0.1969 -0.3886 -0.0776
 1022YOPC   D3B15101  14.251   2.951   6.867 -0.3607 -0.1056  0.0780
 1022YOPC   C4B15102  14.468   3.083   7.274 -0.0088 -0.1083  0.3624
 1023YOPC   NC315103   2.088   6.498   5.263  0.2238 -0.2565  0.0327
 1023YOPC   PO415104   1.664   6.352   5.535 -0.0572 -0.0699 -0.1891
 1023YOPC   GL115105   1.432   6.481   5.909  0.6654  0.2162 -0.1903
 1023YOPC   GL215106   1.618   6.771   6.057  0.2051  0.1379 -0.0499
 1023YOPC   C1A15107   1.179   6.645   6.230 -0.0482 -0.1235  0.1544
 1023YOPC   D2A15108   0.846   6.643   6.434 -0.1530  0.3575  0.1157
 1023YOPC   C3A15109   0.562   6.647   6.231  0.0412 -0.4274  0.0843
 1023YOPC   C4A15110   0.262   6.444   6.038  0.1135 -0.2896 -0.0936
 1023YOPC   C1B15111   1.617   6.850   6.395 -0.1534 -0.0046 -0.0657
 1023YOPC   C2B15112   1.305   6.641   6.772  0.0709  0.2032  0.2819
 1023YOPC   D3B15113   1.403   6.410   7.139  0.0099  0.0792  0.0850
 1023YOPC   C4B15114   1.571   6.600   7.483 -0.2610  0.3774  0.2471
 1024YOPC   NC315115   8.519  16.210   6.099 -0.1318 -0.0577 -0.0678
 1024YOPC   PO415116   8.751  15.841   6.199 -0.1602 -0.0547 -0.2936
 1024YOPC   GL115117   8.680  15.717   6.597 -0.2051 -0.2018 -0.0001
 1024YOPC   GL215118   8.589  15.409   6.520 -0.2600  0.1322  0.2227
 1024YOPC   C1A15119   8.683  15.590   7.010 -0.0406 -0.0140 -0.5515
 1024YOPC   D2A15120   8.660  15.568   7.499  0.0137 -0.0242 -0.1017
 1024YOPC   C3A15121   8.332  15.318   7.692  0.2075 -0.1701  0.0267
 1024YOPC   C4A15122   7.996  15.339   7.931  0.1098  0.4061 -0.0358
 1024YOPC   C1B15123   8.773  15.058   6.867  0.3579 -0.4032 -0.1896
 1024YOPC   C2B15124   9.005  14.948   7.198  0.3329 -0.5411 -0.3335
 1024YOPC   D3B15125   8.970  14.868   7.577 -0.4275  0.1774 -0.1728
 1024YOPC   C4B15126   8.752  15.149   7.823 -0.4332 -0.0680  0.2130
 1025YOPC   NC315127  12.444  14.086   6.177  0.0315  0.1001 -0.2647
 1025YOPC   PO415128  12.082  13.797   6.199 -0.1041  0.0634  0.0143
 1025YOPC   GL115129  12.101  13.601   6.595 -0.0106  0.2231  0.2646
 1025YOPC   GL215130  11.810  13.632   6.724  0.0107  0.0694 -0.1673
 1025YOPC   C1A15131  12.358  13.379   6.899  0.3694  0.1147 -0.1665
 1025YOPC   D2A15132  12.597  13.148   7.324 -0.1206 -0.2722 -0.5012
 1025YOPC   C3A15133  12.416  13.079   7.796 -0.2181 -0.0898 -0.1444
 1025YOPC   C4A15134  12.190  13.105   8.174 -0.1434  0.0918  0.1168
 1025YOPC   C1B15135  11.768  13.575   7.244 -0.1609  0.0281 -0.3138
 1025YOPC   C2B15136  11.922  13.979   7.527 -0.0333  0.1547 -0.2064
 1025YOPC   D3B15137  11.866  13.980   7.996 -0.5395 -0.1536  0.1116
 1025YOPC   C4B15138  11.629  13.822   8.180 -0.2140 -0.2638  0.0553
 1026YOPC   NC315139   9.409  16.705   5.926  0.2167  0.1967  0.3178
 1026YOPC   PO415140   9.541  16.330   6.024 -0.1026 -0.0218 -0.1678
 1026YOPC   GL115141   9.371  16.333   6.407  0.1250  0.0828 -0.1380
 1026YOPC   GL215142   9.253  15.982   6.518  0.3016  0.2183 -0.0468
 1026YOPC   C1A15143   9.181  16.426   6.815 -0.2207  0.1226 -0.2105
 1026YOPC   D2A15144   9.039  16.431   7.185  0.1311 -0.0206  0.1208
 1026YOPC   C3A15145   8.745  16.651   7.316 -0.1627  0.1502  0.0595
 1026YOPC   C4A15146   8.361  16.894   7.483 -0.1593  0.1396  0.1344
 1026YOPC   C1B15147   9.069  15.931   6.930  0.2931  0.2502 -0.0239
 1026YOPC   C2B15148   8.981  15.941   7.368 -0.1403 -0.0317  0.1555
 1026YOPC   D3B15149   8.906  16.339   7.666 -0.0226 -0.0328  0.0377
 1026YOPC   C4B15150   8.659  16.783   7.826 -0.4827 -0.3225  0.0910
 1027YOPC   NC315151   4.499  13.008   6.283 -0.1801  0.0776 -0.0271
 1027YOPC   PO415152   4.768  12.795   6.432 -0.1889  0.1823 -0.1818
 1027YOPC   GL115153   4.847  12.872   6.734  0.0811 -0.0234 -0.0106
 1027YOPC   GL215154   5.089  13.064   6.715 -0.0191 -0.2562  0.2639
 1027YOPC   C1A15155   4.659  12.813   7.115  0.0376 -0.2914 -0.0521
 1027YOPC   D2A15156   4.763  13.037   7.377 -0.3395 -0.1613 -0.4864
 1027YOPC   C3A15157   4.553  13.374   7.401 -0.1609  0.2204 -0.1117
 1027YOPC   C4A15158   4.194  13.510   7.311  0.1698 -0.2244 -0.0167
 1027YOPC   C1B15159   5.188  12.913   7.111 -0.0197  0.1217 -0.0703
 1027YOPC   C2B15160   5.022  12.591   7.405  0.0085 -0.2994 -0.0857
 1027YOPC   D3B15161   4.744  12.566   7.724  0.3131  0.1391 -0.0541
 1027YOPC   C4B15162   4.502  12.950   7.840 -0.1100  0.0687 -0.0645
 1028YOPC   NC315163  13.590   8.873   5.384 -0.1298  0.1452  0.1779
 1028YOPC   PO415164  14.148   9.056   5.244 -0.0229  0.0697  0.0555
 1028YOPC   GL115165  14.003   9.168   5.602  0.3775  0.3602  0.5991
 1028YOPC   GL215166  13.715   9.307   5.746  0.4373  0.0269 -0.1429
 1028YOPC   C1A15167  13.940   8.620   5.884 -0.1628  0.2983  0.2035
 1028YOPC   D2A15168  14.247   8.285   6.085 -0.1016 -0.1363  0.0502
 1028YOPC   C3A15169  14.603   7.943   5.935  0.4553 -0.1728  0.0469
 1028YOPC   C4A15170  14.429   7.522   5.754 -0.2193 -0.3467  0.0356
 1028YOPC   C1B15171  13.778   9.095   6.187 -0.0281 -0.0366  0.0243
 1028YOPC   C2B15172  13.493   9.067   6.629 -0.0119 -0.0052  0.1661
 1028YOPC   D3B15173  13.650   9.355   6.915  0.1598 -0.1064  0.1467
 1028YOPC   C4B15174  13.716   9.468   7.296  0.0425 -0.2196 -0.2036
 1029YOPC   NC315175  14.296  17.438   5.619  0.1013 -0.2755 -0.0122
 1029YOPC   PO415176  14.692  17.346   5.759 -0.1771  0.1514 -0.1144
 1029YOPC   GL115177  14.873  17.621   6.144  0.1159 -0.1920  0.0149
 1029YOPC   GL215178  15.028  17.369   6.377 -0.0312 -0.2023  0.1713
 1029YOPC   C1A15179  14.886  17.795   6.616  0.5468 -0.0452 -0.0055
 1029YOPC   D2A15180  14.905  17.994   7.062 -0.0127  0.2436 -0.0415
 1029YOPC   C3A15181  14.928  17.828   7.434  0.0636 -0.0446 -0.0484
 1029YOPC   C4A15182  14.985  17.945   7.860 -0.0316 -0.0109  0.0143
 1029YOPC   C1B15183  15.338  17.586   6.587 -0.2784 -0.2505 -0.3449
 1029YOPC   C2B15184  15.692  17.569   6.682 -0.0278 -0.0927  0.0849
 1029YOPC   D3B15185  15.898  17.705   7.043  0.2191 -0.1814 -0.1499
 1029YOPC   C4B15186  15.824  17.968   7.351  0.1674  0.5289 -0.0707
 1030YOPC   NC315187   1.234   3.412   5.239 -0.1457  0.3022 -0.0410
 1030YOPC   PO415188   1.541   3.121   5.421 -0.0663 -0.0648 -0.0443
 1030YOPC   GL115189   1.466   3.219   5.863  0.2685  0.0562 -0.1803
 1030YOPC   GL215190   1.741   3.270   5.933 -0.0015  0.1807  0.0639
 1030YOPC   C1A15191   1.287   3.368   6.226 -0.1677  0.2373 -0.1024
 1030YOPC   D2A15192   1.256   3.545   6.572 -0.0907  0.2583  0.0669
 1030YOPC   C3A15193   0.985   3.815   6.743 -0.0135 -0.1090  0.2647
 1030YOPC   C4A15194   0.613   3.801   6.745  0.3630  0.0476  0.0666
 1030YOPC   C1B15195   1.746   3.584   6.306 -0.0313 -0.3303 -0.1397
 1030YOPC   C2B15196   1.841   3.866   6.585  0.1211  0.2057 -0.0743
 1030YOPC   D3B15197   1.567   3.812   7.027 -0.1804  0.1834 -0.2415
 1030YOPC   C4B15198   1.306   3.515   7.101 -0.0256 -0.3275  0.0307
 1031YOPC   NC315199   9.864   2.574   5.363  0.0578  0.0024 -0.0267
 1031YOPC   PO415200  10.020   2.548   5.778  0.0780 -0.3630  0.2532
 1031YOPC   GL115201   9.654   2.729   6.059 -0.1023  0.2054 -0.0893
 1031YOPC   GL215202   9.521   2.462   6.213 -0.2047  0.0229  0.1026
 1031YOPC   C1A15203   9.704   2.966   6.411  0.1945  0.0655  0.1124
 1031YOPC   D2A15204  10.073   3.006   6.615 -0.0868  0.2510  0.2193
 1031YOPC   C3A15205  10.127   2.961   6.913 -0.1223 -0.1823 -0.2073
 1031YOPC   C4A15206   9.922   2.979   7.318  0.1684  0.0488  0.0374
 1031YOPC   C1B15207   9.517   2.609   6.629 -0.2246 -0.0778 -0.0595
 1031YOPC   C2B15208   9.582   2.736   7.013  0.1117 -0.1225  0.1587
 1031YOPC   D3B15209   9.274   2.644   7.442 -0.0719 -0.3273  0.3454
 1031YOPC   C4B15210   9.352   2.541   7.857  0.1476 -0.3215 -0.1986
 1032YOPC   NC315211  15.739  18.191   5.793  0.0841 -0.0785 -0.2301
 1032YOPC   PO415212  15.290  17.881   5.926  0.1475 -0.3181  0.1973
 1032YOPC   GL115213  15.236  17.942   6.267 -0.0326  0.1657  0.1010
 1032YOPC   GL215214  15.069  18.206   6.381 -0.2911  0.3627  0.1949
 1032YOPC   C1A15215  15.475  18.088   6.630 -0.1007 -0.0908 -0.0804
 1032YOPC   D2A15216  15.441  17.880   7.063  0.1487  0.1286 -0.2420
 1032YOPC   C3A15217  15.190  17.529   7.079  0.0716 -0.0857  0.1015
 1032YOPC   C4A15218  14.902  17.230   6.922 -0.2581  0.0160  0.1208
 1032YOPC   C1B15219  14.753  18.526   6.520 -0.3370 -0.1284  0.0964
 1032YOPC   C2B15220  14.605  19.000   6.522  0.0411  0.2943 -0.2649
 1032YOPC   D3B15221  14.642  19.077   7.037  0.0994 -0.1554 -0.2080
 1032YOPC   C4B15222  14.709  18.889   7.436  0.0318  0.0247  0.0919
 1033YOPC   NC315223  12.778   4.140   5.355 -0.0824 -0.0010  0.1007
 1033YOPC   PO415224  12.657   4.419   5.685 -0.0854 -0.0240  0.1816
 1033YOPC   GL115225  12.545   4.374   6.085 -0.0323  0.1143 -0.2792
 1033YOPC   GL215226  12.515   4.715   6.076  0.0751 -0.0187 -0.1298
 1033YOPC   C1A15227  12.344   4.374   6.475  0.1484  0.4867 -0.1188
 1033YOPC   D2A15228  12.109   4.690   6.862  0.5290  0.0320 -0.0049
 1033YOPC   C3A15229  12.247   4.788   7.302 -0.1674  0.2973 -0.0281
 1033YOPC   C4A15230  12.608   4.758   7.757 -0.1206 -0.2839  0.0288
 1033YOPC   C1B15231  12.748   4.900   6.389  0.1208 -0.1528 -0.4243
 1033YOPC   C2B15232  12.660   4.788   6.838 -0.2186  0.1175 -0.0055
 1033YOPC   D3B15233  12.847   4.953   7.256 -0.0026 -0.1415  0.2112
 1033YOPC   C4B15234  13.056   4.666   7.505  0.1746  0.2369  0.1543
 1034YOPC   NC315235  12.033  13.000   5.671 -0.3066  0.1355  0.1138
 1034YOPC   PO415236  12.228  12.759   5.987 -0.0692  0.0176  0.0591
 1034YOPC   GL115237  12.037  12.763   6.361  0.1725  0.0592 -0.2936
 1034YOPC   GL215238  12.106  12.920   6.628  0.1137  0.1785  0.0025
 1034YOPC   C1A15239  12.240  12.404   6.664  0.0535 -0.1917 -0.0116
 1034YOPC   D2A15240  12.290  12.026   6.852  0.3158  0.0694  0.1128
 1034YOPC   C3A15241  11.999  11.814   6.896  0.1271 -0.2982 -0.0102
 1034YOPC   C4A15242  11.782  11.742   7.118  0.0349 -0.0325 -0.0878
 1034YOPC   C1B15243  11.907  13.131   6.896  0.1259  0.0102  0.2728
 1034YOPC   C2B15244  12.108  13.166   7.293 -0.0575  0.1089  0.2156
 1034YOPC   D3B15245  12.177  12.801   7.410 -0.0243 -0.1355 -0.3059
 1034YOPC   C4B15246  12.139  12.447   7.774  0.1103  0.0329  0.0858
 1035YOPC   NC315247  14.686   2.712   5.088 -0.1966 -0.0947  0.1023
 1035YOPC   PO415248  15.112   2.550   5.129 -0.2354  0.3809  0.1090
 1035YOPC   GL115249  15.214   2.603   5.573  0.1212  0.0669 -0.2743
 1035YOPC   GL215250  14.918   2.763   5.652 -0.2434 -0.2172 -0.1098
 1035YOPC   C1A15251  15.264   2.492   6.029  0.2596  0.4359 -0.3147
 1035YOPC   D2A15252  15.384   2.701   6.371 -0.1572 -0.2072  0.0779
 1035YOPC   C3A15253  15.101   2.740   6.744 -0.2248 -0.4250 -0.2349
 1035YOPC   C4A15254  14.796   2.655   7.054 -0.0093 -0.0506  0.0417
 1035YOPC   C1B15255  15.224   3.030   5.935 -0.3729 -0.1038  0.1322
 1035YOPC   C2B15256  15.452   3.459   5.897  0.2102 -0.0502  0.1392
 1035YOPC   D3B15257  15.773   3.624   6.206 -0.2681  0.1180  0.0547
 1035YOPC   C4B15258  16.089   3.517   6.508 -0.0324  0.0787 -0.1389
 1036YOPC   NC315259   2.436   1.674   5.438 -0.0439  0.3328 -0.1711
 1036YOPC   PO415260   2.107   1.973   5.527  0.0523  0.3203  0.0068
 1036YOPC   GL115261   2.126   2.181   5.862 -0.3521  0.3235  0.1200
 1036YOPC   GL215262   1.907   2.380   5.853  0.0114  0.3302  0.0906
 1036YOPC   C1A15263   2.076   2.143   6.257 -0.2465 -0.2410  0.3076
 1036YOPC   D2A15264   1.993   2.273   6.603  0.0858  0.1140  0.0338
 1036YOPC   C3A15265   1.957   2.013   6.947  0.0441 -0.1198  0.1720
 1036YOPC   C4A15266   2.269   1.941   7.358 -0.1750 -0.0187  0.2630
 1036YOPC   C1B15267   1.934   2.588   6.211 -0.0880 -0.1960 -0.1003
 1036YOPC   C2B15268   1.924   2.795   6.655 -0.1108 -0.0733  0.0890
 1036YOPC   D3B15269   1.950   2.594   7.027 -0.1027 -0.0019  0.1413
 1036YOPC   C4B15270   2.000   2.451   7.355 -0.1820  0.1863 -0.1324
 1037YOPC   NC315271  12.942  17.379   5.215  0.1433  0.0988 -0.1927
 1037YOPC   PO415272  12.521  17.308   5.302  0.1265  0.1262 -0.3726
 1037YOPC   GL115273  12.767  17.041   5.716 -0.0024 -0.0245 -0.0020
 1037YOPC   GL215274  12.517  16.850   5.885 -0.4658 -0.0186 -0.0927
 1037YOPC   C1A15275  13.080  17.032   6.094 -0.3866  0.1473 -0.1328
 1037YOPC   D2A15276  13.308  17.383   6.166  0.0944  0.1152  0.3198
 1037YOPC   C3A15277  13.382  17.537   6.555 -0.2202  0.1419  0.0060
 1037YOPC   C4A15278  13.305  17.895   6.737  0.3078  0.2681 -0.1072
 1037YOPC   C1B15279  12.582  17.179   6.179 -0.0500  0.1846  0.3722
 1037YOPC   C2B15280  12.606  17.249   6.649  0.2094 -0.0570  0.1084
 1037YOPC   D3B15281  12.772  17.491   6.945  0.1070  0.2960  0.1244
 1037YOPC   C4B15282  13.049  17.611   7.262 -0.0034 -0.0858 -0.0404
 1038YOPC   NC315283   7.807  10.290   5.872  0.0576 -0.0221  0.2162
 1038YOPC   PO415284   8.032   9.924   5.840 -0.1723  0.1282 -0.0788
 1038YOPC   GL115285   7.913   9.933   6.275 -0.1428  0.0256 -0.2031
 1038YOPC   GL215286   7.810  10.217   6.390 -0.4054 -0.3029 -0.1592
 1038YOPC   C1A15287   7.702   9.801   6.624 -0.1342  0.0732  0.1920
 1038YOPC   D2A15288   7.705   9.867   7.035 -0.0322 -0.2533 -0.1186
 1038YOPC   C3A15289   7.450   9.726   7.329  0.0609  0.2872 -0.1544
 1038YOPC   C4A15290   7.340   9.589   7.702  0.0605  0.0739 -0.1716
 1038YOPC   C1B15291   7.564  10.294   6.819 -0.2850  0.0158  0.1113
 1038YOPC   C2B15292   7.613  10.570   7.251 -0.2094  0.0809  0.0991
 1038YOPC   D3B15293   7.309  10.319   7.446  0.0976  0.1687  0.1812
 1038YOPC   C4B15294   7.009   9.956   7.521  0.0213 -0.0573 -0.0883
 1039YOPC   NC315295   3.012   6.063   5.428  0.0886  0.1580 -0.3862
 1039YOPC   PO415296   2.751   5.671   5.504  0.0855 -0.1032  0.1771
 1039YOPC   GL115297   2.666   5.546   5.968  0.0384 -0.3864 -0.3563
 1039YOPC   GL215298   2.430   5.251   6.007  0.0155 -0.1367 -0.2730
 1039YOPC   C1A15299   2.578   5.456   6.415 -0.0874 -0.0791 -0.1091
 1039YOPC   D2A15300   2.259   5.582   6.708  0.5589 -0.3762 -0.2263
 1039YOPC   C3A15301   2.161   5.542   7.219  0.1084 -0.1745  0.0801
 1039YOPC   C4A15302   2.257   5.263   7.546 -0.0561 -0.2181  0.2109
 1039YOPC   C1B15303   2.183   5.156   6.383  0.1901  0.1152  0.2098
 1039YOPC   C2B15304   2.159   5.138   6.897  0.0161  0.0583 -0.1852
 1039YOPC   D3B15305   1.870   5.138   7.074  0.1929  0.3432 -0.1165
 1039YOPC   C4B15306   1.497   4.997   7.245 -0.1953  0.3953  0.1452
 1040YOPC   NC315307  16.372   3.510   5.012 -0.1062 -0.1534  0.1176
 1040YOPC   PO415308  16.277   3.804   5.378 -0.4679 -0.0698 -0.2414
 1040YOPC   GL115309  16.424   3.586   5.773 -0.1926 -0.2283 -0.0483
 1040YOPC   GL215310  16.637   3.828   5.896 -0.0052  0.1398 -0.0612
 1040YOPC   C1A15311  16.397   3.470   6.130 -0.1512  0.0484 -0.1211
 1040YOPC   D2A15312  16.590   3.563   6.538  0.0015 -0.1912 -0.1088
 1040YOPC   C3A15313  16.353   3.656   6.963  0.0512  0.0776 -0.1031
 1040YOPC   C4A15314  16.563   3.925   7.286 -0.0666  0.1364 -0.1803
 1040YOPC   C1B15315  16.890   3.974   6.253  0.0678 -0.0509 -0.0817
 1040YOPC   C2B15316  17.076   3.755   6.525  0.0324  0.0059  0.0079
 1040YOPC   D3B15317  17.433   3.731   6.719  0.1337 -0.0699 -0.2488
 1040YOPC   C4B15318  17.594   4.007   7.023  0.4999 -0.2728 -0.0969
 1041YOPC   NC315319  18.370   0.880   5.533 -0.2009 -0.1296 -0.0405
 1041YOPC   PO415320  18.833   0.704   5.621  0.1700 -0.0482  0.2937
 1041YOPC   GL115321  18.817   1.015   5.981  0.1884  0.3875  0.0959
 1041YOPC   GL215322  18.983   1.360   5.971 -0.2168 -0.1547  0.3244
 1041YOPC   C1A15323  18.797   0.997   6.350  0.1348 -0.0904 -0.2763
 1041YOPC   D2A15324  18.836   0.890   6.828  0.0074  0.2915  0.1975
 1041YOPC   C3A15325  19.166   0.644   6.939 -0.0233 -0.1059  0.1327
 1041YOPC   C4A15326  19.198   0.200   6.944 -0.2089  0.0539 -0.0175
 1041YOPC   C1B15327  19.105   1.355   6.404  0.0526  0.2062  0.0271
 1041YOPC   C2B15328  19.375   1.065   6.639  0.1802  0.1803 -0.0238
 1041YOPC   D3B15329  19.581   1.204   6.988 -0.0577  0.0019 -0.0674
 1041YOPC   C4B15330  19.634   1.661   7.191 -0.0251  0.1687  0.0630
 1042YOPC   NC315331   3.268   0.390   6.129  0.0011 -0.1192  0.0748
 1042YOPC   PO415332   3.513   0.081   5.883 -0.2397  0.2397 -0.1740
 1042YOPC   GL115333   3.768  -0.057   6.246  0.2506  0.1187  0.2803
 1042YOPC   GL215334   3.678   0.253   6.440  0.0114  0.3192 -0.2218
 1042YOPC   C1A15335   3.654  -0.234   6.659 -0.0164  0.3167 -0.1026
 1042YOPC   D2A15336   3.710   0.070   7.004 -0.3215 -0.0793  0.1166
 1042YOPC   C3A15337   3.439   0.307   7.257 -0.0046 -0.5373 -0.2006
 1042YOPC   C4A15338   3.471   0.632   7.650 -0.1126  0.1945  0.0053
 1042YOPC   C1B15339   3.352   0.454   6.741  0.0554  0.0700  0.3316
 1042YOPC   C2B15340   2.919   0.529   6.967  0.0386 -0.2787  0.1734
 1042YOPC   D3B15341   2.624   0.211   7.071 -0.2509 -0.0980  0.0688
 1042YOPC   C4B15342   2.333  -0.107   7.218 -0.3529  0.0528  0.4295
 1043YOPC   NC315343   7.330  11.747   6.225 -0.1771 -0.0911 -0.0106
 1043YOPC   PO415344   7.661  12.056   6.088 -0.0630  0.3086 -0.0196
 1043YOPC   GL115345   7.829  12.111   6.484 -0.4126 -0.3651  0.2254
 1043YOPC   GL215346   8.111  12.216   6.570 -0.3881 -0.2835 -0.0244
 1043YOPC   C1A15347   7.756  11.926   6.941  0.3993  0.2243  0.0348
 1043YOPC   D2A15348   7.683  12.025   7.421  0.0718 -0.2336 -0.0972
 1043YOPC   C3A15349   7.790  11.681   7.631 -0.2148  0.1912  0.0486
 1043YOPC   C4A15350   7.971  11.268   7.680 -0.2683  0.0381 -0.1401
 1043YOPC   C1B15351   7.923  12.399   6.928 -0.2127  0.1430  0.1409
 1043YOPC   C2B15352   7.851  12.486   7.329 -0.2647  0.0225  0.1748
 1043YOPC   D3B15353   8.093  12.448   7.683  0.2015  0.0444 -0.0417
 1043YOPC   C4B15354   8.135  12.580   8.133  0.1206  0.2369  0.0369
 1044YOPC   NC315355   8.965  15.051   5.537  0.1835  0.1163  0.1460
 1044YOPC   PO415356   8.962  15.226   5.917  0.0749  0.1293 -0.3320
 1044YOPC   GL115357   8.862  14.974   6.225 -0.0943  0.0775 -0.2387
 1044YOPC   GL215358   9.073  15.023   6.482  0.2089  0.1197 -0.3007
 1044YOPC   C1A15359   8.568  14.770   6.490 -0.0557  0.2553 -0.4320
 1044YOPC   D2A15360   8.571  14.546   6.867 -0.2951 -0.1953 -0.0664
 1044YOPC   C3A15361   8.131  14.519   7.179 -0.3140  0.1898 -0.1945
 1044YOPC   C4A15362   8.053  14.396   7.577 -0.1108  0.0071  0.0937
 1044YOPC   C1B15363   9.461  14.837   6.611 -0.0632  0.3203  0.0062
 1044YOPC   C2B15364   9.850  14.621   6.752 -0.1800 -0.1315 -0.0909
 1044YOPC   D3B15365  10.173  14.763   6.547 -0.0623 -0.3549  0.3581
 1044YOPC   C4B15366  10.174  15.230   6.555  0.1491 -0.0453 -0.1645
 1045YOPC   NC315367   1.827   9.536   6.025 -0.0722 -0.0043 -0.1361
 1045YOPC   PO415368   2.105   9.670   5.785  0.3287  0.1140 -0.3076
 1045YOPC   GL115369   2.315   9.853   6.140  0.0168 -0.1120 -0.0469
 1045YOPC   GL215370   2.102  10.068   6.114 -0.0522 -0.1330  0.2028
 1045YOPC   C1A15371   2.570   9.795   6.518 -0.2825  0.0430 -0.0262
 1045YOPC   D2A15372   2.529   9.888   6.942 -0.0057  0.0037  0.0097
 1045YOPC   C3A15373   2.184   9.866   7.017  0.2401  0.0572 -0.1712
 1045YOPC   C4A15374   1.772   9.575   7.042 -0.1643 -0.2304 -0.1232
 1045YOPC   C1B15375   2.023  10.337   6.440  0.1164  0.1881  0.1487
 1045YOPC   C2B15376   1.893  10.284   6.809 -0.2201  0.0608 -0.3227
 1045YOPC   D3B15377   1.993  10.420   7.232  0.0028 -0.1251 -0.0188
 1045YOPC   C4B15378   2.015  10.895   7.448 -0.2134 -0.0913  0.1217
 1046YOPC   NC315379  14.151   2.970   5.551 -0.0509  0.1130  0.0906
 1046YOPC   PO415380  14.570   3.044   5.440  0.1458  0.0704  0.0056
 1046YOPC   GL115381  14.699   3.066   5.917  0.0738 -0.1981  0.0980
 1046YOPC   GL215382  14.419   2.989   6.030  0.2527 -0.1445 -0.1569
 1046YOPC   C1A15383  14.885   2.819   6.213 -0.0234 -0.2538  0.1982
 1046YOPC   D2A15384  14.822   2.445   6.383  0.0292  0.4250 -0.3539
 1046YOPC   C3A15385  14.863   2.238   6.763 -0.1811  0.0368  0.2801
 1046YOPC   C4A15386  14.809   2.129   7.186 -0.3344 -0.0128  0.0070
 1046YOPC   C1B15387  14.619   3.114   6.498  0.4109  0.2476  0.1516
 1046YOPC   C2B15388  14.695   3.409   6.787  0.2572 -0.1230  0.4866
 1046YOPC   D3B15389  14.945   3.244   7.156 -0.1469  0.0444  0.2307
 1046YOPC   C4B15390  14.890   2.990   7.597  0.0949  0.3518  0.0333
 1047YOPC   NC315391   8.555  14.115   5.870  0.0073  0.1094  0.0209
 1047YOPC   PO415392   8.919  14.208   6.098  0.0117  0.4276 -0.2693
 1047YOPC   GL115393   9.153  14.154   6.431 -0.0048  0.0547 -0.2880
 1047YOPC   GL215394   9.075  14.517   6.485  0.0084 -0.1660  0.2672
 1047YOPC   C1A15395   9.418  13.960   6.800  0.1874  0.1966  0.0600
 1047YOPC   D2A15396   9.534  14.188   7.115 -0.0698 -0.0066 -0.0701
 1047YOPC   C3A15397   9.903  14.100   7.521 -0.4123  0.1692 -0.1559
 1047YOPC   C4A15398  10.179  14.108   7.888  0.2829  0.0701  0.1942
 1047YOPC   C1B15399   9.073  14.352   6.862  0.3369 -0.0257  0.0397
 1047YOPC   C2B15400   8.874  14.490   7.286 -0.1109  0.0217  0.2263
 1047YOPC   D3B15401   8.571  14.193   7.535  0.2194 -0.2205  0.0483
 1047YOPC   C4B15402   8.559  14.020   7.869 -0.1119  0.2824  0.1988
 1048YOPC   NC315403  16.120   7.339   5.545  0.3101 -0.0586  0.1270
 1048YOPC   PO415404  16.268   7.723   5.669 -0.2528  0.0177  0.3359
 1048YOPC   GL115405  16.414   7.670   5.990 -0.0720 -0.1075 -0.0629
 1048YOPC   GL215406  16.687   7.368   6.067  0.2584  0.3881  0.2702
 1048YOPC   C1A15407  16.217   7.504   6.301 -0.2295  0.1256 -0.0403
 1048YOPC   D2A15408  15.868   7.474   6.497 -0.0691 -0.2055 -0.3265
 1048YOPC   C3A15409  15.724   7.285   6.740  0.1148 -0.0577  0.2434
 1048YOPC   C4A15410  15.462   6.918   6.717 -0.0723 -0.0250  0.1404
 1048YOPC   C1B15411  16.681   7.290   6.544 -0.1722  0.1933 -0.2795
 1048YOPC   C2B15412  16.719   7.274   6.989 -0.0548  0.2274 -0.0695
 1048YOPC   D3B15413  16.624   6.989   7.335 -0.0459  0.0399 -0.1727
 1048YOPC   C4B15414  16.736   6.524   7.355  0.2128 -0.2234 -0.0713
 1049YOPC   NC315415   6.210   3.349   5.384  0.0073 -0.2627 -0.3067
 1049YOPC   PO415416   5.912   3.108   5.464 -0.0741  0.2249  0.5004
 1049YOPC   GL115417   6.133   3.185   5.831 -0.3315 -0.0421 -0.1345
 1049YOPC   GL215418   6.436   3.029   5.970 -0.2065  0.1717 -0.1025
 1049YOPC   C1A15419   6.080   3.106   6.270 -0.1570  0.2309  0.1175
 1049YOPC   D2A15420   5.908   3.147   6.643 -0.1346  0.2662 -0.0783
 1049YOPC   C3A15421   6.093   3.161   7.085  0.3642 -0.2672  0.0602
 1049YOPC   C4A15422   6.313   3.157   7.491  0.0210  0.1603  0.1771
 1049YOPC   C1B15423   6.574   2.963   6.353  0.1564 -0.1456  0.0700
 1049YOPC   C2B15424   6.356   2.883   6.776  0.1613 -0.1976  0.2530
 1049YOPC   D3B15425   6.633   2.841   7.173  0.0258 -0.1166 -0.0502
 1049YOPC   C4B15426   6.815   3.140   7.448  0.0323  0.0179 -0.0263
 1050YOPC   NC315427  12.585  16.111   5.828  0.1738 -0.0372 -0.2166
 1050YOPC   PO415428  12.981  16.177   5.681  0.0933  0.0454 -0.1871
 1050YOPC   GL115429  12.880  16.437   6.005  0.0911 -0.2504 -0.2235
 1050YOPC   GL215430  12.959  16.088   6.179 -0.4150  0.2039  0.1689
 1050YOPC   C1A15431  12.706  16.786   6.386  0.0436  0.0314 -0.2989
 1050YOPC   D2A15432  12.531  16.780   6.826  0.0283 -0.0756 -0.2154
 1050YOPC   C3A15433  12.852  17.077   7.096 -0.1473 -0.0305 -0.0266
 1050YOPC   C4A15434  12.703  17.280   7.389  0.1073 -0.3028 -0.0716
 1050YOPC   C1B15435  13.097  16.085   6.478 -0.2309  0.1694  0.2564
 1050YOPC   C2B15436  13.212  16.296   6.845 -0.0400 -0.0771  0.1063
 1050YOPC   D3B15437  13.227  16.259   7.339 -0.3975 -0.3176 -0.1680
 1050YOPC   C4B15438  13.409  16.301   7.782  0.0816 -0.1078  0.0462
 1051YOPC   NC315439  17.424   8.065   5.529 -0.0516 -0.1626  0.3286
 1051YOPC   PO415440  17.126   8.389   5.488 -0.0026 -0.0195 -0.1277
 1051YOPC   GL115441  17.169   8.193   5.903  0.2223 -0.3226  0.0888
 1051YOPC   GL215442  17.511   8.360   6.005  0.2088 -0.0565 -0.0682
 1051YOPC   C1A15443  17.296   8.018   6.363 -0.3484  0.2762  0.3061
 1051YOPC   D2A15444  17.426   7.930   6.793 -0.1437 -0.1414  0.1613
 1051YOPC   C3A15445  17.388   7.595   6.819 -0.2735 -0.2473  0.3937
 1051YOPC   C4A15446  17.206   7.392   7.192  0.1626  0.0045  0.0610
 1051YOPC   C1B15447  17.334   8.501   6.488 -0.0095 -0.0234  0.1072
 1051YOPC   C2B15448  17.033   8.746   6.577  0.0308  0.2118  0.0465
 1051YOPC   D3B15449  16.960   8.746   7.069 -0.4462 -0.1201  0.0139
 1051YOPC   C4B15450  17.020   8.545   7.438 -0.2370 -0.2530 -0.2348
 1052YOPC   NC315451   3.493   1.756   5.005  0.0693 -0.1224 -0.1513
 1052YOPC   PO415452   3.442   1.711   5.476  0.0518 -0.1517  0.0321
 1052YOPC   GL115453   3.316   1.771   5.856 -0.2435  0.1372  0.2612
 1052YOPC   GL215454   3.489   1.702   6.068 -0.0622  0.4532  0.0077
 1052YOPC   C1A15455   3.071   1.913   6.279  0.1228  0.0311  0.0470
 1052YOPC   D2A15456   2.874   1.825   6.647  0.0002 -0.3160  0.0906
 1052YOPC   C3A15457   2.975   1.477   6.914 -0.1246  0.0570  0.2529
 1052YOPC   C4A15458   3.046   1.456   7.357 -0.2056  0.0728  0.2431
 1052YOPC   C1B15459   3.619   1.920   6.370 -0.2908 -0.1324  0.1129
 1052YOPC   C2B15460   3.430   2.173   6.572  0.0881 -0.1219 -0.2144
 1052YOPC   D3B15461   3.349   2.379   6.890  0.4868  0.4099 -0.0224
 1052YOPC   C4B15462   3.621   2.512   7.230  0.0047 -0.1966 -0.3073
 1053YOPC   NC315463   6.848  17.039   5.569 -0.3860 -0.3944  0.0737
 1053YOPC   PO415464   6.811  17.117   5.937 -0.1444 -0.0439  0.2253
 1053YOPC   GL115465   6.694  16.981   6.341  0.1743 -0.2031 -0.2322
 1053YOPC   GL215466   6.508  17.302   6.429 -0.2445  0.0688  0.1283
 1053YOPC   C1A15467   6.597  16.842   6.760 -0.2985  0.3435  0.0847
 1053YOPC   D2A15468   6.726  16.723   7.249  0.0676  0.0337  0.1121
 1053YOPC   C3A15469   7.134  16.675   7.465  0.0126  0.1652 -0.0350
 1053YOPC   C4A15470   7.433  16.542   7.735 -0.0569  0.1016  0.2843
 1053YOPC   C1B15471   6.079  17.452   6.739  0.1767 -0.0200  0.2969
 1053YOPC   C2B15472   5.694  17.473   6.808 -0.0452 -0.1905  0.1618
 1053YOPC   D3B15473   5.472  17.641   7.177  0.1658  0.0651 -0.2191
 1053YOPC   C4B15474   5.769  17.844   7.514  0.2095  0.1487 -0.0942
 1054YOPC   NC315475   5.984  16.657   5.834 -0.2705 -0.1302  0.0569
 1054YOPC   PO415476   6.099  16.404   6.178  0.1371 -0.0155 -0.1383
 1054YOPC   GL115477   6.075  16.338   6.628  0.3499  0.2498 -0.1204
 1054YOPC   GL215478   5.838  16.579   6.644 -0.3227 -0.1011 -0.1148
 1054YOPC   C1A15479   6.195  16.547   6.998 -0.1734  0.0349  0.2162
 1054YOPC   D2A15480   6.073  16.648   7.385  0.1292  0.0877  0.1506
 1054YOPC   C3A15481   6.030  17.081   7.511 -0.2456 -0.5792  0.1377
 1054YOPC   C4A15482   6.018  17.459   7.301  0.2891  0.1719 -0.0099
 1054YOPC   C1B15483   5.552  16.648   7.028  0.2582  0.1351 -0.1602
 1054YOPC   C2B15484   5.581  16.701   7.518  0.4370  0.0195  0.1849
 1054YOPC   D3B15485   5.850  16.764   7.843 -0.0109  0.3070 -0.1449
 1054YOPC   C4B15486   6.112  17.088   8.023 -0.0680  0.2454  0.1284
 1055YOPC   NC315487  10.764  14.206   5.962 -0.0606 -0.3156  0.3562
 1055YOPC   PO415488  10.612  14.658   5.859  0.0079 -0.0029 -0.2375
 1055YOPC   GL115489  10.708  14.746   6.281 -0.1577  0.2780 -0.0422
 1055YOPC   GL215490  10.595  15.034   6.297  0.0902 -0.0702 -0.2624
 1055YOPC   C1A15491  10.664  14.639   6.676 -0.2046  0.0506  0.1472
 1055YOPC   D2A15492  10.822  14.752   7.065 -0.2958  0.2427  0.0562
 1055YOPC   C3A15493  11.096  14.935   6.765 -0.1327 -0.0610 -0.1218
 1055YOPC   C4A15494  11.527  14.857   6.745 -0.0349 -0.3195  0.2533
 1055YOPC   C1B15495  10.616  15.120   6.610 -0.0639 -0.2887  0.1637
 1055YOPC   C2B15496  10.549  15.184   7.060 -0.0154 -0.0590 -0.1881
 1055YOPC   D3B15497  10.488  14.932   7.383  0.0254  0.0998 -0.2206
 1055YOPC   C4B15498  10.448  14.908   7.813  0.0678  0.1988  0.0707
 1056YOPC   NC315499   8.821   8.438   5.883 -0.4072 -0.1436 -0.2059
 1056YOPC   PO415500   8.655   8.066   5.815 -0.0468 -0.0080  0.3071
 1056YOPC   GL115501   8.759   8.022   6.202  0.0917  0.0421  0.0016
 1056YOPC   GL215502   8.812   8.322   6.376 -0.0376 -0.2258 -0.0884
 1056YOPC   C1A15503   8.735   7.935   6.680 -0.0386 -0.0127 -0.0380
 1056YOPC   D2A15504   8.968   7.649   7.098  0.0066 -0.3953 -0.2115
 1056YOPC   C3A15505   8.785   7.771   7.455  0.2672  0.4162 -0.2768
 1056YOPC   C4A15506   8.745   7.832   7.822 -0.3532 -0.0097 -0.1677
 1056YOPC   C1B15507   8.714   8.364   6.796 -0.3624  0.0968 -0.1327
 1056YOPC   C2B15508   8.743   8.319   7.140  0.0433  0.0334 -0.2783
 1056YOPC   D3B15509   8.615   8.189   7.542  0.1203  0.0773 -0.1081
 1056YOPC   C4B15510   8.201   8.033   7.816 -0.0410  0.0922  0.4874
 1057YOPC   NC315511  11.596   6.193   5.558 -0.1036 -0.3260  0.2767
 1057YOPC   PO415512  11.707   5.851   5.770  0.1463 -0.1761 -0.0712
 1057YOPC   GL115513  11.732   6.294   6.008 -0.3113 -0.2141 -0.0708
 1057YOPC   GL215514  11.977   6.533   6.029 -0.2398  0.0395 -0.1294
 1057YOPC   C1A15515  11.646   6.064   6.355 -0.1473 -0.2179  0.0127
 1057YOPC   D2A15516  11.546   6.108   6.773 -0.0328  0.1012  0.0336
 1057YOPC   C3A15517  11.272   6.396   6.928 -0.0392 -0.0007 -0.3375
 1057YOPC   C4A15518  11.083   6.684   7.230  0.0567 -0.1755 -0.2027
 1057YOPC   C1B15519  11.887   6.533   6.491  0.1520 -0.0179  0.0059
 1057YOPC   C2B15520  11.850   6.491   6.916  0.0421 -0.1735  0.1981
 1057YOPC   D3B15521  11.612   6.257   7.306 -0.1493 -0.0430  0.0385
 1057YOPC   C4B15522  11.514   5.872   7.455  0.1432  0.1835 -0.0234
 1058YOPC   NC315523   5.700   8.773   5.536 -0.0649 -0.1865 -0.0765
 1058YOPC   PO415524   5.675   8.833   5.975  0.1132 -0.2047  0.1533
 1058YOPC   GL115525   5.853   8.994   6.356  0.0046  0.1654 -0.2482
 1058YOPC   GL215526   5.506   9.230   6.518 -0.0867  0.2078 -0.0750
 1058YOPC   C1A15527   6.097   8.897   6.687  0.0960 -0.0853 -0.0521
 1058YOPC   D2A15528   6.480   9.024   6.888  0.1110  0.3305  0.4636
 1058YOPC   C3A15529   6.487   9.203   7.294  0.1018  0.2360  0.1087
 1058YOPC   C4A15530   6.369   9.286   7.631 -0.0868  0.2223 -0.2664
 1058YOPC   C1B15531   5.435   9.271   6.914 -0.0843  0.0794  0.2121
 1058YOPC   C2B15532   5.141   9.353   7.297 -0.1213 -0.3472  0.0640
 1058YOPC   D3B15533   5.161   9.157   7.595 -0.0662 -0.2306  0.0118
 1058YOPC   C4B15534   4.889   9.352   7.840 -0.2891  0.2660  0.1270
 1059YOPC   NC315535   5.367  17.137   6.054 -0.1002 -0.2939 -0.2115
 1059YOPC   PO415536   5.831  17.140   6.123 -0.1337  0.1660 -0.0298
 1059YOPC   GL115537   5.743  17.063   6.556  0.2058  0.1236 -0.0786
 1059YOPC   GL215538   5.437  17.062   6.577 -0.0797  0.3394  0.1914
 1059YOPC   C1A15539   5.935  16.993   6.922  0.0700  0.0147 -0.0620
 1059YOPC   D2A15540   6.316  17.028   7.122 -0.0537 -0.1944  0.1859
 1059YOPC   C3A15541   6.679  17.256   6.935 -0.1319  0.0950  0.0743
 1059YOPC   C4A15542   7.046  17.034   6.746  0.1084 -0.3038 -0.0608
 1059YOPC   C1B15543   5.412  17.122   7.017  0.3115 -0.1194  0.0731
 1059YOPC   C2B15544   5.527  17.265   7.450  0.5269 -0.0648  0.0090
 1059YOPC   D3B15545   5.344  17.050   7.860  0.1637 -0.0109  0.3259
 1059YOPC   C4B15546   5.533  16.940   8.176 -0.2103  0.1319  0.3219
 1060YOPC   NC315547  10.295  15.025   5.843  0.0880  0.1733 -0.3932
 1060YOPC   PO415548  10.470  15.498   6.018  0.2322 -0.5158 -0.0325
 1060YOPC   GL115549  10.555  15.625   6.442 -0.1142 -0.0264  0.1082
 1060YOPC   GL215550  10.203  15.746   6.599 -0.0676  0.1333  0.2680
 1060YOPC   C1A15551  10.609  15.649   6.915  0.1144  0.2812  0.0855
 1060YOPC   D2A15552  10.758  15.668   7.303 -0.1337 -0.0356  0.2514
 1060YOPC   C3A15553  11.040  15.642   7.589  0.2406 -0.0326  0.0762
 1060YOPC   C4A15554  11.394  15.692   7.873 -0.0664 -0.0621  0.0559
 1060YOPC   C1B15555  10.109  15.503   6.976  0.1825  0.1434 -0.1520
 1060YOPC   C2B15556  10.128  15.456   7.469 -0.2772  0.0896  0.0148
 1060YOPC   D3B15557  10.051  15.102   7.667 -0.1694 -0.1385 -0.0161
 1060YOPC   C4B15558   9.878  14.669   7.714  0.1337 -0.1104  0.0635
 1061YOPC   NC315559  15.417   8.801   5.296  0.2002 -0.1287 -0.2323
 1061YOPC   PO415560  15.763   9.062   5.231 -0.0648 -0.1204  0.5244
 1061YOPC   GL115561  15.756   9.137   5.693  0.2072 -0.1274  0.0030
 1061YOPC   GL215562  15.567   9.307   5.923  0.1579  0.0932  0.3811
 1061YOPC   C1A15563  15.929   9.002   6.158 -0.1218  0.1487  0.0411
 1061YOPC   D2A15564  16.198   9.027   6.437  0.1129  0.2665  0.0295
 1061YOPC   C3A15565  16.057   8.730   6.760  0.0682  0.2375  0.0354
 1061YOPC   C4A15566  16.018   8.811   7.320  0.2482  0.0215  0.3921
 1061YOPC   C1B15567  15.333   9.188   6.340  0.0775 -0.1092  0.1653
 1061YOPC   C2B15568  15.050   9.205   6.812 -0.0653 -0.2448 -0.0235
 1061YOPC   D3B15569  15.030   8.985   7.086  0.0375  0.0687 -0.1764
 1061YOPC   C4B15570  15.038   8.560   7.046  0.1155  0.0703 -0.1574
 1062YOPC   NC315571  13.842   5.931   4.981 -0.2107  0.0617 -0.2984
 1062YOPC   PO415572  14.015   5.803   5.427  0.1978 -0.0298 -0.0699
 1062YOPC   GL115573  14.316   5.682   5.700 -0.1709  0.0872 -0.2753
 1062YOPC   GL215574  14.245   5.940   5.840  0.3396 -0.2065  0.2220
 1062YOPC   C1A15575  14.547   5.576   6.124  0.1603  0.1114  0.0767
 1062YOPC   D2A15576  14.922   5.708   6.310  0.3845  0.1806  0.4380
 1062YOPC   C3A15577  15.063   5.906   6.761  0.0925 -0.1693  0.0308
 1062YOPC   C4A15578  15.025   6.129   7.191 -0.0192  0.3842 -0.1940
 1062YOPC   C1B15579  13.981   5.773   6.190  0.2699 -0.1011 -0.1524
 1062YOPC   C2B15580  13.740   5.980   6.456  0.2978 -0.0736 -0.0038
 1062YOPC   D3B15581  13.697   6.108   6.879  0.1710 -0.3287  0.0717
 1062YOPC   C4B15582  13.871   6.467   7.022  0.0983 -0.1017  0.0444
 1063YOPC   NC315583  14.323   4.763   5.668  0.1222  0.2494 -0.0097
 1063YOPC   PO415584  14.419   5.187   5.394 -0.3285 -0.0221 -0.0301
 1063YOPC   GL115585  14.522   5.179   5.849 -0.0710 -0.5323  0.2746
 1063YOPC   GL215586  14.321   5.001   6.170 -0.0900 -0.1926 -0.0781
 1063YOPC   C1A15587  14.816   5.184   6.279  0.2110  0.0465  0.0589
 1063YOPC   D2A15588  14.727   5.459   6.694 -0.2310  0.1753 -0.1802
 1063YOPC   C3A15589  14.967   5.491   7.009 -0.0795  0.1032 -0.1319
 1063YOPC   C4A15590  15.285   5.249   7.270 -0.6737  0.2325  0.0195
 1063YOPC   C1B15591  14.177   5.343   6.301  0.1934 -0.1662  0.1072
 1063YOPC   C2B15592  14.260   5.581   6.595 -0.1204  0.2741  0.0617
 1063YOPC   D3B15593  14.140   5.877   6.834  0.1691 -0.0499  0.0544
 1063YOPC   C4B15594  13.961   5.894   7.257 -0.1549 -0.1656  0.1144
 1064YOPC   NC315595  11.482   7.047   5.411  0.1227 -0.0760  0.1462
 1064YOPC   PO415596  11.339   6.685   5.512  0.1232  0.0284 -0.0341
 1064YOPC   GL115597  11.521   6.799   5.883  0.1538 -0.0840 -0.0491
 1064YOPC   GL215598  11.363   6.568   6.060 -0.0778 -0.0898  0.0795
 1064YOPC   C1A15599  11.709   6.943   6.279  0.3461  0.2712 -0.1150
 1064YOPC   D2A15600  12.154   7.098   6.418  0.0401 -0.1658  0.2447
 1064YOPC   C3A15601  12.331   7.411   6.798  0.1527 -0.1815 -0.1509
 1064YOPC   C4A15602  12.531   7.536   7.233  0.3302  0.0648 -0.1123
 1064YOPC   C1B15603  11.242   6.390   6.379  0.0600 -0.1311 -0.1924
 1064YOPC   C2B15604  11.031   6.174   6.505 -0.2763 -0.4638 -0.1548
 1064YOPC   D3B15605  11.216   5.722   6.493  0.3503 -0.2370 -0.0525
 1064YOPC   C4B15606  11.490   5.515   6.302 -0.0414  0.0935  0.1898
 1065YOPC   NC315607  16.622   4.974   4.979 -0.0798 -0.3078 -0.3827
 1065YOPC   PO415608  16.986   5.022   5.075 -0.5103  0.2451 -0.1847
 1065YOPC   GL115609  17.113   5.176   5.524 -0.2647  0.2346 -0.0884
 1065YOPC   GL215610  17.119   5.431   5.566  0.2715  0.1640 -0.0692
 1065YOPC   C1A15611  17.301   5.146   5.908 -0.3205 -0.0090  0.1899
 1065YOPC   D2A15612  17.232   5.365   6.315  0.0370 -0.2916  0.0858
 1065YOPC   C3A15613  17.505   5.346   6.609  0.0014 -0.0899  0.1730
 1065YOPC   C4A15614  17.704   5.622   6.948 -0.2742  0.1106  0.4103
 1065YOPC   C1B15615  16.935   5.518   5.964 -0.0412 -0.2306  0.0053
 1065YOPC   C2B15616  16.722   5.437   6.389  0.3150  0.0169 -0.2458
 1065YOPC   D3B15617  16.891   5.489   6.790  0.0739  0.0823  0.0825
 1065YOPC   C4B15618  17.230   5.680   6.915 -0.0699 -0.3302 -0.0843
 1066YOPC   NC315619  14.066  18.203   5.393  0.1726 -0.3124 -0.2350
 1066YOPC   PO415620  14.357  17.914   5.568  0.4342 -0.1425 -0.2499
 1066YOPC   GL115621  14.330  17.939   6.039  0.0045 -0.0306 -0.2903
 1066YOPC   GL215622  14.300  17.619   6.110  0.3066 -0.0000  0.1467
 1066YOPC   C1A15623  14.254  18.047   6.459 -0.1201  0.0308 -0.1412
 1066YOPC   D2A15624  14.441  18.173   6.858 -0.2705  0.5385 -0.0247
 1066YOPC   C3A15625  14.528  18.115   7.324 -0.0861  0.0671 -0.0977
 1066YOPC   C4A15626  14.780  18.370   7.461 -0.0866 -0.1468  0.0935
 1066YOPC   C1B15627  14.426  17.553   6.566 -0.0027  0.2034 -0.1598
 1066YOPC   C2B15628  14.486  17.597   7.042  0.0131  0.2250  0.2109
 1066YOPC   D3B15629  14.611  17.439   7.385 -0.2203  0.1443 -0.1819
 1066YOPC   C4B15630  14.659  17.401   7.779 -0.2245  0.0802 -0.0371
 1067YOPC   NC315631  18.228  13.160   5.556  0.2800 -0.3626 -0.0851
 1067YOPC   PO415632  18.481  13.564   5.686 -0.5067  0.2118  0.0411
 1067YOPC   GL115633  18.334  13.403   6.109 -0.0770  0.0416  0.1170
 1067YOPC   GL215634  18.251  13.788   6.335 -0.0275  0.1437 -0.2307
 1067YOPC   C1A15635  18.500  13.368   6.453 -0.0165 -0.0504  0.0919
 1067YOPC   D2A15636  18.740  13.472   6.783  0.0410  0.1972  0.3227
 1067YOPC   C3A15637  18.982  13.313   7.221  0.0903  0.0100 -0.1465
 1067YOPC   C4A15638  18.966  12.822   7.391  0.1620 -0.1520  0.1611
 1067YOPC   C1B15639  18.081  14.017   6.727 -0.1375  0.2150  0.0914
 1067YOPC   C2B15640  17.867  14.258   7.101 -0.1736 -0.0790 -0.0345
 1067YOPC   D3B15641  18.068  14.329   7.482 -0.2701  0.1280  0.3239
 1067YOPC   C4B15642  18.450  14.186   7.618 -0.1094 -0.0864  0.0475
 1068YOPC   NC315643   9.077   0.319   5.187 -0.1389 -0.0923 -0.1624
 1068YOPC   PO415644   8.842   0.552   5.571  0.0942 -0.1737 -0.0869
 1068YOPC   GL115645   8.960   0.518   6.017 -0.2143  0.3102 -0.3579
 1068YOPC   GL215646   8.730   0.702   6.176  0.1856  0.2994  0.0816
 1068YOPC   C1A15647   8.980   0.276   6.319 -0.1043  0.0901 -0.1873
 1068YOPC   D2A15648   8.939   0.119   6.773  0.1037  0.0004 -0.3359
 1068YOPC   C3A15649   8.984   0.400   7.144 -0.1475 -0.1993  0.2250
 1068YOPC   C4A15650   8.962   0.424   7.584  0.2283  0.4781 -0.1958
 1068YOPC   C1B15651   8.697   0.592   6.640 -0.0553  0.0845  0.0217
 1068YOPC   C2B15652   8.532   0.597   7.044 -0.1993  0.1785  0.3290
 1068YOPC   D3B15653   8.258   0.797   7.293  0.0687  0.1225 -0.0791
 1068YOPC   C4B15654   7.979   1.171   7.631 -0.3487  0.0518  0.0069
 1069YOPC   NC315655   5.745  12.182   5.897  0.0473  0.0484  0.1344
 1069YOPC   PO415656   6.124  11.990   6.158 -0.0598  0.0749  0.3101
 1069YOPC   GL115657   6.040  12.023   6.573 -0.2162 -0.0345  0.0290
 1069YOPC   GL215658   6.379  12.006   6.788  0.0669 -0.0034 -0.0306
 1069YOPC   C1A15659   5.963  12.346   6.864  0.0290  0.3974 -0.2245
 1069YOPC   D2A15660   5.652  12.222   7.197 -0.2256 -0.1143 -0.0539
 1069YOPC   C3A15661   5.437  12.354   7.509  0.0882  0.2016  0.1175
 1069YOPC   C4A15662   5.131  12.162   7.734 -0.0009  0.1729 -0.1257
 1069YOPC   C1B15663   6.473  11.879   7.195 -0.1164 -0.3041  0.3668
 1069YOPC   C2B15664   6.453  11.777   7.592  0.1719  0.2296 -0.1329
 1069YOPC   D3B15665   6.113  11.691   7.819 -0.2592 -0.1460 -0.2084
 1069YOPC   C4B15666   6.068  11.322   8.140  0.0997 -0.1583 -0.1330
 1070YOPC   NC315667  18.343  13.982   5.880 -0.3208  0.1407 -0.1285
 1070YOPC   PO415668  17.888  14.127   6.000 -0.0114  0.0818  0.3833
 1070YOPC   GL115669  17.736  14.014   6.377  0.0108  0.0663 -0.2584
 1070YOPC   GL215670  17.535  14.296   6.346 -0.0994  0.0449  0.0739
 1070YOPC   C1A15671  17.588  13.790   6.790  0.1861 -0.0696 -0.1642
 1070YOPC   D2A15672  17.608  13.722   7.166 -0.2334 -0.0033  0.0911
 1070YOPC   C3A15673  17.676  14.025   7.514  0.1522 -0.0540  0.3125
 1070YOPC   C4A15674  17.935  14.024   7.906  0.0621  0.0707  0.2024
 1070YOPC   C1B15675  17.375  14.584   6.634  0.1066 -0.3456 -0.1210
 1070YOPC   C2B15676  17.288  14.861   6.988 -0.0556 -0.0551 -0.1751
 1070YOPC   D3B15677  17.583  15.239   7.026 -0.4400 -0.1671  0.1120
 1070YOPC   C4B15678  17.953  15.355   7.276 -0.1944 -0.0401 -0.1780
 1071YOPC   NC315679   4.738  17.727   5.740 -0.2496  0.0305  0.3686
 1071YOPC   PO415680   5.002  17.507   5.964 -0.2133 -0.1593  0.1155
 1071YOPC   GL115681   4.840  17.346   6.398 -0.1054  0.1044  0.0720
 1071YOPC   GL215682   4.647  17.085   6.445 -0.0036 -0.0395 -0.0574
 1071YOPC   C1A15683   5.137  17.481   6.725  0.0220  0.1556 -0.0076
 1071YOPC   D2A15684   5.426  17.848   6.759  0.0317 -0.2737 -0.2063
 1071YOPC   C3A15685   5.373  18.179   7.064  0.2959  0.0582 -0.1113
 1071YOPC   C4A15686   4.951  18.445   7.278 -0.0917 -0.0958  0.3535
 1071YOPC   C1B15687   4.763  17.239   6.883 -0.1393 -0.4728 -0.2297
 1071YOPC   C2B15688   4.926  17.317   7.255  0.1198  0.1502 -0.0331
 1071YOPC   D3B15689   5.123  17.491   7.637  0.2333 -0.0482  0.0739
 1071YOPC   C4B15690   5.501  17.659   7.933  0.2468 -0.0263  0.0604
 1072YOPC   NC315691   6.313  18.001   6.088 -0.1083 -0.3981 -0.1484
 1072YOPC   PO415692   5.972  18.322   5.956 -0.0928  0.1206  0.1152
 1072YOPC   GL115693   5.898  18.292   6.302 -0.0443 -0.2512 -0.2917
 1072YOPC   GL215694   6.147  18.404   6.448  0.0667  0.0066  0.0777
 1072YOPC   C1A15695   5.874  17.919   6.597  0.0049 -0.0494 -0.2581
 1072YOPC   D2A15696   5.901  17.859   7.031 -0.0468  0.0273  0.0075
 1072YOPC   C3A15697   5.832  18.321   7.198  0.0083 -0.1078 -0.0491
 1072YOPC   C4A15698   5.940  18.681   7.401 -0.0814  0.1577 -0.1315
 1072YOPC   C1B15699   6.142  18.319   6.843  0.2682  0.1589  0.1333
 1072YOPC   C2B15700   6.303  18.223   7.281 -0.0614  0.1041  0.0800
 1072YOPC   D3B15701   6.101  18.206   7.637 -0.1172  0.2826  0.0479
 1072YOPC   C4B15702   5.942  17.978   7.991  0.1287  0.0126 -0.0001
 1073YOPC   NC315703   3.927  11.161   5.461  0.1097  0.3349 -0.1689
 1073YOPC   PO415704   3.526  10.920   5.512 -0.0645 -0.1630  0.2732
 1073YOPC   GL115705   3.336  10.976   5.931  0.0682  0.1951  0.0816
 1073YOPC   GL215706   3.044  10.999   6.023 -0.0091  0.1839 -0.1088
 1073YOPC   C1A15707   3.409  10.843   6.406  0.2089 -0.2244 -0.0114
 1073YOPC   D2A15708   3.543  10.808   6.824 -0.1289 -0.1237  0.1174
 1073YOPC   C3A15709   3.845  10.690   7.121 -0.1307 -0.2162  0.0871
 1073YOPC   C4A15710   4.013  10.701   7.508 -0.0050  0.2392 -0.0235
 1073YOPC   C1B15711   3.023  11.195   6.453 -0.1157 -0.3793  0.0156
 1073YOPC   C2B15712   3.012  11.506   6.651 -0.0023  0.2131  0.0876
 1073YOPC   D3B15713   3.198  11.635   7.080  0.0690 -0.1694  0.1617
 1073YOPC   C4B15714   3.045  12.009   7.142 -0.0725 -0.3065  0.0653
 1074YOPC   NC315715   0.617  16.880   6.113 -0.1467  0.1267 -0.0934
 1074YOPC   PO415716   0.431  17.305   6.028  0.4523  0.0754 -0.0557
 1074YOPC   GL115717   0.435  17.616   6.344 -0.1756  0.3305  0.0355
 1074YOPC   GL215718   0.198  17.813   6.470 -0.0024 -0.0528  0.4399
 1074YOPC   C1A15719   0.471  17.735   6.851 -0.2656 -0.0300 -0.0059
 1074YOPC   D2A15720   0.546  17.902   7.176  0.2532 -0.3285 -0.1494
 1074YOPC   C3A15721   0.228  17.850   7.516 -0.0057 -0.2853  0.0196
 1074YOPC   C4A15722   0.314  17.692   7.921  0.2970 -0.0734  0.0532
 1074YOPC   C1B15723  -0.060  17.846   6.749  0.3214 -0.0628 -0.2547
 1074YOPC   C2B15724  -0.201  17.962   7.123 -0.2021  0.1301  0.1298
 1074YOPC   D3B15725  -0.303  17.798   7.559  0.0303  0.0440 -0.2113
 1074YOPC   C4B15726  -0.157  17.614   7.824  0.1372  0.1477  0.1643
 1075YOPC   NC315727  15.347   3.922   5.078  0.0841  0.1910  0.1122
 1075YOPC   PO415728  15.462   4.265   5.266  0.1983  0.3114  0.0108
 1075YOPC   GL115729  15.687   4.346   5.707 -0.5661  0.2321  0.0961
 1075YOPC   GL215730  15.982   4.488   5.770 -0.2595  0.2759  0.0417
 1075YOPC   C1A15731  15.696   4.121   6.102  0.4887 -0.3040  0.1795
 1075YOPC   D2A15732  15.735   4.130   6.521 -0.2311  0.0954 -0.1075
 1075YOPC   C3A15733  15.832   4.084   6.831 -0.3522 -0.0081 -0.0876
 1075YOPC   C4A15734  16.227   4.192   7.004 -0.1018 -0.0932  0.0704
 1075YOPC   C1B15735  16.044   4.516   6.121  0.0601 -0.1754 -0.0078
 1075YOPC   C2B15736  16.171   4.504   6.560 -0.0683 -0.2001 -0.0441
 1075YOPC   D3B15737  16.048   4.678   6.907  0.4376 -0.0865  0.0273
 1075YOPC   C4B15738  16.106   5.047   7.103 -0.0315 -0.0661 -0.4223
 1076YOPC   NC315739  12.128   0.504   5.516 -0.2095  0.1126  0.0749
 1076YOPC   PO415740  11.942   0.874   5.684 -0.0738  0.0978 -0.3981
 1076YOPC   GL115741  11.886   0.772   6.144  0.1641 -0.0563  0.0070
 1076YOPC   GL215742  11.655   0.933   6.259 -0.3697  0.0772  0.1652
 1076YOPC   C1A15743  12.155   0.684   6.479 -0.4445  0.0449 -0.0946
 1076YOPC   D2A15744  12.108   0.512   6.883 -0.1219  0.0711 -0.0100
 1076YOPC   C3A15745  12.421   0.423   6.994 -0.1594 -0.0434  0.3642
 1076YOPC   C4A15746  12.707   0.124   7.038 -0.0965 -0.0524  0.0173
 1076YOPC   C1B15747  11.925   1.117   6.535  0.2115 -0.1718 -0.2512
 1076YOPC   C2B15748  12.199   1.027   6.910 -0.1330  0.1735 -0.0278
 1076YOPC   D3B15749  12.513   1.023   7.134  0.2473 -0.3403 -0.1251
 1076YOPC   C4B15750  12.869   1.119   7.382  0.0714 -0.0071  0.0969
 1077YOPC   NC315751  10.831   7.486   5.338  0.1650  0.1624  0.1821
 1077YOPC   PO415752  10.535   7.858   5.486  0.2207 -0.1641 -0.1065
 1077YOPC   GL115753  10.491   7.916   5.931  0.0272  0.2894 -0.0497
 1077YOPC   GL215754  10.834   8.131   6.091 -0.0840  0.0349  0.2157
 1077YOPC   C1A15755  10.518   7.760   6.342  0.2111 -0.2129 -0.2543
 1077YOPC   D2A15756  10.217   7.706   6.653  0.0203 -0.1302  0.2871
 1077YOPC   C3A15757  10.152   7.763   7.096 -0.1613 -0.1939  0.0393
 1077YOPC   C4A15758  10.253   8.189   7.255  0.0172  0.1035  0.1526
 1077YOPC   C1B15759  10.960   7.946   6.523  0.2746 -0.4034 -0.0303
 1077YOPC   C2B15760  11.429   7.830   6.575 -0.0601  0.0077 -0.1986
 1077YOPC   D3B15761  11.423   7.847   6.953 -0.2490 -0.0243 -0.2127
 1077YOPC   C4B15762  11.462   7.582   7.221  0.1487  0.2117 -0.2493
 1078YOPC   NC315763   2.934   6.835   5.294  0.1358 -0.0305 -0.1517
 1078YOPC   PO415764   2.581   6.669   5.172 -0.1768  0.1175 -0.1424
 1078YOPC   GL115765   2.479   6.879   5.517  0.1345  0.1966  0.2726
 1078YOPC   GL215766   2.729   7.168   5.570  0.0357 -0.2647  0.0192
 1078YOPC   C1A15767   2.298   6.786   5.950 -0.0483  0.3048  0.0807
 1078YOPC   D2A15768   2.093   6.689   6.331 -0.0623 -0.2389 -0.1631
 1078YOPC   C3A15769   2.044   6.996   6.731  0.1096 -0.1209  0.1006
 1078YOPC   C4A15770   1.848   7.082   7.194  0.0766 -0.3085 -0.0668
 1078YOPC   C1B15771   2.798   6.895   5.927 -0.0152 -0.1914 -0.0216
 1078YOPC   C2B15772   2.597   6.571   6.244 -0.0501  0.1392  0.0672
 1078YOPC   D3B15773   2.600   6.656   6.628  0.0167 -0.3146  0.0899
 1078YOPC   C4B15774   2.896   6.741   7.058 -0.0461  0.0840  0.0759
 1079YOPC   NC315775   7.886   9.031   5.883  0.0472  0.2199  0.0668
 1079YOPC   PO415776   7.411   8.842   5.825  0.1312 -0.0710 -0.0177
 1079YOPC   GL115777   7.190   8.935   6.212 -0.0005 -0.0721  0.0994
 1079YOPC   GL215778   6.942   9.158   6.323 -0.2484 -0.0138  0.0257
 1079YOPC   C1A15779   7.336   9.041   6.576 -0.1048  0.1137  0.2613
 1079YOPC   D2A15780   7.418   9.098   7.082 -0.2236 -0.2914 -0.0347
 1079YOPC   C3A15781   7.806   9.343   7.244 -0.0847  0.1613 -0.2809
 1079YOPC   C4A15782   7.950   9.717   7.509 -0.0134 -0.0538 -0.1418
 1079YOPC   C1B15783   6.895   9.293   6.728  0.2719  0.2001  0.0849
 1079YOPC   C2B15784   7.037   9.437   7.157 -0.0198 -0.1988  0.2914
 1079YOPC   D3B15785   6.828   9.454   7.644 -0.0706 -0.0002 -0.3192
 1079YOPC   C4B15786   6.698   9.736   7.909 -0.2484 -0.0790 -0.0013
 1080YOPC   NC315787   5.508  11.015   5.529 -0.2782  0.1902 -0.0951
 1080YOPC   PO415788   5.255  11.007   5.997 -0.1562  0.1647 -0.1834
 1080YOPC   GL115789   5.225  10.900   6.419  0.0769  0.0635  0.1492
 1080YOPC   GL215790   5.541  10.693   6.463 -0.0609  0.1943 -0.2197
 1080YOPC   C1A15791   5.312  11.175   6.756 -0.0477 -0.1888 -0.2737
 1080YOPC   D2A15792   5.409  11.139   7.167  0.0570 -0.4676 -0.0980
 1080YOPC   C3A15793   5.129  11.310   7.492  0.0808 -0.1957  0.0735
 1080YOPC   C4A15794   4.823  11.131   7.677 -0.3671  0.0309 -0.1858
 1080YOPC   C1B15795   5.552  10.723   6.938  0.3429 -0.0949 -0.0899
 1080YOPC   C2B15796   5.556  10.654   7.347 -0.1039  0.0774 -0.0112
 1080YOPC   D3B15797   5.469  10.931   7.760  0.0156  0.1035 -0.2051
 1080YOPC   C4B15798   5.696  10.979   8.165 -0.1215 -0.2781 -0.2808
 1081YOPC   NC315799  13.062   0.549   5.398 -0.2496  0.2911  0.1939
 1081YOPC   PO415800  12.704   0.423   5.424  0.0364  0.0590  0.0185
 1081YOPC   GL115801  12.824   0.278   5.799  0.0641  0.1290  0.1420
 1081YOPC   GL215802  12.834   0.380   6.051  0.0834  0.0780 -0.1189
 1081YOPC   C1A15803  13.097  -0.024   6.114 -0.1364 -0.0292 -0.1502
 1081YOPC   D2A15804  13.292  -0.085   6.466 -0.0178  0.1559  0.0553
 1081YOPC   C3A15805  13.231   0.149   6.856 -0.0540 -0.2027  0.3756
 1081YOPC   C4A15806  13.209   0.284   7.261  0.1390 -0.0026 -0.1581
 1081YOPC   C1B15807  12.712   0.779   6.257 -0.1213 -0.5730  0.1820
 1081YOPC   C2B15808  12.657   0.707   6.645  0.1668 -0.2647 -0.1078
 1081YOPC   D3B15809  13.014   0.602   6.899 -0.0071  0.0541  0.1531
 1081YOPC   C4B15810  13.295   0.767   7.198  0.0131 -0.0740  0.0614
 1082YOPC   NC315811   8.057  17.173   6.107  0.0707 -0.0121  0.0589
 1082YOPC   PO415812   8.518  17.131   6.257  0.1627 -0.0840  0.1068
 1082YOPC   GL115813   8.739  17.392   6.562  0.0118  0.0922 -0.0774
 1082YOPC   GL215814   8.820  17.763   6.573  0.2507  0.0672  0.1144
 1082YOPC   C1A15815   8.971  17.473   6.968 -0.0228 -0.0534 -0.0931
 1082YOPC   D2A15816   9.241  17.340   7.291  0.0683  0.1644 -0.2011
 1082YOPC   C3A15817   9.338  17.607   7.716  0.0198  0.4438 -0.0902
 1082YOPC   C4A15818   9.296  17.887   8.067 -0.1057 -0.0669  0.0554
 1082YOPC   C1B15819   8.801  17.970   6.977  0.0809  0.1993  0.0819
 1082YOPC   C2B15820   8.826  18.311   7.200  0.1708 -0.1274 -0.2585
 1082YOPC   D3B15821   8.665  18.403   7.582  0.2987  0.0945 -0.1454
 1082YOPC   C4B15822   8.480  18.784   7.476  0.1631  0.0587 -0.1266
 1083YOPC   NC315823   1.824  12.757   5.884  0.2087  0.2048  0.0111
 1083YOPC   PO415824   1.602  13.044   6.155 -0.0461  0.4310  0.0159
 1083YOPC   GL115825   1.468  12.854   6.539  0.1152  0.0290  0.4717
 1083YOPC   GL215826   1.097  12.803   6.600 -0.0843 -0.0056 -0.3973
 1083YOPC   C1A15827   1.371  12.670   6.962  0.2678 -0.1691  0.3500
 1083YOPC   D2A15828   1.415  12.437   7.347  0.1282  0.0637  0.1563
 1083YOPC   C3A15829   1.453  12.334   7.762  0.3701  0.0143 -0.3841
 1083YOPC   C4A15830   1.373  12.554   8.179 -0.1501 -0.0591 -0.2947
 1083YOPC   C1B15831   0.704  13.162   6.695  0.0457 -0.0921 -0.0463
 1083YOPC   C2B15832   0.726  13.714   6.808 -0.4911  0.4173  0.0589
 1083YOPC   D3B15833   0.784  13.992   7.104  0.0402 -0.1294 -0.0952
 1083YOPC   C4B15834   0.828  13.969   7.533  0.2519  0.0181 -0.0697
 1084YOPC   NC315835   5.178   8.697   5.910  0.0734  0.1273  0.4567
 1084YOPC   PO415836   4.821   8.432   6.010  0.0781 -0.2060 -0.0109
 1084YOPC   GL115837   4.761   8.233   6.394  0.0699  0.0353 -0.0673
 1084YOPC   GL215838   4.959   7.850   6.456  0.0002  0.3310  0.4165
 1084YOPC   C1A15839   4.730   8.223   6.811 -0.0541  0.2725  0.0136
 1084YOPC   D2A15840   4.845   8.448   7.259  0.0990  0.0093  0.0018
 1084YOPC   C3A15841   4.703   8.442   7.619 -0.0918 -0.0559  0.0698
 1084YOPC   C4A15842   4.511   8.769   7.841 -0.1393  0.3676  0.0305
 1084YOPC   C1B15843   5.107   7.770   6.951  0.2816 -0.3205 -0.0474
 1084YOPC   C2B15844   4.994   7.976   7.178  0.1196 -0.4711  0.0323
 1084YOPC   D3B15845   4.620   7.998   7.292 -0.0973  0.0679  0.2169
 1084YOPC   C4B15846   4.379   8.212   7.228  0.1167  0.1470 -0.1061
 1085YOPC   NC315847  12.066  10.797   5.499 -0.1551 -0.0583  0.0284
 1085YOPC   PO415848  12.222  10.863   5.948 -0.3194  0.0935 -0.1710
 1085YOPC   GL115849  12.267  10.819   6.371 -0.0158  0.0875  0.0333
 1085YOPC   GL215850  12.611  10.861   6.520  0.1364 -0.0556 -0.1277
 1085YOPC   C1A15851  12.193  10.883   6.789  0.2112  0.2264 -0.1712
 1085YOPC   D2A15852  12.155  10.959   7.199 -0.0683  0.0559 -0.1367
 1085YOPC   C3A15853  11.882  11.055   7.521  0.0279 -0.0814 -0.0417
 1085YOPC   C4A15854  11.834  11.144   7.910 -0.0282 -0.2801 -0.0785
 1085YOPC   C1B15855  12.656  11.069   6.921 -0.0381 -0.1478 -0.0725
 1085YOPC   C2B15856  12.701  11.189   7.395  0.1108  0.0411  0.0558
 1085YOPC   D3B15857  12.362  11.154   7.674 -0.0349 -0.1183 -0.1006
 1085YOPC   C4B15858  12.268  10.920   8.057  0.0169  0.0620  0.2873
 1086YOPC   NC315859  11.231   0.257   5.754  0.0153  0.0503  0.0982
 1086YOPC   PO415860  11.080   0.647   5.839  0.2404  0.1575  0.1724
 1086YOPC   GL115861  11.315   0.592   6.198 -0.0536  0.0241  0.0276
 1086YOPC   GL215862  11.155   0.562   6.488  0.2377  0.1082 -0.0381
 1086YOPC   C1A15863  11.614   0.597   6.611 -0.1860  0.1420 -0.3501
 1086YOPC   D2A15864  11.797   0.782   7.102  0.0253  0.2288  0.0688
 1086YOPC   C3A15865  12.087   0.736   7.434 -0.1645 -0.1427 -0.1972
 1086YOPC   C4A15866  12.518   0.883   7.629 -0.0553 -0.2675 -0.4038
 1086YOPC   C1B15867  11.255   0.697   6.904  0.0894  0.2584 -0.2958
 1086YOPC   C2B15868  11.227   0.763   7.390  0.0942  0.2259  0.0302
 1086YOPC   D3B15869  11.355   0.381   7.687  0.1318  0.1425  0.1155
 1086YOPC   C4B15870  11.353  -0.124   7.662  0.0421  0.0137 -0.1995
 1087YOPC   NC315871   4.165  11.778   6.294 -0.0388 -0.0919 -0.3011
 1087YOPC   PO415872   3.796  11.734   6.069  0.0922  0.4541  0.2586
 1087YOPC   GL115873   3.721  11.734   6.407 -0.1852 -0.0475  0.2505
 1087YOPC   GL215874   3.918  11.582   6.629  0.0797  0.0717 -0.1276
 1087YOPC   C1A15875   3.560  11.932   6.812  0.2254  0.1710  0.0830
 1087YOPC   D2A15876   3.648  11.796   7.217 -0.0339  0.0855  0.0433
 1087YOPC   C3A15877   3.319  11.777   7.581 -0.1297 -0.3169 -0.1125
 1087YOPC   C4A15878   2.915  11.575   7.857 -0.0845 -0.0337  0.3015
 1087YOPC   C1B15879   3.513  11.380   6.728  0.2680  0.1959  0.1274
 1087YOPC   C2B15880   3.231  11.173   6.925  0.4573 -0.1191  0.1131
 1087YOPC   D3B15881   3.396  11.058   7.269 -0.0308 -0.0735  0.2784
 1087YOPC   C4B15882   3.303  11.225   7.808 -0.2118 -0.1309 -0.0415
 1088YOPC   NC315883  12.153  10.265   6.274 -0.1361  0.1468 -0.2250
 1088YOPC   PO415884  11.805  10.633   6.201  0.1220 -0.3193 -0.2497
 1088YOPC   GL115885  11.853  10.478   6.661  0.2905  0.3957  0.0571
 1088YOPC   GL215886  11.600  10.202   6.719 -0.3315  0.1586 -0.2381
 1088YOPC   C1A15887  12.019  10.501   7.097 -0.0312  0.2214  0.0590
 1088YOPC   D2A15888  12.086  10.194   7.488  0.2850 -0.1423  0.0312
 1088YOPC   C3A15889  11.912   9.921   7.661  0.0168  0.0083 -0.0322
 1088YOPC   C4A15890  11.678   9.616   7.443 -0.0881 -0.1184  0.0867
 1088YOPC   C1B15891  11.194  10.266   6.866  0.0460 -0.0766  0.1094
 1088YOPC   C2B15892  10.946  10.095   7.177 -0.0989 -0.0748 -0.0293
 1088YOPC   D3B15893  11.047   9.997   7.610  0.0163 -0.0000  0.2597
 1088YOPC   C4B15894  10.860   9.712   7.968 -0.0927 -0.1912 -0.2584
 1089YOPC   NC315895   6.520   4.743   5.183 -0.0455 -0.1168  0.0574
 1089YOPC   PO415896   6.183   4.737   5.557  0.1378 -0.2311 -0.0153
 1089YOPC   GL115897   5.956   4.633   5.975  0.2474  0.0922  0.3692
 1089YOPC   GL215898   5.655   4.396   5.965 -0.1132  0.3027  0.1086
 1089YOPC   C1A15899   6.103   4.222   6.195  0.3190  0.0248 -0.2770
 1089YOPC   D2A15900   6.483   3.924   6.208 -0.2452 -0.1508  0.2055
 1089YOPC   C3A15901   6.401   3.500   6.233 -0.2014 -0.2476  0.0053
 1089YOPC   C4A15902   6.390   3.340   6.611  0.0153  0.0214 -0.2770
 1089YOPC   C1B15903   5.414   4.261   6.368  0.2410  0.0285  0.0167
 1089YOPC   C2B15904   5.313   4.234   6.828  0.1250  0.0572 -0.1317
 1089YOPC   D3B15905   5.067   4.445   7.057 -0.2105 -0.3362 -0.1715
 1089YOPC   C4B15906   4.975   4.714   7.399 -0.2244 -0.1305  0.1098
 1090YOPC   NC315907   3.537   6.350   5.063 -0.0835  0.3034  0.2683
 1090YOPC   PO415908   3.300   6.464   5.468  0.1437 -0.0301 -0.0840
 1090YOPC   GL115909   3.267   6.190   5.831  0.0411 -0.1630 -0.1006
 1090YOPC   GL215910   3.198   5.824   5.837  0.2037  0.1739  0.1781
 1090YOPC   C1A15911   3.084   6.389   6.158  0.3036  0.0611  0.1663
 1090YOPC   D2A15912   3.103   6.542   6.488  0.4459  0.3445  0.1182
 1090YOPC   C3A15913   3.238   6.452   6.872  0.1395  0.4537  0.1548
 1090YOPC   C4A15914   3.534   6.318   7.296 -0.1470  0.0915 -0.0125
 1090YOPC   C1B15915   3.161   5.720   6.221  0.1462 -0.2396 -0.0211
 1090YOPC   C2B15916   2.967   5.633   6.684 -0.0930  0.1345 -0.0127
 1090YOPC   D3B15917   3.125   5.360   6.963 -0.1114  0.2395 -0.1520
 1090YOPC   C4B15918   2.937   5.193   7.319 -0.0034 -0.1350 -0.1752
 1091YOPC   NC315919   9.279  15.909   6.006  0.1037  0.2019 -0.0913
 1091YOPC   PO415920   9.510  15.562   6.083  0.1378  0.2650 -0.1464
 1091YOPC   GL115921   9.577  15.479   6.478 -0.1148  0.0551 -0.1925
 1091YOPC   GL215922   9.598  15.696   6.816  0.3255 -0.3302  0.5180
 1091YOPC   C1A15923   9.646  15.245   6.917  0.2426 -0.1351 -0.1341
 1091YOPC   D2A15924   9.670  15.277   7.380 -0.0970  0.2575  0.2372
 1091YOPC   C3A15925   9.467  14.922   7.587 -0.0330 -0.0333  0.5588
 1091YOPC   C4A15926   9.399  14.482   7.551 -0.0224 -0.3802  0.0913
 1091YOPC   C1B15927   9.792  15.770   7.242  0.1076  0.1825 -0.1620
 1091YOPC   C2B15928   9.762  15.763   7.532 -0.1590  0.0173  0.1374
 1091YOPC   D3B15929   9.960  15.917   7.843  0.3490 -0.0563 -0.1967
 1091YOPC   C4B15930  10.291  16.062   8.064 -0.2351 -0.0894 -0.2285
 1092YOPC   NC315931  17.191  15.766   5.911 -0.0128  0.0503  0.0593
 1092YOPC   PO415932  17.532  15.639   6.055 -0.0305  0.1531  0.2230
 1092YOPC   GL115933  17.900  15.489   6.405  0.0589  0.0367  0.0730
 1092YOPC   GL215934  18.127  15.783   6.493 -0.0907  0.1248  0.1496
 1092YOPC   C1A15935  18.037  15.288   6.820  0.0664 -0.1397 -0.0587
 1092YOPC   D2A15936  18.334  15.011   7.055  0.1473 -0.0039 -0.2924
 1092YOPC   C3A15937  18.271  15.005   7.487  0.3683  0.0649 -0.1380
 1092YOPC   C4A15938  18.522  14.648   7.678  0.4360  0.0848  0.0210
 1092YOPC   C1B15939  17.825  15.709   6.812 -0.2434  0.0263  0.0041
 1092YOPC   C2B15940  17.397  15.693   7.048 -0.1286 -0.1279  0.2355
 1092YOPC   D3B15941  17.478  15.431   7.483  0.1360  0.0663 -0.0614
 1092YOPC   C4B15942  17.805  15.197   7.798  0.1516 -0.0523 -0.0264
 1093YOPC   NC315943   6.159   8.814   6.000  0.2746 -0.0726 -0.2239
 1093YOPC   PO415944   6.406   8.485   5.794  0.1428  0.0034  0.0862
 1093YOPC   GL115945   6.482   8.411   6.280 -0.2223  0.1597  0.1953
 1093YOPC   GL215946   6.302   8.279   6.550 -0.2165 -0.1909 -0.0384
 1093YOPC   C1A15947   6.899   8.583   6.449  0.1396 -0.0492  0.3089
 1093YOPC   D2A15948   6.959   8.843   6.864  0.1690 -0.1574 -0.0119
 1093YOPC   C3A15949   6.886   8.938   7.199  0.1221 -0.2962  0.1290
 1093YOPC   C4A15950   7.182   9.145   7.517 -0.3060 -0.0912 -0.1458
 1093YOPC   C1B15951   6.481   8.536   6.811  0.0179 -0.0122  0.2858
 1093YOPC   C2B15952   6.266   8.612   7.134  0.2456  0.1472 -0.2852
 1093YOPC   D3B15953   6.514   8.679   7.426  0.2634 -0.1598  0.0250
 1093YOPC   C4B15954   6.461   8.614   7.893 -0.2222 -0.0526  0.0243
 1094YOPC   NC315955  13.195   2.172   5.168 -0.0786  0.1383  0.2659
 1094YOPC   PO415956  13.182   2.039   5.547  0.0484  0.0404  0.5166
 1094YOPC   GL115957  13.325   2.012   6.030  0.0730  0.1816  0.2553
 1094YOPC   GL215958  13.262   1.831   6.304  0.1634 -0.0424  0.1746
 1094YOPC   C1A15959  13.281   2.407   6.298 -0.0641  0.1055 -0.0343
 1094YOPC   D2A15960  12.956   2.691   6.635  0.2482  0.0576  0.2300
 1094YOPC   C3A15961  12.989   2.390   6.959 -0.1133 -0.1211  0.1251
 1094YOPC   C4A15962  12.947   2.093   7.260 -0.4808  0.1637  0.0600
 1094YOPC   C1B15963  13.410   2.052   6.648  0.1564  0.0121 -0.0670
 1094YOPC   C2B15964  13.601   2.298   6.962 -0.0795  0.0102 -0.0811
 1094YOPC   D3B15965  13.491   2.129   7.368 -0.0212 -0.3255  0.2401
 1094YOPC   C4B15966  13.208   2.042   7.686  0.0095  0.0180 -0.2214
 1095YOPC   NC315967  17.188  10.552   5.818 -0.0615  0.0536  0.0280
 1095YOPC   PO415968  16.753  10.523   5.783  0.2850  0.0682 -0.0145
 1095YOPC   GL115969  16.702  10.478   6.237  0.1056  0.3223  0.0756
 1095YOPC   GL215970  16.334  10.427   6.294  0.1922  0.0809 -0.3743
 1095YOPC   C1A15971  16.758  10.307   6.607 -0.1670 -0.3985 -0.3014
 1095YOPC   D2A15972  16.488  10.022   6.909 -0.1096 -0.0238  0.0130
 1095YOPC   C3A15973  16.296  10.070   7.270 -0.0908 -0.1370  0.1334
 1095YOPC   C4A15974  15.905  10.258   7.456  0.0891  0.0525  0.0116
 1095YOPC   C1B15975  16.461   9.970   6.277  0.0735 -0.4471 -0.2162
 1095YOPC   C2B15976  16.470   9.550   6.230  0.1619 -0.2183  0.1952
 1095YOPC   D3B15977  16.394   9.412   6.680  0.1913  0.2063  0.0535
 1095YOPC   C4B15978  16.259   9.605   7.176 -0.0430  0.3361 -0.2625
 1096YOPC   NC315979   8.853   3.261   5.592 -0.4886 -0.3162  0.2189
 1096YOPC   PO415980   9.039   3.669   5.804  0.0233  0.0067 -0.0074
 1096YOPC   GL115981   9.122   3.755   6.234  0.2380  0.0780 -0.0823
 1096YOPC   GL215982   9.318   4.003   6.228 -0.0296  0.1925 -0.3774
 1096YOPC   C1A15983   9.255   3.606   6.672  0.0627  0.1940 -0.1772
 1096YOPC   D2A15984   9.029   3.376   7.069  0.0520 -0.0579 -0.1224
 1096YOPC   C3A15985   8.640   3.198   7.032 -0.1055  0.1968 -0.0713
 1096YOPC   C4A15986   8.334   2.922   6.835 -0.0879 -0.3298  0.4049
 1096YOPC   C1B15987   9.425   4.382   6.455  0.0022  0.0719  0.0553
 1096YOPC   C2B15988   9.500   4.455   6.906 -0.0749 -0.1587 -0.2105
 1096YOPC   D3B15989   9.670   4.514   7.364  0.2624 -0.0564 -0.2524
 1096YOPC   C4B15990   9.661   4.528   7.830  0.3209  0.2327 -0.0797
 1097YOPC   NC315991  12.537  13.195   6.170  0.1391 -0.0468  0.0515
 1097YOPC   PO415992  12.652  13.634   6.040  0.0059  0.0179 -0.0870
 1097YOPC   GL115993  12.585  13.665   6.405 -0.1697 -0.1730  0.1791
 1097YOPC   GL215994  12.823  13.434   6.595  0.4093 -0.0387  0.0205
 1097YOPC   C1A15995  12.600  13.807   6.858  0.2793 -0.0935 -0.0254
 1097YOPC   D2A15996  12.835  13.571   7.176  0.3105 -0.1520 -0.0017
 1097YOPC   C3A15997  12.828  13.723   7.667  0.3009 -0.0866  0.0508
 1097YOPC   C4A15998  13.068  13.899   8.016  0.2509  0.1527  0.2871
 1097YOPC   C1B15999  12.612  12.984   6.782  0.2443  0.1625 -0.0688
 1097YOPC   C2B16000  12.405  12.727   6.982 -0.0363  0.2059  0.1348
 1097YOPC   D3B16001  12.357  12.368   7.330  0.2120 -0.0944 -0.3794
 1097YOPC   C4B16002  12.260  11.897   7.322  0.1912  0.1341 -0.2335
 1098YOPC   NC316003  11.652   4.528   5.407  0.0118  0.1145 -0.5706
 1098YOPC   PO416004  11.826   4.214   5.653 -0.0941  0.1289 -0.1388
 1098YOPC   GL116005  12.123   4.120   5.994 -0.0132  0.1253 -0.1015
 1098YOPC   GL216006  12.056   4.389   6.118  0.0456  0.2201 -0.0499
 1098YOPC   C1A16007  11.958   4.013   6.410  0.0310 -0.2310  0.1500
 1098YOPC   D2A16008  12.102   4.021   6.815 -0.1831  0.1616 -0.2095
 1098YOPC   C3A16009  12.288   4.262   7.080  0.1329  0.0756  0.2162
 1098YOPC   C4A16010  12.594   4.344   7.283 -0.1632  0.2994 -0.0861
 1098YOPC   C1B16011  11.842   4.583   6.453 -0.2799 -0.2770  0.0677
 1098YOPC   C2B16012  11.557   4.760   6.813 -0.1507 -0.1457  0.3895
 1098YOPC   D3B16013  11.714   4.928   7.180 -0.1250  0.1550  0.1763
 1098YOPC   C4B16014  11.761   5.055   7.612 -0.2903  0.2228 -0.0188
 1099YOPC   NC316015  18.276   5.322   4.755  0.0090  0.1083 -0.2057
 1099YOPC   PO416016  18.693   5.127   5.036  0.2990 -0.1598 -0.0483
 1099YOPC   GL116017  18.816   5.251   5.489 -0.1855 -0.0091  0.0937
 1099YOPC   GL216018  18.608   5.505   5.651  0.2673 -0.1699  0.1245
 1099YOPC   C1A16019  18.812   4.995   5.849  0.2573  0.2696  0.0339
 1099YOPC   D2A16020  18.994   4.722   6.053  0.0686  0.5038 -0.0041
 1099YOPC   C3A16021  19.058   4.769   6.428  0.0923  0.0329  0.2822
 1099YOPC   C4A16022  18.929   4.672   6.760  0.3296  0.4547 -0.0032
 1099YOPC   C1B16023  18.416   5.260   5.980  0.0385  0.1773 -0.0456
 1099YOPC   C2B16024  18.464   4.842   6.269 -0.3394 -0.3159  0.0378
 1099YOPC   D3B16025  18.376   4.735   6.660  0.0601  0.2329 -0.0834
 1099YOPC   C4B16026  18.117   4.738   7.016  0.1925  0.3950 -0.0497
 1100YOPC   NC316027   4.476   3.081   5.509 -0.1045  0.3130  0.1975
 1100YOPC   PO416028   4.075   2.980   5.639  0.0250  0.1311 -0.1029
 1100YOPC   GL116029   3.937   2.964   6.045 -0.0892 -0.3675 -0.0149
 1100YOPC   GL216030   3.756   3.287   5.934  0.1926 -0.0000  0.2089
 1100YOPC   C1A16031   4.091   2.783   6.401  0.2244 -0.1021 -0.3847
 1100YOPC   D2A16032   4.032   2.357   6.515 -0.2310 -0.3600  0.0869
 1100YOPC   C3A16033   3.809   2.181   6.923  0.0496  0.0261 -0.3916
 1100YOPC   C4A16034   3.755   2.044   7.327  0.1178 -0.3394  0.1550
 1100YOPC   C1B16035   3.943   3.294   6.415  0.0227 -0.4803  0.3986
 1100YOPC   C2B16036   4.004   3.316   6.879  0.1643 -0.1034  0.1860
 1100YOPC   D3B16037   4.039   3.677   7.226  0.2927  0.1071  0.0001
 1100YOPC   C4B16038   3.644   3.835   7.587 -0.1345  0.1908  0.1929
 1101YOPC   NC316039   3.166   4.980   5.075  0.1604 -0.0101 -0.2977
 1101YOPC   PO416040   3.382   5.033   5.434 -0.1813  0.0640  0.2315
 1101YOPC   GL116041   3.606   4.928   5.796 -0.0119 -0.0483  0.1989
 1101YOPC   GL216042   3.396   4.737   5.877  0.2160 -0.1031  0.1140
 1101YOPC   C1A16043   3.933   4.754   5.993 -0.0290 -0.0783 -0.0070
 1101YOPC   D2A16044   4.001   4.533   6.344  0.1631  0.3683 -0.1265
 1101YOPC   C3A16045   3.841   4.585   6.793  0.0960 -0.3268 -0.1460
 1101YOPC   C4A16046   3.544   4.896   6.871  0.1398  0.1240  0.0334
 1101YOPC   C1B16047   3.538   4.786   6.315 -0.2048 -0.1488 -0.0305
 1101YOPC   C2B16048   4.011   4.995   6.474  0.2952 -0.0866 -0.1265
 1101YOPC   D3B16049   4.130   5.072   6.903 -0.0364 -0.2207  0.1088
 1101YOPC   C4B16050   3.853   5.021   7.222  0.0894 -0.1381  0.0839
 1102YOPC   NC316051   2.707   7.600   4.819 -0.0743  0.3890 -0.0104
 1102YOPC   PO416052   2.785   7.512   5.246  0.0125 -0.0963  0.0643
 1102YOPC   GL116053   2.630   7.731   5.643  0.2202  0.0225  0.1765
 1102YOPC   GL216054   2.382   7.779   5.713 -0.0993  0.1666  0.2041
 1102YOPC   C1A16055   2.808   7.499   5.979 -0.0195  0.2370  0.0631
 1102YOPC   D2A16056   3.194   7.531   6.081 -0.1929  0.1567  0.0538
 1102YOPC   C3A16057   3.387   7.399   6.478  0.0859 -0.2883  0.1066
 1102YOPC   C4A16058   3.407   6.956   6.555 -0.3443  0.2253 -0.3587
 1102YOPC   C1B16059   2.470   7.797   6.138  0.0827  0.0435 -0.0135
 1102YOPC   C2B16060   2.554   8.035   6.630  0.1199 -0.1153 -0.0162
 1102YOPC   D3B16061   2.055   8.168   6.766 -0.0787  0.2957  0.1098
 1102YOPC   C4B16062   1.938   8.045   7.095  0.1152  0.2134  0.3312
 1103YOPC   NC316063  17.977   6.244   5.388  0.0888 -0.0527 -0.1164
 1103YOPC   PO416064  17.954   6.716   5.326 -0.3790  0.0638 -0.2734
 1103YOPC   GL116065  17.746   6.663   5.702 -0.2630 -0.1874  0.0179
 1103YOPC   GL216066  17.416   6.499   5.698 -0.2383  0.1340 -0.2655
 1103YOPC   C1A16067  17.943   6.547   6.095  0.1868 -0.1897  0.0447
 1103YOPC   D2A16068  17.809   6.512   6.512  0.3094  0.2295 -0.0466
 1103YOPC   C3A16069  17.981   6.191   6.727 -0.1221 -0.0033 -0.1562
 1103YOPC   C4A16070  18.222   5.977   6.998  0.0640 -0.1299  0.0103
 1103YOPC   C1B16071  17.442   6.228   6.184  0.0733 -0.0369 -0.1509
 1103YOPC   C2B16072  17.394   6.198   6.604  0.1723 -0.1329 -0.0853
 1103YOPC   D3B16073  17.572   6.111   7.035  0.0598  0.0734 -0.2548
 1103YOPC   C4B16074  17.895   6.285   7.249 -0.1284  0.1155 -0.0963
 1104YOPC   NC316075   4.365   0.840   5.426 -0.3086 -0.1005 -0.1742
 1104YOPC   PO416076   4.375   0.700   5.879  0.0797  0.0112  0.0012
 1104YOPC   GL116077   4.339   0.714   6.259  0.1628 -0.0782  0.3114
 1104YOPC   GL216078   4.043   0.541   6.462 -0.2077  0.1832 -0.2825
 1104YOPC   C1A16079   4.452   0.783   6.704 -0.0039  0.0022 -0.0981
 1104YOPC   D2A16080   4.725   0.509   6.807 -0.1612 -0.2045  0.2929
 1104YOPC   C3A16081   4.782   0.517   7.314  0.0984 -0.0494 -0.1521
 1104YOPC   C4A16082   4.474   0.578   7.646  0.1966  0.1277  0.2243
 1104YOPC   C1B16083   3.819   0.525   6.811 -0.1203  0.3775  0.1607
 1104YOPC   C2B16084   3.708   0.753   7.226 -0.2584  0.1556 -0.1822
 1104YOPC   D3B16085   3.877   0.949   7.561  0.0017  0.1961  0.1283
 1104YOPC   C4B16086   3.746   1.104   7.939  0.0511 -0.0779 -0.1927
 1105YOPC   NC316087  11.635   8.666   5.633 -0.2565  0.0061 -0.0797
 1105YOPC   PO416088  11.856   8.330   5.596 -0.1638 -0.3357 -0.2141
 1105YOPC   GL116089  11.662   8.081   6.000 -0.3096 -0.1036  0.0845
 1105YOPC   GL216090  11.382   7.874   6.078  0.2041 -0.0750 -0.1837
 1105YOPC   C1A16091  11.753   8.119   6.406 -0.2868 -0.1490  0.0888
 1105YOPC   D2A16092  11.766   8.128   6.805  0.2933  0.0505 -0.2879
 1105YOPC   C3A16093  11.556   8.326   7.030  0.4102 -0.2263 -0.0227
 1105YOPC   C4A16094  11.568   8.388   7.420  0.0510  0.0840  0.1420
 1105YOPC   C1B16095  11.667   7.516   6.255 -0.0620 -0.1784 -0.0565
 1105YOPC   C2B16096  11.683   7.372   6.629  0.1419  0.2805  0.2202
 1105YOPC   D3B16097  11.880   7.023   6.774 -0.0776  0.2099 -0.3428
 1105YOPC   C4B16098  11.984   6.813   7.266  0.1727  0.1248  0.0321
 1106YOPC   NC316099  12.289  18.024   5.649 -0.0076 -0.0446  0.2566
 1106YOPC   PO416100  12.013  17.882   5.866 -0.2066 -0.1166  0.1282
 1106YOPC   GL116101  12.043  17.575   6.183  0.1977  0.0518 -0.1299
 1106YOPC   GL216102  12.017  17.910   6.359 -0.3377 -0.1719 -0.0534
 1106YOPC   C1A16103  12.164  17.208   6.519  0.1873 -0.0696 -0.0751
 1106YOPC   D2A16104  12.177  17.074   6.944 -0.2075  0.0036 -0.1191
 1106YOPC   C3A16105  12.343  17.337   7.108  0.1749 -0.0170 -0.0905
 1106YOPC   C4A16106  12.457  17.736   7.249 -0.0885 -0.1858 -0.1267
 1106YOPC   C1B16107  12.063  18.155   6.673 -0.1043  0.1708 -0.0814
 1106YOPC   C2B16108  12.262  18.228   7.034 -0.4424  0.0682  0.1999
 1106YOPC   D3B16109  12.189  18.259   7.493  0.1346 -0.2441 -0.0939
 1106YOPC   C4B16110  12.333  18.097   7.956 -0.1789  0.0011 -0.0244
 1107YOPC   NC316111  16.740   9.957   5.493 -0.4281 -0.0172  0.2217
 1107YOPC   PO416112  17.173  10.071   5.650  0.2021 -0.1153 -0.0153
 1107YOPC   GL116113  17.160  10.105   6.222 -0.0203 -0.0796  0.0632
 1107YOPC   GL216114  17.234  10.361   6.455 -0.0044  0.1638 -0.1656
 1107YOPC   C1A16115  16.884   9.739   6.560  0.0872 -0.2158 -0.0927
 1107YOPC   D2A16116  16.847   9.574   6.987 -0.3453  0.1841 -0.0019
 1107YOPC   C3A16117  16.750   9.827   7.331 -0.0022  0.0764 -0.3690
 1107YOPC   C4A16118  16.653  10.117   7.575 -0.2121  0.0712  0.1012
 1107YOPC   C1B16119  17.155  10.091   6.825  0.0968  0.2875  0.0336
 1107YOPC   C2B16120  17.280   9.697   7.159  0.1872  0.0963 -0.0298
 1107YOPC   D3B16121  17.068   9.529   7.501  0.4363  0.1296  0.0111
 1107YOPC   C4B16122  17.042   9.587   7.962 -0.1216 -0.2094 -0.2696
 1108YOPC   NC316123   8.851   3.288   6.080 -0.1494 -0.1457 -0.3140
 1108YOPC   PO416124   8.550   3.711   6.097 -0.0939 -0.0269 -0.2417
 1108YOPC   GL116125   8.480   3.454   6.419 -0.0214 -0.4067  0.0187
 1108YOPC   GL216126   8.815   3.401   6.570 -0.0124 -0.0378  0.0671
 1108YOPC   C1A16127   8.265   3.420   6.800 -0.1941 -0.3861  0.0123
 1108YOPC   D2A16128   8.232   3.311   7.194  0.1595 -0.0018 -0.2218
 1108YOPC   C3A16129   8.202   3.406   7.621 -0.0835  0.1153  0.4837
 1108YOPC   C4A16130   7.941   3.704   7.912  0.0884  0.0007 -0.1944
 1108YOPC   C1B16131   8.732   3.716   6.864  0.1111 -0.2693  0.0305
 1108YOPC   C2B16132   8.606   3.654   7.306  0.4962 -0.2708 -0.2168
 1108YOPC   D3B16133   8.829   4.005   7.562  0.1320  0.1515 -0.1091
 1108YOPC   C4B16134   9.099   3.874   7.856 -0.2758 -0.0414  0.4324
 1109YOPC   NC316135   5.555  18.301   5.750  0.0880 -0.3399  0.2999
 1109YOPC   PO416136   5.136  18.464   5.980 -0.1749  0.1218  0.2041
 1109YOPC   GL116137   5.224  18.438   6.406 -0.1355 -0.0640 -0.4006
 1109YOPC   GL216138   5.427  18.279   6.470  0.2295 -0.0072  0.1567
 1109YOPC   C1A16139   4.965  18.514   6.755 -0.2571 -0.1126  0.0960
 1109YOPC   D2A16140   4.553  18.447   6.944 -0.0022 -0.1035  0.4011
 1109YOPC   C3A16141   4.240  18.787   7.018 -0.2420 -0.0812  0.0200
 1109YOPC   C4A16142   4.192  19.083   7.284  0.0102 -0.2421  0.1139
 1109YOPC   C1B16143   5.691  18.432   6.738  0.1269  0.0870 -0.0099
 1109YOPC   C2B16144   5.947  18.776   6.868  0.0190  0.1169  0.0826
 1109YOPC   D3B16145   5.849  19.175   7.194  0.2101  0.2134  0.0349
 1109YOPC   C4B16146   5.681  19.507   7.481  0.0176 -0.3364  0.1194
 1110YOPC   NC316147  11.398  11.814   6.018  0.1395  0.0596  0.1695
 1110YOPC   PO416148  10.929  11.971   6.007 -0.2178 -0.0573 -0.1435
 1110YOPC   GL116149  10.762  12.070   6.333  0.1993 -0.1562 -0.1705
 1110YOPC   GL216150  10.537  12.362   6.453  0.0045  0.1134 -0.1082
 1110YOPC   C1A16151  10.900  12.022   6.767 -0.0884  0.3145 -0.2379
 1110YOPC   D2A16152  10.689  11.979   7.229  0.0151 -0.0620  0.1888
 1110YOPC   C3A16153  10.663  11.665   7.556  0.3263 -0.0564 -0.0095
 1110YOPC   C4A16154  10.487  11.694   7.908 -0.4961 -0.2042 -0.1415
 1110YOPC   C1B16155  10.703  12.455   6.722 -0.0529 -0.0829  0.1737
 1110YOPC   C2B16156  10.761  12.487   7.205 -0.0989  0.1600 -0.2510
 1110YOPC   D3B16157  11.022  12.316   7.577  0.1300  0.1852 -0.3011
 1110YOPC   C4B16158  11.442  12.221   7.851 -0.0191  0.1269  0.2287
 1111YOPC   NC316159  10.084  10.783   5.877 -0.2303 -0.1899 -0.0965
 1111YOPC   PO416160  10.520  10.475   5.720 -0.1867 -0.0403  0.2200
 1111YOPC   GL116161  10.431  10.436   6.136  0.2434 -0.4640 -0.0298
 1111YOPC   GL216162  10.484  10.721   6.272 -0.0915  0.1859 -0.1174
 1111YOPC   C1A16163  10.186  10.281   6.496 -0.1418 -0.1591  0.2415
 1111YOPC   D2A16164  10.124  10.348   6.922 -0.0385 -0.0395  0.0908
 1111YOPC   C3A16165  10.436  10.239   7.331  0.1033  0.2008 -0.1866
 1111YOPC   C4A16166  10.621  10.435   7.683 -0.0237  0.2564 -0.0429
 1111YOPC   C1B16167  10.478  10.701   6.677 -0.2487  0.1356 -0.0690
 1111YOPC   C2B16168  10.647  10.391   6.888  0.0773 -0.0535  0.2442
 1111YOPC   D3B16169  10.818  10.551   7.200  0.2817  0.0662 -0.2630
 1111YOPC   C4B16170  10.810  10.894   7.400  0.1859  0.1115  0.0409
 1112YOPC   NC316171   0.001   6.980   5.280 -0.3574 -0.1632 -0.1949
 1112YOPC   PO416172   0.101   7.201   5.568 -0.0403  0.1408  0.0256
 1112YOPC   GL116173   0.102   7.350   5.885  0.0536 -0.0770  0.0534
 1112YOPC   GL216174  -0.172   7.530   5.998 -0.0644  0.0472 -0.2367
 1112YOPC   C1A16175   0.259   7.682   6.274  0.0583  0.1300  0.2509
 1112YOPC   D2A16176   0.022   7.977   6.586 -0.1891 -0.2881  0.1872
 1112YOPC   C3A16177   0.269   7.979   6.889 -0.1643 -0.1434  0.0465
 1112YOPC   C4A16178   0.687   7.877   7.043  0.0271 -0.0450 -0.0547
 1112YOPC   C1B16179  -0.217   7.513   6.504  0.0467 -0.0418 -0.0089
 1112YOPC   C2B16180  -0.228   7.481   7.037  0.2876 -0.1433  0.1185
 1112YOPC   D3B16181   0.213   7.603   7.213 -0.0222  0.0464 -0.0104
 1112YOPC   C4B16182   0.492   7.852   7.483  0.2239  0.0589 -0.0660
 1113YOPC   NC316183   9.319  18.170   5.867  0.0359 -0.1950 -0.3848
 1113YOPC   PO416184   8.962  18.108   6.099  0.3789 -0.2988  0.0181
 1113YOPC   GL116185   9.117  18.185   6.430 -0.1391 -0.1007 -0.0174
 1113YOPC   GL216186   9.454  18.131   6.398  0.0569  0.0853  0.1611
 1113YOPC   C1A16187   9.330  17.962   6.848  0.0738 -0.0402  0.0019
 1113YOPC   D2A16188   9.175  17.939   7.295  0.2452 -0.0398  0.0217
 1113YOPC   C3A16189   8.779  17.683   7.418  0.1396 -0.0427 -0.1305
 1113YOPC   C4A16190   8.437  17.474   7.665  0.1566 -0.1291 -0.0481
 1113YOPC   C1B16191   9.558  18.373   6.656 -0.0247  0.2288  0.1592
 1113YOPC   C2B16192   9.365  18.759   6.826 -0.1527  0.2081  0.0169
 1113YOPC   D3B16193   9.384  18.997   7.271  0.2248 -0.0708  0.0425
 1113YOPC   C4B16194   9.236  19.292   7.624  0.1630 -0.0117  0.1621
 1114YOPC   NC316195  14.940   0.058   5.881 -0.2158 -0.0238 -0.1615
 1114YOPC   PO416196  15.307   0.127   6.068 -0.1586  0.3474 -0.1198
 1114YOPC   GL116197  15.133   0.452   6.331  0.1095  0.1765  0.1551
 1114YOPC   GL216198  15.397   0.717   6.280 -0.4470  0.3827 -0.1007
 1114YOPC   C1A16199  15.092   0.528   6.758  0.2854 -0.0670  0.0460
 1114YOPC   D2A16200  15.109   0.428   7.078  0.0112  0.0912  0.0552
 1114YOPC   C3A16201  15.268   0.548   7.416  0.0326 -0.0923 -0.2918
 1114YOPC   C4A16202  15.654   0.505   7.613 -0.0538 -0.1205  0.0766
 1114YOPC   C1B16203  15.522   0.734   6.697 -0.1453 -0.6559  0.0985
 1114YOPC   C2B16204  15.699   0.549   7.023  0.1478 -0.3005 -0.0973
 1114YOPC   D3B16205  15.634   0.232   7.156 -0.1008  0.0273  0.2711
 1114YOPC   C4B16206  15.645  -0.081   7.061  0.0331 -0.2324  0.0041
 1115YOPC   NC316207   1.485   8.929   5.359  0.5009 -0.4555 -0.0476
 1115YOPC   PO416208   1.220   8.677   5.708  0.3615  0.1109 -0.2698
 1115YOPC   GL116209   1.287   8.802   6.137 -0.1172 -0.3483  0.1556
 1115YOPC   GL216210   1.169   9.142   6.181  0.2096 -0.1837  0.1249
 1115YOPC   C1A16211   1.504   9.031   6.553  0.1290 -0.1276  0.0880
 1115YOPC   D2A16212   1.493   8.988   7.001 -0.2254  0.0846  0.0509
 1115YOPC   C3A16213   1.341   8.610   7.172  0.1260  0.2524 -0.0036
 1115YOPC   C4A16214   1.424   8.264   7.499  0.0594 -0.2637 -0.2215
 1115YOPC   C1B16215   0.956   9.308   6.500 -0.0145 -0.0560  0.1825
 1115YOPC   C2B16216   0.570   9.168   6.608  0.0717 -0.3066 -0.2591
 1115YOPC   D3B16217   0.526   9.285   7.024  0.0272  0.0336  0.0980
 1115YOPC   C4B16218   0.629   9.340   7.475 -0.0244 -0.1091 -0.1113
 1116YOPC   NC316219   1.268   2.065   5.437 -0.0203  0.0813  0.1282
 1116YOPC   PO416220   0.986   1.883   5.274 -0.3740  0.4327 -0.2095
 1116YOPC   GL116221   1.046   1.841   5.789 -0.0973 -0.2502 -0.0586
 1116YOPC   GL216222   0.706   1.914   5.976  0.1088  0.0288  0.4276
 1116YOPC   C1A16223   1.151   1.933   6.310 -0.0315 -0.4696  0.6494
 1116YOPC   D2A16224   1.005   2.045   6.714 -0.0020  0.0856  0.1530
 1116YOPC   C3A16225   1.039   2.369   6.969  0.0083 -0.1761  0.1885
 1116YOPC   C4A16226   1.093   2.290   7.332  0.1656  0.0524 -0.2220
 1116YOPC   C1B16227   0.653   1.949   6.384  0.2500  0.1552 -0.0458
 1116YOPC   C2B16228   0.496   1.958   6.912  0.0566  0.0034  0.3466
 1116YOPC   D3B16229   0.813   1.945   7.234  0.2725 -0.0238 -0.0225
 1116YOPC   C4B16230   0.905   1.588   7.588  0.2735 -0.0533  0.1075
 1117YOPC   NC316231   7.666  17.924   6.116 -0.2762  0.1728 -0.1376
 1117YOPC   PO416232   7.774  17.563   6.254 -0.3280  0.1949  0.0095
 1117YOPC   GL116233   7.707  17.626   6.608 -0.0474  0.0657 -0.0472
 1117YOPC   GL216234   7.401  17.589   6.686  0.0235  0.0394  0.0717
 1117YOPC   C1A16235   7.925  17.476   6.957  0.1038 -0.4864  0.1635
 1117YOPC   D2A16236   8.040  17.180   7.286 -0.3767  0.1842 -0.3175
 1117YOPC   C3A16237   7.966  17.332   7.692 -0.4601  0.2062 -0.1771
 1117YOPC   C4A16238   7.950  17.747   7.907  0.1737 -0.0439 -0.1207
 1117YOPC   C1B16239   7.211  17.331   7.050 -0.4477 -0.1147 -0.0122
 1117YOPC   C2B16240   6.940  17.157   7.369 -0.1109 -0.2850 -0.2286
 1117YOPC   D3B16241   7.073  17.070   7.788 -0.2697  0.1191 -0.0936
 1117YOPC   C4B16242   7.601  17.057   7.929  0.0763  0.0466  0.2728
 1118YOPC   NC316243  17.975   9.363   5.111  0.0326 -0.1674 -0.0496
 1118YOPC   PO416244  17.879   9.028   5.476  0.2117 -0.3439  0.1963
 1118YOPC   GL116245  18.042   9.344   5.751  0.3416 -0.0019  0.0658
 1118YOPC   GL216246  18.113   9.596   5.854  0.0935  0.0219  0.0641
 1118YOPC   C1A16247  17.836   9.274   6.086  0.2638 -0.0406 -0.1243
 1118YOPC   D2A16248  17.820   9.293   6.549 -0.3892 -0.3367 -0.3993
 1118YOPC   C3A16249  18.126   9.228   6.683 -0.2042 -0.1742  0.0827
 1118YOPC   C4A16250  18.398   8.894   6.741 -0.1600 -0.0107  0.1903
 1118YOPC   C1B16251  17.981   9.746   6.238  0.1807  0.0456  0.1681
 1118YOPC   C2B16252  18.116   9.696   6.668 -0.1210 -0.0848 -0.0302
 1118YOPC   D3B16253  18.176   9.894   6.988  0.1792  0.0300 -0.3131
 1118YOPC   C4B16254  18.273   9.784   7.410  0.0197  0.4189  0.1767
 1119YOPC   NC316255   6.269   1.442   5.561  0.0814  0.0027 -0.0748
 1119YOPC   PO416256   6.457   1.542   5.994 -0.3439 -0.1989 -0.2122
 1119YOPC   GL116257   6.412   1.581   6.386 -0.0692 -0.0185  0.1811
 1119YOPC   GL216258   6.375   1.215   6.464 -0.2004 -0.0490  0.3040
 1119YOPC   C1A16259   6.216   1.766   6.649 -0.0204  0.2194  0.2120
 1119YOPC   D2A16260   6.252   1.879   7.130 -0.2069  0.2724  0.0928
 1119YOPC   C3A16261   5.953   2.092   7.367 -0.1796 -0.2852 -0.0675
 1119YOPC   C4A16262   5.695   2.341   7.646 -0.1999 -0.1660 -0.3879
 1119YOPC   C1B16263   6.112   1.202   6.814 -0.2085  0.0722 -0.0226
 1119YOPC   C2B16264   5.840   1.275   6.966  0.0781  0.1402 -0.0322
 1119YOPC   D3B16265   5.933   1.502   7.355 -0.0109 -0.0101 -0.0487
 1119YOPC   C4B16266   5.635   1.665   7.598 -0.0714  0.1578  0.1557
 1120YOPC   NC316267  16.291   0.640   5.962 -0.3344  0.1928  0.3956
 1120YOPC   PO416268  16.319   0.247   6.203  0.0296  0.0463  0.0129
 1120YOPC   GL116269  16.150   0.136   6.580  0.0988 -0.2682 -0.1597
 1120YOPC   GL216270  16.463   0.416   6.708  0.3331 -0.3283 -0.1004
 1120YOPC   C1A16271  15.783   0.203   6.625  0.0863 -0.0480  0.3631
 1120YOPC   D2A16272  15.380   0.171   6.615 -0.0382 -0.5564  0.1913
 1120YOPC   C3A16273  15.165  -0.047   6.933 -0.0731  0.0218  0.1087
 1120YOPC   C4A16274  14.773   0.096   6.996  0.5363  0.0381 -0.1400
 1120YOPC   C1B16275  16.565   0.480   7.133  0.0153  0.1465  0.1828
 1120YOPC   C2B16276  16.490   0.251   7.545  0.0304 -0.1841 -0.3519
 1120YOPC   D3B16277  15.994   0.110   7.569  0.2421  0.0332 -0.1015
 1120YOPC   C4B16278  15.730  -0.093   7.820 -0.0805 -0.2027 -0.1028
 1121YOPC   NC316279  10.850   8.325   5.555  0.0529  0.0683 -0.4094
 1121YOPC   PO416280  10.909   8.595   5.930 -0.0359 -0.0573 -0.2040
 1121YOPC   GL116281  10.985   8.593   6.274  0.1453 -0.0545 -0.3010
 1121YOPC   GL216282  11.321   8.324   6.270 -0.3828 -0.0240 -0.4498
 1121YOPC   C1A16283  10.871   8.734   6.774  0.3801  0.0843 -0.1041
 1121YOPC   D2A16284  10.613   8.627   7.142  0.1492  0.1362 -0.3475
 1121YOPC   C3A16285  10.620   8.614   7.612 -0.0156  0.2794  0.0969
 1121YOPC   C4A16286  10.421   8.865   7.864 -0.0374  0.0184 -0.0022
 1121YOPC   C1B16287  11.190   8.329   6.697 -0.1308  0.1592 -0.0623
 1121YOPC   C2B16288  11.070   8.125   7.061  0.0561 -0.1831 -0.0900
 1121YOPC   D3B16289  10.754   8.140   7.346 -0.0337 -0.0785  0.2206
 1121YOPC   C4B16290  10.470   8.010   7.683 -0.0491  0.1438  0.0916
 1122YOPC   NC316291   7.318   2.235   6.097  0.1742  0.1144  0.0376
 1122YOPC   PO416292   7.574   2.540   5.941  0.5099 -0.2429  0.0001
 1122YOPC   GL116293   7.682   2.512   6.331  0.0524 -0.1118  0.2814
 1122YOPC   GL216294   7.985   2.268   6.449  0.1245  0.2504 -0.1244
 1122YOPC   C1A16295   7.542   2.235   6.675 -0.1248  0.2661 -0.0919
 1122YOPC   D2A16296   7.626   1.849   6.542  0.3920 -0.1084  0.0167
 1122YOPC   C3A16297   7.824   1.556   6.865  0.1925 -0.1609 -0.1251
 1122YOPC   C4A16298   8.018   1.178   7.008  0.1285  0.0867 -0.3006
 1122YOPC   C1B16299   7.937   2.506   6.832 -0.0891 -0.0624  0.0357
 1122YOPC   C2B16300   7.918   2.427   7.242 -0.1636  0.1315  0.1385
 1122YOPC   D3B16301   8.013   2.006   7.497  0.0398 -0.3944 -0.0092
 1122YOPC   C4B16302   8.084   1.651   7.707  0.1834 -0.0383  0.0071
 1123YOPC   NC316303   8.460   9.656   5.640  0.0121 -0.1044 -0.1863
 1123YOPC   PO416304   8.521   9.345   5.880  0.0666 -0.2724 -0.0322
 1123YOPC   GL116305   8.250   9.487   6.085 -0.1175 -0.1835 -0.1109
 1123YOPC   GL216306   8.360   9.749   6.238  0.1507  0.0868  0.0806
 1123YOPC   C1A16307   8.019   9.366   6.431 -0.0777 -0.1374 -0.1950
 1123YOPC   D2A16308   7.747   9.270   6.746 -0.1411 -0.1370  0.1426
 1123YOPC   C3A16309   7.338   9.560   6.779  0.1799  0.0137  0.1870
 1123YOPC   C4A16310   7.177   9.959   7.007 -0.1440  0.1181  0.0485
 1123YOPC   C1B16311   8.407   9.577   6.628  0.0997  0.1681  0.0331
 1123YOPC   C2B16312   8.242   9.225   6.862  0.0490 -0.3303 -0.2064
 1123YOPC   D3B16313   8.275   9.184   7.283 -0.0884  0.0683  0.0026
 1123YOPC   C4B16314   8.180   9.077   7.653  0.1714 -0.0339 -0.3003
 1124YOPC   NC316315  12.547   3.379   5.976 -0.1858  0.0989 -0.1236
 1124YOPC   PO416316  12.927   3.496   5.840  0.0062  0.1621  0.0327
 1124YOPC   GL116317  13.245   3.349   6.102 -0.0605 -0.0462  0.1317
 1124YOPC   GL216318  13.532   3.486   6.057  0.1370  0.2902  0.1167
 1124YOPC   C1A16319  13.494   3.054   6.373  0.0576 -0.1799 -0.2261
 1124YOPC   D2A16320  13.400   2.801   6.735  0.0513  0.0068 -0.0698
 1124YOPC   C3A16321  13.195   3.045   7.018 -0.3480 -0.1850 -0.0878
 1124YOPC   C4A16322  13.398   3.326   7.274  0.1542  0.0587 -0.1046
 1124YOPC   C1B16323  13.760   3.552   6.401 -0.0200  0.0866  0.1324
 1124YOPC   C2B16324  13.671   3.812   6.629 -0.1249 -0.0156 -0.3012
 1124YOPC   D3B16325  13.740   3.651   6.968  0.1652  0.1506  0.1104
 1124YOPC   C4B16326  13.923   3.370   7.285 -0.3061 -0.0376 -0.0505
 1125YOPC   NC316327  11.005   0.068   5.225 -0.0182 -0.2629  0.1396
 1125YOPC   PO416328  11.042  -0.181   5.649 -0.3704  0.0528  0.1162
 1125YOPC   GL116329  11.166  -0.191   6.101 -0.2686 -0.1116 -0.1881
 1125YOPC   GL216330  11.023  -0.540   6.244 -0.2515  0.1484 -0.0959
 1125YOPC   C1A16331  11.290   0.098   6.337  0.0080  0.0585  0.2998
 1125YOPC   D2A16332  11.343   0.186   6.806 -0.1222  0.2312 -0.0636
 1125YOPC   C3A16333  11.490   0.287   7.189  0.0390 -0.0614  0.0921
 1125YOPC   C4A16334  11.793   0.357   7.434 -0.1036  0.0485  0.0185
 1125YOPC   C1B16335  11.130  -0.295   6.655  0.0583 -0.1604  0.1122
 1125YOPC   C2B16336  11.231  -0.252   7.120  0.0047 -0.1403  0.2892
 1125YOPC   D3B16337  11.135  -0.509   7.488 -0.1837  0.0707  0.2858
 1125YOPC   C4B16338  11.421  -0.666   7.959 -0.0117 -0.5199  0.0451
 1126YOPC   NC316339  10.419   9.199   5.743 -0.1157 -0.0511 -0.0947
 1126YOPC   PO416340  10.089   9.151   5.917  0.3618 -0.0649  0.2181
 1126YOPC   GL116341  10.092   8.877   6.203 -0.0711 -0.0477  0.1778
 1126YOPC   GL216342   9.758   8.731   6.241  0.0496  0.3055 -0.1729
 1126YOPC   C1A16343  10.147   8.717   6.670 -0.3959 -0.0607  0.1813
 1126YOPC   D2A16344  10.101   8.548   6.950 -0.0328  0.2422  0.2819
 1126YOPC   C3A16345  10.185   8.748   7.398  0.1952  0.2394 -0.1848
 1126YOPC   C4A16346  10.153   8.472   7.737  0.0569 -0.0459  0.2172
 1126YOPC   C1B16347   9.598   8.653   6.632  0.2807 -0.0770  0.0300
 1126YOPC   C2B16348   9.520   8.553   7.065 -0.0690 -0.1815 -0.1381
 1126YOPC   D3B16349   9.822   8.430   7.395 -0.2723 -0.0990 -0.3569
 1126YOPC   C4B16350   9.703   8.206   7.721  0.1855  0.0490  0.1823
 1127YOPC   NC316351   9.087  10.096   5.859  0.0871 -0.0390  0.0858
 1127YOPC   PO416352   8.693   9.972   6.007 -0.0041  0.1451  0.1925
 1127YOPC   GL116353   8.729  10.037   6.499  0.2441  0.1136 -0.2395
 1127YOPC   GL216354   8.553  10.322   6.608  0.1429 -0.0089 -0.1757
 1127YOPC   C1A16355   8.589  10.001   6.956 -0.2395 -0.0522  0.1247
 1127YOPC   D2A16356   8.695  10.105   7.354 -0.1765 -0.1532 -0.0872
 1127YOPC   C3A16357   8.470   9.846   7.681  0.3120  0.1119  0.0305
 1127YOPC   C4A16358   8.107   9.899   7.984 -0.0839 -0.1797  0.2187
 1127YOPC   C1B16359   8.191  10.068   6.681 -0.2331 -0.0161 -0.2334
 1127YOPC   C2B16360   8.138   9.709   6.998 -0.0745 -0.0022 -0.1592
 1127YOPC   D3B16361   8.503   9.596   7.231 -0.1428 -0.0625  0.2568
 1127YOPC   C4B16362   8.740   9.215   7.012 -0.2957 -0.1105  0.2379
 1128YOPC   NC316363   1.927  15.117   5.909  0.0541  0.0783 -0.1411
 1128YOPC   PO416364   2.066  15.527   5.760  0.3997 -0.0724  0.2466
 1128YOPC   GL116365   2.138  15.577   6.193  0.1388 -0.1964 -0.0562
 1128YOPC   GL216366   2.116  15.297   6.342 -0.1284 -0.0623 -0.1806
 1128YOPC   C1A16367   2.168  15.727   6.566  0.3113  0.1417 -0.3369
 1128YOPC   D2A16368   2.478  15.793   6.965  0.1953  0.0137 -0.3912
 1128YOPC   C3A16369   2.572  15.967   7.325  0.1088 -0.2091 -0.4082
 1128YOPC   C4A16370   2.689  16.065   7.683 -0.1884 -0.1362  0.1696
 1128YOPC   C1B16371   1.798  15.357   6.679  0.1178  0.1534 -0.0493
 1128YOPC   C2B16372   1.421  15.194   6.829 -0.0135 -0.0774  0.1943
 1128YOPC   D3B16373   1.492  15.245   7.280  0.0024 -0.0936 -0.4203
 1128YOPC   C4B16374   1.414  15.177   7.663  0.0819  0.0174  0.1583
 1129YOPC   NC316375   6.427  16.046   6.173 -0.0464 -0.0320 -0.2085
 1129YOPC   PO416376   6.475  15.573   6.382  0.2133 -0.0027  0.0394
 1129YOPC   GL116377   6.933  15.518   6.616  0.0039 -0.2498 -0.1057
 1129YOPC   GL216378   7.248  15.613   6.424 -0.0162 -0.2073 -0.0154
 1129YOPC   C1A16379   7.001  15.265   7.046  0.2485 -0.0267 -0.3023
 1129YOPC   D2A16380   6.894  15.192   7.460  0.1104 -0.0358  0.0729
 1129YOPC   C3A16381   6.469  15.168   7.508  0.1683  0.1570  0.0844
 1129YOPC   C4A16382   6.285  14.981   7.781 -0.1334 -0.0589 -0.1350
 1129YOPC   C1B16383   7.340  15.245   6.707  0.2339 -0.2562 -0.1377
 1129YOPC   C2B16384   7.679  15.362   6.988  0.1135 -0.1011 -0.1688
 1129YOPC   D3B16385   7.977  15.070   7.300 -0.1392  0.0956 -0.0474
 1129YOPC   C4B16386   7.979  14.882   7.734 -0.2393 -0.0541  0.1470
 1130YOPC   NC316387   7.555  13.490   6.306  0.0965 -0.1214  0.0330
 1130YOPC   PO416388   7.499  13.964   6.349  0.0032 -0.2168  0.3613
 1130YOPC   GL116389   7.577  14.148   6.640 -0.0620  0.0059 -0.1275
 1130YOPC   GL216390   7.874  14.163   6.890  0.0936 -0.0433 -0.0596
 1130YOPC   C1A16391   7.349  14.241   6.964 -0.0986  0.0275  0.1517
 1130YOPC   D2A16392   7.057  14.480   7.220 -0.2312  0.1583 -0.0279
 1130YOPC   C3A16393   7.076  14.751   7.600  0.0473  0.0224  0.4520
 1130YOPC   C4A16394   7.175  14.936   7.970 -0.1975  0.3405  0.1628
 1130YOPC   C1B16395   7.687  14.055   7.289 -0.1109  0.0363 -0.0245
 1130YOPC   C2B16396   7.308  14.143   7.489 -0.0235  0.3372 -0.1932
 1130YOPC   D3B16397   7.507  14.014   7.844 -0.0704 -0.1864 -0.0541
 1130YOPC   C4B16398   7.542  14.014   8.286 -0.1021  0.0992 -0.3186
 1131YOPC   NC316399  14.625   8.873   5.046  0.1682  0.2520 -0.3114
 1131YOPC   PO416400  14.964   8.697   5.214  0.0045 -0.2136 -0.2963
 1131YOPC   GL116401  14.771   8.822   5.573 -0.2066  0.3004 -0.1121
 1131YOPC   GL216402  14.408   8.822   5.610  0.1762  0.1414  0.1579
 1131YOPC   C1A16403  14.842   8.888   6.024 -0.0165 -0.1193 -0.1424
 1131YOPC   D2A16404  14.897   8.849   6.500  0.3138  0.0764  0.0944
 1131YOPC   C3A16405  14.492   8.726   6.863  0.0625  0.0850  0.0565
 1131YOPC   C4A16406  14.490   8.351   7.129  0.1073  0.3065  0.1519
 1131YOPC   C1B16407  14.620   8.406   5.811  0.1390  0.0527  0.1435
 1131YOPC   C2B16408  14.994   8.231   5.924  0.0834 -0.0715 -0.1513
 1131YOPC   D3B16409  15.019   8.316   6.320  0.1760  0.0895 -0.3625
 1131YOPC   C4B16410  15.284   8.218   6.705 -0.3103  0.4930  0.0461
 1132YOPC   NC316411   3.790  18.119   5.639  0.0725  0.0075 -0.2312
 1132YOPC   PO416412   3.564  17.774   5.548 -0.3110 -0.0829 -0.1344
 1132YOPC   GL116413   3.708  17.843   6.050  0.0396  0.1584 -0.0096
 1132YOPC   GL216414   4.017  17.985   6.059  0.0548 -0.0445  0.3137
 1132YOPC   C1A16415   3.321  17.872   6.349 -0.0369  0.2833 -0.3316
 1132YOPC   D2A16416   3.301  17.819   6.863  0.1685  0.2335 -0.1180
 1132YOPC   C3A16417   3.549  18.105   7.238  0.0705 -0.0143  0.3606
 1132YOPC   C4A16418   3.892  18.204   7.457 -0.1313 -0.0157 -0.0872
 1132YOPC   C1B16419   4.171  17.895   6.503  0.1441 -0.1841 -0.3196
 1132YOPC   C2B16420   3.887  17.729   6.699 -0.3065 -0.1377  0.0552
 1132YOPC   D3B16421   3.883  17.754   7.195 -0.2970 -0.0441 -0.1565
 1132YOPC   C4B16422   3.642  17.644   7.507 -0.2636  0.1643 -0.0277
 1133YOPC   NC316423   7.319   6.098   5.920 -0.0664 -0.0004 -0.1350
 1133YOPC   PO416424   7.168   5.787   5.685 -0.1008  0.1057  0.1105
 1133YOPC   GL116425   6.973   5.741   6.033  0.2482 -0.0509  0.1472
 1133YOPC   GL216426   7.153   5.847   6.304 -0.1852  0.0228 -0.3588
 1133YOPC   C1A16427   6.979   5.405   6.380 -0.0313  0.0884 -0.3239
 1133YOPC   D2A16428   6.932   5.130   6.834  0.1855  0.2129 -0.2734
 1133YOPC   C3A16429   6.870   5.401   7.174 -0.0805 -0.1499  0.1200
 1133YOPC   C4A16430   6.771   5.765   7.388 -0.2317 -0.2030 -0.1611
 1133YOPC   C1B16431   7.312   5.671   6.743  0.0923 -0.2616 -0.1104
 1133YOPC   C2B16432   7.556   5.983   6.991  0.2957  0.0550  0.2466
 1133YOPC   D3B16433   7.478   6.371   7.077  0.0209 -0.2537 -0.1529
 1133YOPC   C4B16434   7.315   6.554   7.518 -0.0856 -0.3465  0.0125
 1134YOPC   NC316435  10.993   2.891   5.810 -0.0725  0.2295  0.0073
 1134YOPC   PO416436  10.886   3.400   5.867 -0.0157 -0.0485 -0.0814
 1134YOPC   GL116437  10.895   3.212   6.226 -0.0151 -0.1216 -0.0836
 1134YOPC   GL216438  10.699   2.996   6.223  0.1871  0.1343 -0.0246
 1134YOPC   C1A16439  10.894   3.262   6.677  0.2080  0.1087  0.0651
 1134YOPC   D2A16440  10.940   3.482   6.986 -0.3151  0.0488 -0.1993
 1134YOPC   C3A16441  10.862   3.283   7.402  0.0328 -0.0533 -0.1133
 1134YOPC   C4A16442  10.954   3.157   7.794  0.1820 -0.1769  0.3342
 1134YOPC   C1B16443  10.963   2.746   6.458  0.1875 -0.1871 -0.0706
 1134YOPC   C2B16444  11.005   2.585   6.915 -0.0169 -0.2154  0.0001
 1134YOPC   D3B16445  11.112   2.619   7.343 -0.4182  0.0206  0.0517
 1134YOPC   C4B16446  11.241   2.582   7.799  0.3446  0.2427 -0.3840
 1135YOPC   NC316447   2.102   8.240   5.255 -0.2096 -0.0234  0.1014
 1135YOPC   PO416448   1.969   7.765   5.400 -0.2911 -0.0395  0.0796
 1135YOPC   GL116449   1.697   7.792   5.778 -0.0732 -0.0418  0.0272
 1135YOPC   GL216450   1.986   7.705   6.023 -0.0900  0.1297 -0.1741
 1135YOPC   C1A16451   1.440   7.677   6.026 -0.1232  0.1451  0.2550
 1135YOPC   D2A16452   1.129   7.611   6.269 -0.1346 -0.3604 -0.1858
 1135YOPC   C3A16453   1.215   7.520   6.734 -0.3188  0.1852  0.0621
 1135YOPC   C4A16454   1.057   7.291   7.117 -0.1923 -0.2977  0.2686
 1135YOPC   C1B16455   2.130   7.706   6.490  0.0860 -0.0278 -0.1841
 1135YOPC   C2B16456   2.078   7.485   6.957 -0.1143  0.0236 -0.3078
 1135YOPC   D3B16457   2.384   7.520   7.427 -0.0643 -0.2455 -0.0197
 1135YOPC   C4B16458   2.401   7.626   7.851  0.0291 -0.1288  0.0557
 1136YOPC   NC316459  11.143   4.864   5.617 -0.3340  0.2201  0.0350
 1136YOPC   PO416460  11.559   4.896   5.761 -0.1051  0.0840  0.0988
 1136YOPC   GL116461  11.666   4.972   6.199  0.3289  0.0891  0.4105
 1136YOPC   GL216462  12.017   4.945   6.133 -0.2604 -0.0650 -0.0606
 1136YOPC   C1A16463  11.753   5.164   6.617  0.0382 -0.0153  0.0039
 1136YOPC   D2A16464  11.990   5.572   6.594 -0.0458  0.1113 -0.3810
 1136YOPC   C3A16465  12.292   5.634   6.908 -0.2211 -0.2140 -0.0852
 1136YOPC   C4A16466  12.348   5.565   7.314 -0.0471  0.1040  0.0420
 1136YOPC   C1B16467  12.226   4.964   6.500 -0.0416 -0.1823  0.2751
 1136YOPC   C2B16468  12.234   5.134   6.998  0.2055  0.0486 -0.1676
 1136YOPC   D3B16469  11.843   5.415   7.174  0.1387  0.2896  0.0543
 1136YOPC   C4B16470  11.743   5.793   7.023  0.3211  0.0229  0.2797
 1137YOPC   NC316471  12.596  12.307   5.873  0.1951 -0.1002 -0.1743
 1137YOPC   PO416472  13.060  12.344   5.770  0.0958  0.5131  0.1763
 1137YOPC   GL116473  13.044  12.468   6.272  0.2986  0.0257 -0.0456
 1137YOPC   GL216474  13.206  12.152   6.431  0.1054  0.0465 -0.1679
 1137YOPC   C1A16475  13.033  12.691   6.710  0.1351  0.0893  0.0367
 1137YOPC   D2A16476  12.904  12.814   7.152  0.2036  0.1345  0.0210
 1137YOPC   C3A16477  12.645  12.720   7.494 -0.0361 -0.3429  0.4674
 1137YOPC   C4A16478  12.610  12.565   7.872 -0.1230  0.1256  0.1600
 1137YOPC   C1B16479  13.234  12.311   6.924 -0.0706  0.0401 -0.1067
 1137YOPC   C2B16480  13.336  12.414   7.357  0.0367  0.2018  0.5056
 1137YOPC   D3B16481  13.143  12.668   7.589  0.3697  0.1078 -0.2296
 1137YOPC   C4B16482  12.932  13.034   7.771  0.0039  0.2207  0.1139
 1138YOPC   NC316483   7.694   7.134   5.638  0.0732  0.3743  0.1360
 1138YOPC   PO416484   7.833   6.812   5.410  0.1832  0.1788 -0.0267
 1138YOPC   GL116485   7.910   6.747   5.964  0.0001  0.2736 -0.3436
 1138YOPC   GL216486   7.622   6.892   6.101 -0.2699 -0.0186 -0.0497
 1138YOPC   C1A16487   8.198   6.840   6.280 -0.2211 -0.1504 -0.2114
 1138YOPC   D2A16488   8.275   7.170   6.584  0.1001 -0.2967 -0.0205
 1138YOPC   C3A16489   8.139   7.182   6.919  0.1526  0.0638  0.1604
 1138YOPC   C4A16490   7.939   7.225   7.362  0.1171 -0.0153  0.0280
 1138YOPC   C1B16491   7.705   6.793   6.547 -0.1469  0.0645 -0.0919
 1138YOPC   C2B16492   7.642   6.874   6.988 -0.1158 -0.0050 -0.0944
 1138YOPC   D3B16493   7.207   6.952   7.153  0.0674  0.2404 -0.0582
 1138YOPC   C4B16494   6.917   6.939   7.488 -0.3344 -0.2957  0.0674
 1139YOPC   NC316495  17.412   1.831   5.662  0.2608 -0.1390  0.0670
 1139YOPC   PO416496  17.032   2.115   5.520 -0.1301  0.0024  0.2806
 1139YOPC   GL116497  16.699   2.196   5.728 -0.2007  0.1696  0.1527
 1139YOPC   GL216498  16.723   1.770   5.814  0.2070 -0.0678  0.0361
 1139YOPC   C1A16499  16.714   2.397   6.106  0.4114 -0.1958 -0.1397
 1139YOPC   D2A16500  16.551   2.684   6.277 -0.0876 -0.2107 -0.1475
 1139YOPC   C3A16501  16.685   2.763   6.780  0.2798 -0.0117 -0.1434
 1139YOPC   C4A16502  16.794   2.878   7.203 -0.0034 -0.2377 -0.0054
 1139YOPC   C1B16503  16.582   1.947   6.148 -0.1176 -0.0941 -0.0083
 1139YOPC   C2B16504  16.220   2.040   6.420  0.0838  0.1651 -0.1705
 1139YOPC   D3B16505  16.072   1.911   6.827 -0.1256 -0.0387 -0.0330
 1139YOPC   C4B16506  16.258   1.719   7.032 -0.2701  0.0463  0.1944
 1140YOPC   NC316507  17.240   0.031   5.833 -0.0198  0.3635  0.1272
 1140YOPC   PO416508  17.035  -0.379   5.994  0.2093 -0.1287 -0.2530
 1140YOPC   GL116509  17.231  -0.201   6.339  0.1877  0.2165  0.2468
 1140YOPC   GL216510  17.406  -0.426   6.474  0.1424  0.0400  0.0001
 1140YOPC   C1A16511  17.411  -0.095   6.838  0.1615 -0.2295 -0.0112
 1140YOPC   D2A16512  17.390  -0.173   7.411 -0.2460  0.2179 -0.2020
 1140YOPC   C3A16513  17.643  -0.537   7.628 -0.1543 -0.2473  0.1864
 1140YOPC   C4A16514  17.744  -0.769   7.964  0.0559 -0.1790 -0.1229
 1140YOPC   C1B16515  17.452  -0.812   6.792  0.0049 -0.0966  0.2559
 1140YOPC   C2B16516  17.482  -1.135   6.727  0.0858 -0.0428 -0.4605
 1140YOPC   D3B16517  17.441  -1.240   7.072  0.2951 -0.1095  0.2664
 1140YOPC   C4B16518  17.267  -1.164   7.423  0.2794  0.0005  0.1789
 1141YOPC   NC316519  11.825  11.067   5.924 -0.0400  0.3582  0.0996
 1141YOPC   PO416520  11.420  10.911   5.900 -0.2401 -0.3764  0.3882
 1141YOPC   GL116521  11.257  10.869   6.301 -0.2232 -0.0543  0.0451
 1141YOPC   GL216522  11.397  10.614   6.499  0.2802 -0.2633 -0.0933
 1141YOPC   C1A16523  11.299  11.219   6.589 -0.2790  0.0022 -0.2356
 1141YOPC   D2A16524  11.358  11.537   6.923  0.3440 -0.2067 -0.0531
 1141YOPC   C3A16525  11.009  11.610   7.100 -0.0191  0.0182 -0.3339
 1141YOPC   C4A16526  10.717  11.315   7.102  0.0249 -0.2182  0.0539
 1141YOPC   C1B16527  11.181  10.768   6.859 -0.3839  0.1955  0.1695
 1141YOPC   C2B16528  11.188  11.082   7.128 -0.1340  0.0034  0.3641
 1141YOPC   D3B16529  11.338  10.934   7.529  0.2395 -0.3302  0.2775
 1141YOPC   C4B16530  11.385  10.719   8.014  0.0399 -0.0729 -0.0070
 1142YOPC   NC316531  11.796  16.449   5.941  0.2460 -0.0929 -0.0286
 1142YOPC   PO416532  12.158  16.433   5.676 -0.1956  0.1318  0.0430
 1142YOPC   GL116533  12.270  16.516   6.119  0.0663  0.2058  0.0652
 1142YOPC   GL216534  12.489  16.219   6.321 -0.4485 -0.1994  0.1293
 1142YOPC   C1A16535  12.108  16.698   6.489 -0.0037 -0.1952 -0.0266
 1142YOPC   D2A16536  11.793  16.881   6.619  0.0769 -0.0762 -0.1875
 1142YOPC   C3A16537  11.742  16.746   6.983  0.1017  0.0357  0.1658
 1142YOPC   C4A16538  11.945  16.825   7.368 -0.0459 -0.0595 -0.0692
 1142YOPC   C1B16539  12.723  16.296   6.651  0.0945  0.2035  0.1254
 1142YOPC   C2B16540  12.853  16.501   7.078 -0.0675  0.0913 -0.0057
 1142YOPC   D3B16541  12.792  16.488   7.509  0.0066 -0.2402  0.0903
 1142YOPC   C4B16542  12.514  16.595   7.777 -0.3192  0.2887  0.1512
 1143YOPC   NC316543   0.143   8.616   5.125 -0.2810  0.0527 -0.2162
 1143YOPC   PO416544   0.398   8.357   5.400 -0.0506  0.0192  0.0214
 1143YOPC   GL116545   0.555   8.195   5.740 -0.1932 -0.0648 -0.0552
 1143YOPC   GL216546   0.318   8.429   5.936 -0.2084  0.2083  0.1601
 1143YOPC   C1A16547   0.657   7.854   6.040 -0.1809 -0.1814  0.0677
 1143YOPC   D2A16548   0.784   7.895   6.442  0.1179 -0.1520  0.0665
 1143YOPC   C3A16549   0.705   7.573   6.605 -0.0484 -0.4483 -0.4271
 1143YOPC   C4A16550   0.593   7.402   6.994  0.1066 -0.3227 -0.0451
 1143YOPC   C1B16551   0.419   8.234   6.345  0.1730 -0.0135 -0.3014
 1143YOPC   C2B16552   0.521   8.382   6.783  0.0861  0.2366  0.0024
 1143YOPC   D3B16553   0.469   8.286   7.267  0.0087  0.0489  0.1277
 1143YOPC   C4B16554   0.387   8.338   7.657 -0.3260 -0.1403  0.1565
 1144YOPC   NC316555  16.222   6.534   5.452 -0.1276  0.1281 -0.2638
 1144YOPC   PO416556  15.849   6.921   5.485  0.2096  0.0869  0.2376
 1144YOPC   GL116557  16.147   6.778   5.859 -0.1399 -0.2740 -0.0381
 1144YOPC   GL216558  16.301   7.077   5.881  0.0647 -0.1262  0.1698
 1144YOPC   C1A16559  16.159   6.530   6.183  0.0171 -0.3373  0.1024
 1144YOPC   D2A16560  16.419   6.428   6.483  0.0485 -0.0790  0.0326
 1144YOPC   C3A16561  16.444   6.156   6.824 -0.0973  0.0908  0.0323
 1144YOPC   C4A16562  16.490   5.736   6.740 -0.1291 -0.1408 -0.0795
 1144YOPC   C1B16563  16.587   6.879   6.203  0.2657 -0.0236 -0.0213
 1144YOPC   C2B16564  16.943   6.910   6.302 -0.1570  0.2500 -0.2248
 1144YOPC   D3B16565  17.094   7.108   6.718 -0.0312 -0.1596 -0.0510
 1144YOPC   C4B16566  17.200   6.932   7.054 -0.2475  0.3229  0.1004
 1145YOPC   NC316567   1.436   7.631   5.351  0.0393  0.1772  0.0924
 1145YOPC   PO416568   1.518   7.175   5.351 -0.1785  0.1355  0.0107
 1145YOPC   GL116569   1.473   7.261   5.793  0.2194 -0.1539  0.2188
 1145YOPC   GL216570   1.187   7.198   6.032  0.1142 -0.4004 -0.1386
 1145YOPC   C1A16571   1.703   7.244   6.160 -0.1227 -0.2203 -0.1274
 1145YOPC   D2A16572   1.691   7.325   6.566 -0.0425 -0.0341  0.0761
 1145YOPC   C3A16573   1.478   7.110   6.888  0.0967 -0.1407  0.2347
 1145YOPC   C4A16574   1.233   6.880   7.211 -0.1850 -0.2761 -0.2874
 1145YOPC   C1B16575   0.956   7.120   6.401 -0.1731 -0.2443  0.1353
 1145YOPC   C2B16576   0.797   7.005   6.767  0.3206 -0.2828 -0.1011
 1145YOPC   D3B16577   0.840   6.607   6.972 -0.1420  0.2530  0.3129
 1145YOPC   C4B16578   0.588   6.406   7.294 -0.0526 -0.1651  0.0894
 1146ERGO   ROH16579  16.866  12.910   6.261  0.0670  0.3545 -0.1586
 1146ERGO    R116580  17.013  12.947   6.500  0.0413  0.1694 -0.1138
 1146ERGO    R216581  16.908  13.075   6.721  0.0254  0.0082 -0.0370
 1146ERGO    R316582  16.983  12.846   6.848  0.0013 -0.0861 -0.1872
 1146ERGO    R416583  16.937  13.038   7.064  0.3435 -0.1053 -0.0712
 1146ERGO    R516584  17.117  12.920   7.032  0.2424 -0.2230 -0.2938
 1146ERGO    C116585  17.024  12.802   7.382  0.5057 -0.2599 -0.2321
 1146ERGO    C216586  16.808  12.610   7.743 -0.0198  0.0358 -0.3200
 1147ERGO   ROH16587   5.023  15.298   6.573 -0.1706 -0.1125  0.0452
 1147ERGO    R116588   5.144  15.205   6.812  0.2263 -0.0060 -0.1041
 1147ERGO    R216589   5.365  15.327   6.925  0.0112  0.4711 -0.1613
 1147ERGO    R316590   5.206  15.338   7.145  0.1105 -0.0984 -0.0462
 1147ERGO    R416591   5.478  15.368   7.249  0.1092  0.3591 -0.1810
 1147ERGO    R516592   5.330  15.223   7.314  0.4505 -0.0250 -0.2423
 1147ERGO    C116593   5.395  15.403   7.644  0.2596 -0.2408 -0.0844
 1147ERGO    C216594   5.603  15.593   7.970  0.1331 -0.1383  0.2949
 1148ERGO   ROH16595   2.705   5.042   9.581 -0.0432  0.1967 -0.2348
 1148ERGO    R116596   2.881   5.065   9.361 -0.0347  0.0878 -0.2401
 1148ERGO    R216597   2.963   4.847   9.212  0.0057  0.0062 -0.1032
 1148ERGO    R316598   2.870   4.996   9.004 -0.0065 -0.1338 -0.1989
 1148ERGO    R416599   3.008   4.770   8.878  0.0394 -0.1827 -0.0560
 1148ERGO    R516600   3.042   4.982   8.839  0.0047 -0.2011 -0.1799
 1148ERGO    C116601   2.947   4.865   8.488  0.0476 -0.4241 -0.1185
 1148ERGO    C216602   2.976   4.750   8.186 -0.2479 -0.2208  0.0793
 1149ERGO   ROH16603  11.319  17.405   6.266  0.1079 -0.1426 -0.0405
 1149ERGO    R116604  11.478  17.285   6.467  0.1534  0.0083  0.0141
 1149ERGO    R216605  11.686  17.419   6.591  0.0209  0.1860  0.0446
 1149ERGO    R316606  11.553  17.348   6.817  0.0228  0.1147  0.0241
 1149ERGO    R416607  11.819  17.429   6.910 -0.0273  0.2433  0.0635
 1149ERGO    R516608  11.719  17.240   6.952  0.0582  0.1916  0.0442
 1149ERGO    C116609  11.772  17.368   7.308 -0.0535  0.2099  0.0554
 1149ERGO    C216610  11.659  17.284   7.599 -0.0278 -0.0623 -0.0894
 1150ERGO   ROH16611  10.335   4.495   6.102  0.0434 -0.0442  0.0140
 1150ERGO    R116612  10.356   4.399   6.368  0.1068 -0.0967 -0.0113
 1150ERGO    R216613  10.589   4.422   6.516  0.0690  0.0770  0.0109
 1150ERGO    R316614  10.424   4.542   6.696 -0.0555 -0.1251  0.0377
 1150ERGO    R416615  10.674   4.498   6.842  0.1756  0.5131 -0.1109
 1150ERGO    R516616  10.475   4.435   6.904  0.3397  0.1326  0.0903
 1150ERGO    C116617  10.570   4.655   7.201  0.1207  0.5771 -0.1567
 1150ERGO    C216618  10.558   5.032   7.335 -0.0399 -0.2786  0.1562
 1151ERGO   ROH16619  17.517   4.710   9.408  0.3084 -0.0263  0.1629
 1151ERGO    R116620  17.568   4.806   9.146  0.1879  0.1009  0.1849
 1151ERGO    R216621  17.698   4.654   8.955  0.2054  0.2375  0.0885
 1151ERGO    R316622  17.478   4.709   8.807  0.1364  0.1914  0.1726
 1151ERGO    R416623  17.684   4.637   8.611  0.0904  0.2807  0.0904
 1151ERGO    R516624  17.563   4.819   8.612  0.0355  0.2446  0.1571
 1151ERGO    C116625  17.468   4.679   8.270 -0.0414  0.2626  0.1705
 1151ERGO    C216626  17.428   4.535   7.915  0.0299  0.1476 -0.0222
 1152ERGO   ROH16627  15.390   1.537   9.859 -0.0587  0.0051  0.0343
 1152ERGO    R116628  15.420   1.661   9.606 -0.0895  0.0031  0.0294
 1152ERGO    R216629  15.605   1.576   9.419 -0.0311  0.0729  0.0505
 1152ERGO    R316630  15.386   1.562   9.257 -0.0120 -0.0353  0.0339
 1152ERGO    R416631  15.614   1.570   9.073 -0.0132  0.1203  0.0502
 1152ERGO    R516632  15.441   1.702   9.071 -0.0872  0.0166  0.0546
 1152ERGO    C116633  15.415   1.553   8.721  0.0152  0.0462  0.0344
 1152ERGO    C216634  15.521   1.590   8.339  0.0324  0.1130 -0.2357
 1153ERGO   ROH16635  17.717   8.321   9.424 -0.0617  0.1199 -0.0884
 1153ERGO    R116636  17.752   8.456   9.178  0.1624  0.0724 -0.0865
 1153ERGO    R216637  17.931   8.371   8.985  0.1271 -0.1412 -0.0343
 1153ERGO    R316638  17.712   8.376   8.825  0.1727  0.0982 -0.0920
 1153ERGO    R416639  17.938   8.393   8.640  0.2411 -0.3232 -0.0443
 1153ERGO    R516640  17.768   8.529   8.650  0.4363 -0.0718 -0.1561
 1153ERGO    C116641  17.735   8.410   8.289  0.3503 -0.2042 -0.1044
 1153ERGO    C216642  17.844   8.492   7.990 -0.3952  0.0171  0.2332
 1154ERGO   ROH16643   4.327  10.013  10.123  0.1862 -0.0031  0.0919
 1154ERGO    R116644   4.279   9.918   9.861  0.2126 -0.0258  0.0962
 1154ERGO    R216645   4.121  10.053   9.680  0.0861 -0.1334  0.1312
 1154ERGO    R316646   4.341  10.034   9.522  0.0722  0.0329  0.0889
 1154ERGO    R416647   4.119  10.082   9.335 -0.0124 -0.1537  0.1291
 1154ERGO    R516648   4.264   9.919   9.326  0.1198 -0.0431  0.1105
 1154ERGO    C116649   4.324  10.081   8.986 -0.0827 -0.0094  0.0883
 1154ERGO    C216650   4.281  10.161   8.581  0.2644 -0.2755  0.1440
 1155ERGO   ROH16651  15.857  12.407   6.272  0.1211 -0.3033  0.0685
 1155ERGO    R116652  16.071  12.459   6.451  0.0268 -0.1436  0.1384
 1155ERGO    R216653  16.055  12.407   6.722 -0.0503 -0.0781  0.1520
 1155ERGO    R316654  16.282  12.265   6.674  0.0392  0.0244  0.2726
 1155ERGO    R416655  16.239  12.242   6.963 -0.2316 -0.1961  0.2110
 1155ERGO    R516656  16.421  12.310   6.864 -0.1565 -0.0716  0.4377
 1155ERGO    C116657  16.560  12.013   7.060 -0.2532 -0.1687  0.3585
 1155ERGO    C216658  16.671  11.887   7.413 -0.2217 -0.0996 -0.1165
 1156ERGO   ROH16659   0.683   5.982   9.404 -0.1878  0.1339 -0.1169
 1156ERGO    R116660   0.532   5.950   9.166 -0.1680  0.1871 -0.1363
 1156ERGO    R216661   0.548   6.127   8.955  0.0223  0.1079 -0.1869
 1156ERGO    R316662   0.602   5.902   8.813 -0.1392  0.0180 -0.1092
 1156ERGO    R416663   0.600   6.117   8.613 -0.0117 -0.0461 -0.1884
 1156ERGO    R516664   0.485   5.933   8.606 -0.1381  0.0247 -0.1117
 1156ERGO    C116665   0.682   5.900   8.281 -0.1831 -0.2203 -0.1166
 1156ERGO    C216666   0.571   5.893   7.897  0.1488  0.0965  0.0677
 1157ERGO   ROH16667   0.082   0.591   6.073  0.1560 -0.0233  0.0114
 1157ERGO    R116668   0.038   0.546   6.349  0.2274  0.1684  0.0541
 1157ERGO    R216669   0.124   0.317   6.478  0.0196  0.1399  0.1243
 1157ERGO    R316670   0.244   0.495   6.645  0.3004  0.0821 -0.0066
 1157ERGO    R416671   0.224   0.248   6.801 -0.2148  0.2267  0.2183
 1157ERGO    R516672   0.152   0.445   6.860  0.1233  0.4350  0.0176
 1157ERGO    C116673   0.395   0.376   7.146 -0.0875  0.2230  0.1502
 1157ERGO    C216674   0.594   0.438   7.439 -0.1002 -0.5534  0.0003
 1158ERGO   ROH16675  12.553  10.402   6.584 -0.0318 -0.3058 -0.2022
 1158ERGO    R116676  12.457  10.432   6.848 -0.1177 -0.2291 -0.2416
 1158ERGO    R216677  12.594  10.337   7.068 -0.2189 -0.2206 -0.1733
 1158ERGO    R316678  12.571  10.594   7.154 -0.1844 -0.1970 -0.2340
 1158ERGO    R416679  12.625  10.439   7.397 -0.1887 -0.1432 -0.1998
 1158ERGO    R516680  12.458  10.576   7.365 -0.1741 -0.1323 -0.2233
 1158ERGO    C116681  12.620  10.739   7.670 -0.1387 -0.0760 -0.2721
 1158ERGO    C216682  12.713  10.915   7.909 -0.1671 -0.0044 -0.1261
 1159ERGO   ROH16683  14.822   1.879   6.116  0.2242 -0.2183  0.0941
 1159ERGO    R116684  14.675   1.947   6.348  0.1574 -0.1545  0.0336
 1159ERGO    R216685  14.440   2.091   6.338  0.2059 -0.0838 -0.0664
 1159ERGO    R316686  14.342   1.880   6.479  0.0868 -0.0415 -0.0841
 1159ERGO    R416687  14.148   2.096   6.523  0.2671  0.1061  0.0280
 1159ERGO    R516688  14.250   1.978   6.677  0.2278 -0.0105 -0.0304
 1159ERGO    C116689  13.886   1.900   6.763  0.1909  0.2565  0.0664
 1159ERGO    C216690  13.641   1.756   6.982  0.0102  0.2430  0.3538
 1160ERGO   ROH16691   7.420  12.849  10.491  0.2422  0.3664 -0.0707
 1160ERGO    R116692   7.553  12.891  10.245  0.2358 -0.1654 -0.1770
 1160ERGO    R216693   7.569  12.697  10.049 -0.5418 -0.3113 -0.1230
 1160ERGO    R316694   7.463  12.892   9.892 -0.0030  0.0050 -0.1193
 1160ERGO    R416695   7.571  12.694   9.703 -0.5035 -0.2917 -0.1233
 1160ERGO    R516696   7.615  12.908   9.707  0.0789 -0.3912 -0.0998
 1160ERGO    C116697   7.472  12.876   9.355  0.0245  0.0166 -0.1199
 1160ERGO    C216698   7.531  12.776   8.925 -0.3508  0.0981 -0.2252
 1161ERGO   ROH16699   6.695  18.247   6.343 -0.0303 -0.2531 -0.0059
 1161ERGO    R116700   6.628  18.335   6.604 -0.0166 -0.0121 -0.0817
 1161ERGO    R216701   6.656  18.174   6.827 -0.3063  0.0811  0.0227
 1161ERGO    R316702   6.802  18.383   6.919 -0.0709 -0.0490 -0.0446
 1161ERGO    R416703   6.882  18.157   7.087 -0.4556 -0.0595  0.1459
 1161ERGO    R516704   6.810  18.350   7.157 -0.2356  0.0898 -0.0151
 1161ERGO    C116705   7.151  18.343   7.326 -0.3216 -0.2635  0.1546
 1161ERGO    C216706   7.451  18.296   7.445  0.1132 -0.2991 -0.1021
 1162ERGO   ROH16707   5.708   5.309   9.949  0.0369 -0.0062 -0.1012
 1162ERGO    R116708   5.648   5.215   9.688 -0.0347  0.0750 -0.1137
 1162ERGO    R216709   5.560   5.383   9.486  0.1212  0.1758 -0.0969
 1162ERGO    R316710   5.770   5.277   9.351  0.0343  0.0047 -0.1028
 1162ERGO    R416711   5.593   5.381   9.143  0.1155  0.1682 -0.0979
 1162ERGO    R516712   5.673   5.179   9.156 -0.0530  0.0963 -0.1088
 1162ERGO    C116713   5.810   5.280   8.815  0.0306  0.0031 -0.1041
 1162ERGO    C216714   5.678   5.273   8.495 -0.1730 -0.1974  0.0598
 1163ERGO   ROH16715   4.587   4.979   9.655 -0.1705 -0.0272  0.0855
 1163ERGO    R116716   4.759   4.959   9.431 -0.1340 -0.0571  0.1158
 1163ERGO    R216717   4.792   4.724   9.289 -0.2306 -0.0363  0.0574
 1163ERGO    R316718   4.724   4.881   9.078 -0.1030  0.0598  0.0865
 1163ERGO    R416719   4.894   4.672   8.963 -0.0390  0.1087  0.0927
 1163ERGO    R516720   4.921   4.887   8.942 -0.0226  0.1180  0.2051
 1163ERGO    C116721   4.890   4.788   8.575  0.1924  0.2833  0.1407
 1163ERGO    C216722   4.864   4.699   8.295 -0.1343 -0.2116 -0.1792
 1164ERGO   ROH16723   6.224  10.037   6.620  0.1563 -0.1145  0.0370
 1164ERGO    R116724   6.075   9.986   6.856  0.0179 -0.1628 -0.0586
 1164ERGO    R216725   6.099   9.751   6.998  0.1010 -0.1048  0.0313
 1164ERGO    R316726   6.149   9.920   7.206 -0.1888  0.0030  0.0177
 1164ERGO    R416727   6.084   9.662   7.332 -0.0220 -0.0203  0.0483
 1164ERGO    R516728   5.990   9.855   7.374 -0.2318 -0.0978 -0.0637
 1164ERGO    C116729   6.123   9.769   7.721 -0.3657  0.1301  0.0455
 1164ERGO    C216730   6.253   9.595   7.996 -0.3685  0.0833  0.0212
 1165ERGO   ROH16731  17.060  11.950   6.342  0.0501  0.1385  0.0605
 1165ERGO    R116732  17.156  11.852   6.589 -0.0541  0.0035  0.0481
 1165ERGO    R216733  17.148  12.001   6.822 -0.0825 -0.0952  0.1099
 1165ERGO    R316734  17.017  11.783   6.919 -0.1746 -0.1001 -0.0233
 1165ERGO    R416735  17.174  11.882   7.146 -0.1674 -0.2759  0.0518
 1165ERGO    R516736  17.174  11.679   7.066 -0.2303 -0.2353 -0.0564
 1165ERGO    C116737  17.065  11.609   7.425 -0.3031 -0.3856 -0.1070
 1165ERGO    C216738  17.005  11.681   7.858  0.0321 -0.2638  0.0833
 1166ERGO   ROH16739   1.602   5.281   8.975 -0.1130  0.1873 -0.1050
 1166ERGO    R116740   1.521   5.208   8.713 -0.0305  0.0740 -0.0999
 1166ERGO    R216741   1.492   5.393   8.509  0.0370 -0.0145 -0.1906
 1166ERGO    R316742   1.662   5.225   8.379  0.0769 -0.0747 -0.0634
 1166ERGO    R416743   1.538   5.385   8.167  0.1478 -0.1619 -0.1735
 1166ERGO    R516744   1.546   5.168   8.177  0.1405 -0.1585 -0.0772
 1166ERGO    C116745   1.724   5.224   7.845  0.2496 -0.3042 -0.0442
 1166ERGO    C216746   1.764   5.277   7.555 -0.0079 -0.3074 -0.0180
 1167ERGO   ROH16747   3.319   5.309   6.027 -0.0551 -0.0119  0.0803
 1167ERGO    R116748   3.500   5.294   6.244 -0.0467  0.0606  0.0786
 1167ERGO    R216749   3.547   5.507   6.413 -0.0436  0.1158  0.0088
 1167ERGO    R316750   3.482   5.326   6.606 -0.0335  0.1766  0.0692
 1167ERGO    R416751   3.591   5.557   6.753 -0.0695  0.2419 -0.0060
 1167ERGO    R516752   3.656   5.349   6.769 -0.0458  0.2554  0.0718
 1167ERGO    C116753   3.556   5.417   7.131 -0.0751  0.3725  0.0421
 1167ERGO    C216754   3.570   5.308   7.504 -0.2196  0.0297 -0.3860
 1168ERGO   ROH16755   9.228  12.988   6.717 -0.1478 -0.2142  0.1693
 1168ERGO    R116756   9.300  13.084   6.973 -0.1141 -0.1023  0.1189
 1168ERGO    R216757   9.471  12.945   7.141 -0.0443 -0.0002  0.1335
 1168ERGO    R316758   9.608  13.180   7.143 -0.0992  0.0334  0.0170
 1168ERGO    R416759   9.625  13.082   7.419 -0.0737  0.1712  0.0664
 1168ERGO    R516760   9.555  13.278   7.355 -0.1206  0.1246 -0.0297
 1168ERGO    C116761   9.844  13.382   7.582 -0.1423  0.3026 -0.0819
 1168ERGO    C216762  10.032  13.611   7.621 -0.3453 -0.3805  0.0569
 1169ERGO   ROH16763  17.705  16.018   6.456  0.1770  0.2251 -0.1549
 1169ERGO    R116764  17.872  16.168   6.628  0.0616  0.2025 -0.0226
 1169ERGO    R216765  17.773  16.348   6.812 -0.0771 -0.0262  0.1273
 1169ERGO    R316766  17.919  16.201   6.987  0.0258 -0.0668  0.0097
 1169ERGO    R416767  17.835  16.436   7.141  0.0212 -0.1509  0.1436
 1169ERGO    R516768  18.039  16.364   7.116  0.0330 -0.0902  0.0357
 1169ERGO    C116769  18.008  16.350   7.496  0.1750 -0.2616  0.0427
 1169ERGO    C216770  18.057  16.261   7.737  0.1221 -0.0962  0.0822
 1170ERGO   ROH16771   4.031   8.388  10.274  0.0519  0.1364  0.0025
 1170ERGO    R116772   4.155   8.426  10.022  0.0183 -0.0391 -0.0416
 1170ERGO    R216773   4.162   8.229   9.828 -0.1826 -0.1084  0.0176
 1170ERGO    R316774   4.052   8.423   9.673 -0.0735 -0.0707 -0.0138
 1170ERGO    R416775   4.200   8.255   9.486 -0.2118 -0.2077  0.0062
 1170ERGO    R516776   4.219   8.470   9.509 -0.0663 -0.2167 -0.0464
 1170ERGO    C116777   4.119   8.453   9.141 -0.1264 -0.2301 -0.0299
 1170ERGO    C216778   4.086   8.550   8.846  0.1172  0.1498 -0.2006
 1171ERGO   ROH16779  17.097   6.629   9.546  0.0084  0.2937  0.1002
 1171ERGO    R116780  17.220   6.679   9.295 -0.1520  0.3995  0.0423
 1171ERGO    R216781  17.260   6.480   9.107  0.0721  0.4019  0.0938
 1171ERGO    R316782  17.125   6.651   8.945 -0.2366  0.1568  0.0805
 1171ERGO    R416783  17.220   6.440   8.766  0.2647  0.3577  0.0749
 1171ERGO    R516784  17.252   6.654   8.742 -0.1651  0.4428  0.1181
 1171ERGO    C116785  17.071   6.577   8.415  0.0870  0.1019  0.0513
 1171ERGO    C216786  17.144   6.566   8.049  0.3616  0.1498 -0.0459
 1172ERGO   ROH16787  11.161   7.056   6.097 -0.0812 -0.0985 -0.1163
 1172ERGO    R116788  11.245   7.187   6.334 -0.1076 -0.0465 -0.1350
 1172ERGO    R216789  11.119   7.414   6.430 -0.2252 -0.1199 -0.1058
 1172ERGO    R316790  11.100   7.266   6.658 -0.0845 -0.1350 -0.1036
 1172ERGO    R416791  11.042   7.542   6.742 -0.2302 -0.1741 -0.0853
 1172ERGO    R516792  11.191   7.408   6.828 -0.1314 -0.0848 -0.1225
 1172ERGO    C116793  10.979   7.478   7.137 -0.1009 -0.2198 -0.0714
 1172ERGO    C216794  10.956   7.708   7.352  0.2201  0.0231 -0.3699
 1173ERGO   ROH16795  16.291   0.830   6.448  0.0202  0.2650 -0.2855
 1173ERGO    R116796  16.160   1.072   6.517 -0.2398  0.0891 -0.1417
 1173ERGO    R216797  15.916   1.078   6.645 -0.0494 -0.2524  0.2669
 1173ERGO    R316798  16.048   1.234   6.823  0.0178 -0.0009  0.0030
 1173ERGO    R416799  15.768   1.247   6.907  0.0922 -0.1432  0.2772
 1173ERGO    R516800  15.899   1.417   6.865 -0.0755 -0.0778  0.0009
 1173ERGO    C116801  15.806   1.493   7.227  0.2379  0.1565  0.0353
 1173ERGO    C216802  15.585   1.634   7.552  0.0856 -0.0423  0.2201
 1174ERGO   ROH16803   7.266   2.867   6.231  0.2769  0.0580  0.0722
 1174ERGO    R116804   7.058   2.801   6.411  0.2116  0.0301 -0.0129
 1174ERGO    R216805   6.924   2.559   6.402  0.3178 -0.0306 -0.0023
 1174ERGO    R316806   6.998   2.546   6.663  0.1907  0.0876  0.0404
 1174ERGO    R416807   6.735   2.418   6.654  0.2964 -0.1239 -0.0701
 1174ERGO    R516808   6.795   2.582   6.784  0.0975 -0.0460 -0.0745
 1174ERGO    C116809   6.693   2.324   7.046  0.1647 -0.0672 -0.0694
 1174ERGO    C216810   6.521   2.328   7.392  0.4463  0.0141  0.3507
 1175ERGO   ROH16811   7.401   3.897   5.943 -0.0429  0.0525  0.0589
 1175ERGO    R116812   7.408   3.997   6.208  0.0631  0.0404  0.0619
 1175ERGO    R216813   7.189   3.987   6.376  0.0783  0.1774  0.0986
 1175ERGO    R316814   7.364   3.861   6.542  0.0256  0.0554  0.0616
 1175ERGO    R416815   7.212   4.040   6.717 -0.0344 -0.0953  0.1506
 1175ERGO    R516816   7.428   4.030   6.700 -0.0334 -0.0713  0.2178
 1175ERGO    C116817   7.389   3.953   7.071 -0.1495 -0.3687  0.1461
 1175ERGO    C216818   7.302   3.887   7.387  0.0613 -0.5502 -0.2968
 1176ERGO   ROH16819  12.706  12.131   6.437 -0.3200 -0.0849 -0.0057
 1176ERGO    R116820  12.817  12.159   6.696 -0.1704 -0.0624 -0.0733
 1176ERGO    R216821  12.730  12.351   6.875 -0.1215 -0.1050 -0.0173
 1176ERGO    R316822  12.697  12.136   7.038  0.0519 -0.1194  0.0048
 1176ERGO    R416823  12.777  12.355   7.217  0.0329 -0.0643 -0.0361
 1176ERGO    R516824  12.871  12.159   7.202  0.1223 -0.0276 -0.0732
 1176ERGO    C116825  12.773  12.156   7.570  0.2855 -0.0542 -0.0263
 1176ERGO    C216826  12.936  12.218   7.856 -0.0829  0.2692  0.1618
 1177ERGO   ROH16827   5.929   7.635   9.921 -0.2637 -0.0515  0.0525
 1177ERGO    R116828   5.817   7.729   9.679 -0.1309  0.1403  0.0625
 1177ERGO    R216829   5.929   7.936   9.533  0.2119 -0.0444  0.0478
 1177ERGO    R316830   5.922   7.754   9.332 -0.1185 -0.0426  0.0532
 1177ERGO    R416831   5.931   8.013   9.196  0.4314 -0.0587  0.0445
 1177ERGO    R516832   5.785   7.855   9.164  0.1142  0.2315  0.0227
 1177ERGO    C116833   5.925   7.886   8.811  0.2490 -0.0652  0.0476
 1177ERGO    C216834   5.941   7.841   8.499  0.1017 -0.0006 -0.0373
 1178ERGO   ROH16835   7.005   4.492  10.104  0.0273 -0.0915  0.0067
 1178ERGO    R116836   6.992   4.549   9.827 -0.0794 -0.0549  0.0188
 1178ERGO    R216837   7.216   4.557   9.665 -0.1316  0.0421 -0.0530
 1178ERGO    R316838   7.075   4.378   9.517 -0.1210  0.0174 -0.0321
 1178ERGO    R416839   7.184   4.565   9.321 -0.0836 -0.0365 -0.0593
 1178ERGO    R516840   6.975   4.509   9.344 -0.0884 -0.0183 -0.0762
 1178ERGO    C116841   7.034   4.402   8.982 -0.0456 -0.1055 -0.0433
 1178ERGO    C216842   7.025   4.310   8.623 -0.0699 -0.0784 -0.0611
 1179ERGO   ROH16843   3.520   7.931   6.288  0.0043 -0.0250 -0.1239
 1179ERGO    R116844   3.517   7.918   6.571  0.0268 -0.2047 -0.1310
 1179ERGO    R216845   3.298   7.992   6.721  0.1262 -0.0578 -0.0583
 1179ERGO    R316846   3.326   7.743   6.826 -0.1356 -0.1603 -0.2203
 1179ERGO    R416847   3.124   7.873   6.995  0.0631 -0.0196 -0.0811
 1179ERGO    R516848   3.308   7.776   7.063 -0.0264 -0.2805 -0.1924
 1179ERGO    C116849   3.050   7.569   7.253 -0.2194 -0.0934 -0.2463
 1179ERGO    C216850   2.889   7.595   7.564  0.0131  0.2716 -0.4587
 1180ERGO   ROH16851   1.460   1.857   9.711 -0.0377  0.3615 -0.0277
 1180ERGO    R116852   1.495   1.653   9.518  0.0712  0.2801  0.0763
 1180ERGO    R216853   1.312   1.605   9.316  0.0533  0.0236  0.1483
 1180ERGO    R316854   1.530   1.634   9.156 -0.0103  0.1069  0.0765
 1180ERGO    R416855   1.324   1.521   8.981 -0.0062 -0.0303  0.1598
 1180ERGO    R516856   1.524   1.443   9.013  0.0441  0.0785  0.1129
 1180ERGO    C116857   1.535   1.500   8.636 -0.1006  0.0164  0.0991
 1180ERGO    C216858   1.568   1.308   8.306 -0.2481 -0.0805  0.3648
 1181ERGO   ROH16859   7.008  10.403  10.297  0.0880 -0.0992  0.0497
 1181ERGO    R116860   7.017  10.526  10.043  0.1263 -0.0086  0.0943
 1181ERGO    R216861   7.187  10.442   9.842  0.0142 -0.0683  0.0224
 1181ERGO    R316862   6.957  10.426   9.698 -0.0341  0.1683  0.0692
 1181ERGO    R416863   7.171  10.438   9.497 -0.0145 -0.5586  0.0218
 1181ERGO    R516864   6.996  10.568   9.509  0.2382 -0.1863 -0.1539
 1181ERGO    C116865   6.946  10.421   9.160 -0.0765 -0.6218  0.0654
 1181ERGO    C216866   6.920  10.377   8.850  0.0387  0.0442 -0.0900
 1182ERGO   ROH16867  15.337  15.088   6.209  0.0078 -0.3730  0.0386
 1182ERGO    R116868  15.481  15.100   6.453  0.0559 -0.4120  0.0125
 1182ERGO    R216869  15.415  15.276   6.655  0.3334 -0.1722 -0.0984
 1182ERGO    R316870  15.406  15.050   6.806  0.0209 -0.0622  0.0581
 1182ERGO    R416871  15.526  15.251   6.981  0.2572 -0.0933 -0.0660
 1182ERGO    R516872  15.609  15.056   6.933  0.0129 -0.2362  0.0798
 1182ERGO    C116873  15.583  15.025   7.313 -0.0804  0.0559  0.0998
 1182ERGO    C216874  15.483  14.952   7.580  0.1554  0.4571  0.0670
 1183ERGO   ROH16875   0.919   5.249   5.408  0.1539  0.1625 -0.0603
 1183ERGO    R116876   0.856   5.213   5.682  0.0388  0.3736 -0.0587
 1183ERGO    R216877   0.957   5.004   5.832 -0.3755  0.2351  0.0259
 1183ERGO    R316878   1.039   5.204   5.996 -0.0286  0.1406 -0.0212
 1183ERGO    R416879   1.085   4.959   6.150 -0.5251  0.0732  0.0658
 1183ERGO    R516880   0.972   5.133   6.215 -0.2189  0.3220 -0.0098
 1183ERGO    C116881   1.237   5.120   6.489 -0.2866 -0.1097  0.0448
 1183ERGO    C216882   1.426   5.176   6.761  0.0595 -0.0460  0.0589
 1184ERGO   ROH16883   2.226   8.228   9.507 -0.0303 -0.0587 -0.0944
 1184ERGO    R116884   2.200   8.158   9.233 -0.1650 -0.0190 -0.0914
 1184ERGO    R216885   2.075   8.322   9.049 -0.0321  0.1221 -0.0519
 1184ERGO    R316886   2.309   8.296   8.914 -0.0901 -0.1201 -0.1111
 1184ERGO    R416887   2.110   8.358   8.708 -0.0312  0.4406 -0.0224
 1184ERGO    R516888   2.247   8.188   8.709 -0.3065  0.2014 -0.2255
 1184ERGO    C116889   2.350   8.353   8.381 -0.0850  0.3987 -0.0609
 1184ERGO    C216890   2.391   8.258   8.092  0.0168  0.0712 -0.2071
 1185ERGO   ROH16891   3.498   0.726   6.394 -0.0940  0.0749 -0.0407
 1185ERGO    R116892   3.432   0.936   6.572  0.0154  0.0136  0.0743
 1185ERGO    R216893   3.381   0.893   6.841  0.1736 -0.0802  0.0905
 1185ERGO    R316894   3.575   1.081   6.874  0.1969 -0.0965  0.0434
 1185ERGO    R416895   3.386   1.130   7.092  0.2089 -0.0338  0.0455
 1185ERGO    R516896   3.456   1.276   6.947  0.2194 -0.0690  0.0117
 1185ERGO    C116897   3.570   1.444   7.270  0.2512 -0.0220 -0.0249
 1185ERGO    C216898   3.643   1.574   7.547  0.0540 -0.0099  0.1806
 1186ERGO   ROH16899  13.345   8.828  10.053  0.1859  0.1890 -0.0881
 1186ERGO    R116900  13.174   8.883   9.835  0.0287  0.0566 -0.0010
 1186ERGO    R216901  13.215   9.097   9.664 -0.2105  0.0756 -0.0366
 1186ERGO    R316902  13.206   8.904   9.473 -0.1793  0.0567 -0.0214
 1186ERGO    R416903  13.266   9.150   9.326  0.0541  0.0140 -0.0089
 1186ERGO    R516904  13.104   9.011   9.285  0.0060  0.0927 -0.1064
 1186ERGO    C116905  13.287   9.000   8.950  0.2376 -0.0398  0.0213
 1186ERGO    C216906  13.148   9.034   8.580  0.0710  0.3418  0.1163
 1187ERGO   ROH16907  13.017   8.696   6.401 -0.0989 -0.0831 -0.0260
 1187ERGO    R116908  13.169   8.631   6.630 -0.1236 -0.3309 -0.0797
 1187ERGO    R216909  13.146   8.769   6.869  0.2810 -0.1979 -0.1243
 1187ERGO    R316910  13.101   8.520   6.970 -0.1930 -0.0770 -0.0044
 1187ERGO    R416911  13.164   8.685   7.204  0.6110 -0.1336 -0.1217
 1187ERGO    R516912  13.261   8.498   7.147  0.0627 -0.4193 -0.2480
 1187ERGO    C116913  13.134   8.404   7.494  0.3581  0.0172 -0.0077
 1187ERGO    C216914  13.194   8.307   7.767  0.2024 -0.0721 -0.1549
 1188ERGO   ROH16915   0.546   3.664   9.194 -0.1182  0.0883 -0.1640
 1188ERGO    R116916   0.453   3.685   8.927  0.1181  0.1934 -0.2411
 1188ERGO    R216917   0.587   3.830   8.734  0.4884 -0.0269 -0.1615
 1188ERGO    R316918   0.576   3.595   8.597  0.2464 -0.0333 -0.1327
 1188ERGO    R416919   0.524   3.800   8.395 -0.0092 -0.0461 -0.0736
 1188ERGO    R516920   0.400   3.627   8.438  0.0211 -0.0171  0.1175
 1188ERGO    C116921   0.476   3.563   8.070 -0.5262 -0.0633  0.0047
 1188ERGO    C216922   0.461   3.776   7.763 -0.3645  0.2597  0.0818
 1189ERGO   ROH16923   8.896   9.532   6.688  0.4267  0.2107  0.1092
 1189ERGO    R116924   9.048   9.572   6.924  0.2058  0.3179  0.2371
 1189ERGO    R216925   8.962   9.735   7.130 -0.2312  0.0191  0.3115
 1189ERGO    R316926   9.003   9.512   7.280  0.0771 -0.0274  0.1652
 1189ERGO    R416927   9.032   9.734   7.469 -0.0425 -0.1156  0.2739
 1189ERGO    R516928   9.175   9.574   7.434  0.0978  0.0507  0.1046
 1189ERGO    C116929   9.110   9.524   7.807  0.3567 -0.2378  0.1147
 1189ERGO    C216930   9.011   9.653   8.037  0.1149 -0.0883  0.0202
 1190ERGO   ROH16931   2.883  10.635   6.343  0.0691 -0.0244 -0.1693
 1190ERGO    R116932   3.001  10.715   6.587  0.0147  0.1338 -0.1915
 1190ERGO    R216933   2.855  10.821   6.796 -0.1013 -0.1290 -0.1253
 1190ERGO    R316934   2.974  10.622   6.938  0.2642  0.0329 -0.1986
 1190ERGO    R416935   2.917  10.832   7.136 -0.1163 -0.1413 -0.1242
 1190ERGO    R516936   3.110  10.737   7.098  0.0570  0.2229 -0.1597
 1190ERGO    C116937   3.066  10.651   7.467  0.2181  0.0035 -0.1925
 1190ERGO    C216938   3.161  10.701   7.864  0.0153 -0.0637  0.0015
 1191ERGO   ROH16939   7.741  13.704   6.723  0.0909  0.0831 -0.1124
 1191ERGO    R116940   7.777  13.546   6.955 -0.1276  0.1295 -0.0443
 1191ERGO    R216941   8.024  13.450   7.032 -0.2559 -0.1801 -0.0059
 1191ERGO    R316942   7.963  13.573   7.267 -0.0880  0.0081 -0.0564
 1191ERGO    R416943   8.182  13.389   7.333 -0.2734 -0.1994 -0.0004
 1191ERGO    R516944   7.987  13.400   7.432 -0.2491  0.0615  0.0269
 1191ERGO    C116945   8.216  13.468   7.729 -0.1257 -0.0341 -0.0446
 1191ERGO    C216946   8.306  13.561   7.918 -0.1668  0.2386 -0.2625
 1192ERGO   ROH16947   8.791   7.121   6.465  0.2117  0.0362  0.1531
 1192ERGO    R116948   8.811   7.051   6.739  0.1295 -0.1943  0.1041
 1192ERGO    R216949   8.739   7.225   6.942  0.5140 -0.1787  0.2435
 1192ERGO    R316950   8.582   7.017   7.020  0.1065  0.0726  0.1185
 1192ERGO    R416951   8.612   7.183   7.261  0.4658 -0.1533  0.2266
 1192ERGO    R516952   8.654   6.969   7.244  0.0391 -0.2289  0.0757
 1192ERGO    C116953   8.391   6.964   7.520  0.0552  0.0974  0.0992
 1192ERGO    C216954   8.299   7.025   7.926  0.0597 -0.1176 -0.0055
 1193ERGO   ROH16955   5.042   5.831   6.136 -0.0403 -0.0419 -0.1348
 1193ERGO    R116956   5.120   5.698   6.373 -0.0342  0.0299 -0.0969
 1193ERGO    R216957   4.967   5.702   6.603 -0.0896 -0.0063 -0.1355
 1193ERGO    R316958   4.987   5.432   6.583  0.0411 -0.0015 -0.0876
 1193ERGO    R416959   4.944   5.482   6.869 -0.1792  0.0210 -0.1199
 1193ERGO    R516960   5.106   5.366   6.781 -0.0653  0.0775  0.0059
 1193ERGO    C116961   4.949   5.100   7.005 -0.1086  0.0415 -0.0660
 1193ERGO    C216962   4.619   4.863   7.036 -0.0417 -0.0214  0.0853
 1194ERGO   ROH16963   0.140   1.689   6.023  0.0998  0.1989  0.0245
 1194ERGO    R116964   0.277   1.625   6.262  0.0460  0.1784  0.0502
 1194ERGO    R216965   0.197   1.719   6.510 -0.0657  0.0821  0.0538
 1194ERGO    R316966   0.198   1.455   6.575  0.0031  0.0631 -0.0231
 1194ERGO    R416967   0.196   1.596   6.832 -0.0031 -0.0155  0.0167
 1194ERGO    R516968   0.338   1.442   6.769  0.0252  0.0373 -0.0425
 1194ERGO    C116969   0.196   1.276   7.081  0.0980 -0.0901 -0.0770
 1194ERGO    C216970   0.174   1.241   7.469 -0.1442 -0.1212  0.3594
 1195ERGO   ROH16971  18.195  15.676  10.348  0.1298  0.0942  0.1568
 1195ERGO    R116972  18.331  15.676  10.100  0.0519  0.0564  0.1151
 1195ERGO    R216973  18.414  15.443   9.975 -0.0599  0.0361  0.0881
 1195ERGO    R316974  18.272  15.544   9.766 -0.0912  0.0810  0.1289
 1195ERGO    R416975  18.481  15.381   9.642 -0.1108  0.0963  0.0653
 1195ERGO    R516976  18.436  15.590   9.599 -0.1124  0.1091  0.1120
 1195ERGO    C116977  18.386  15.439   9.252 -0.1698  0.1734  0.0903
 1195ERGO    C216978  18.445  15.529   8.954  0.0108 -0.4283 -0.2936
 1196ERGO   ROH16979   4.745   7.427   6.447  0.3863  0.1625  0.1091
 1196ERGO    R116980   4.709   7.195   6.605 -0.0274  0.0536 -0.1321
 1196ERGO    R216981   4.742   6.940   6.504  0.1851  0.1215 -0.2346
 1196ERGO    R316982   4.913   6.914   6.714 -0.3169 -0.0453  0.1751
 1196ERGO    R416983   4.902   6.647   6.594  0.4656  0.1826 -0.5153
 1196ERGO    R516984   4.865   6.697   6.803 -0.1878 -0.3607 -0.4602
 1196ERGO    C116985   5.155   6.452   6.843  0.1576  0.0616 -0.2940
 1196ERGO    C216986   5.410   6.370   6.972 -0.1379 -0.1401 -0.1490
 1197ERGO   ROH16987   5.155   9.678   6.660 -0.1309 -0.1713 -0.0208
 1197ERGO    R116988   5.087   9.671   6.934 -0.0973 -0.1051 -0.0103
 1197ERGO    R216989   4.989   9.892   7.069 -0.1038 -0.0792 -0.0570
 1197ERGO    R316990   4.787   9.722   7.133 -0.0787 -0.0829  0.0122
 1197ERGO    R416991   4.801   9.909   7.359  0.1161 -0.1937  0.0954
 1197ERGO    R516992   4.807   9.692   7.370  0.0962 -0.2011 -0.0161
 1197ERGO    C116993   4.501   9.760   7.587  0.2677 -0.2640  0.2491
 1197ERGO    C216994   4.170   9.764   7.742 -0.0712 -0.0909 -0.0985
 1198ERGO   ROH16995   4.421  10.600   6.657  0.1608  0.1438 -0.0421
 1198ERGO    R116996   4.516  10.725   6.892  0.1759  0.0515  0.0020
 1198ERGO    R216997   4.455  10.986   6.958  0.2576  0.0593  0.0620
 1198ERGO    R316998   4.370  10.874   7.190  0.1897  0.0259  0.0207
 1198ERGO    R416999   4.436  11.151   7.261  0.1076  0.0286  0.0697
 1198ERGO    R517000   4.511  10.971   7.358  0.1039  0.0381  0.0835
 1198ERGO    C117001   4.346  11.141   7.656 -0.0434 -0.0208  0.0353
 1198ERGO    C217002   4.241  11.302   7.904 -0.1253 -0.0393  0.0804
 1199ERGO   ROH17003  16.794   0.083   6.547 -0.2781  0.0026  0.0783
 1199ERGO    R117004  16.965   0.068   6.772 -0.1472  0.0310 -0.0169
 1199ERGO    R217005  17.057   0.292   6.905 -0.1767  0.0472 -0.0158
 1199ERGO    R317006  16.951   0.168   7.122 -0.0055 -0.0514  0.0119
 1199ERGO    R417007  17.083   0.406   7.230 -0.0113 -0.0520  0.0060
 1199ERGO    R517008  17.114   0.200   7.294  0.0884 -0.0603 -0.0778
 1199ERGO    C117009  16.999   0.355   7.623  0.2456 -0.2023  0.0446
 1199ERGO    C217010  16.761   0.411   7.958 -0.0544 -0.2194 -0.0094
 1200ERGO   ROH17011  18.023  17.383   6.718 -0.3255  0.0171 -0.0701
 1200ERGO    R117012  18.055  17.378   6.999 -0.1522  0.0360 -0.0881
 1200ERGO    R217013  17.888  17.517   7.170 -0.0613  0.0315  0.0078
 1200ERGO    R317014  17.857  17.273   7.286  0.0318  0.0343  0.0393
 1200ERGO    R417015  17.733  17.460   7.474 -0.1528 -0.0056 -0.0457
 1200ERGO    R517016  17.887  17.313   7.520 -0.0878  0.0923  0.0438
 1200ERGO    C117017  17.613  17.198   7.759 -0.1187 -0.0245 -0.0473
 1200ERGO    C217018  17.337  16.875   7.987 -0.3232  0.0259  0.0493
 1201ERGO   ROH17019   2.703   6.025   5.875 -0.1900  0.0908  0.0521
 1201ERGO    R117020   2.639   6.076   6.146 -0.1215 -0.0023  0.0864
 1201ERGO    R217021   2.662   5.884   6.343  0.1735  0.0012  0.0596
 1201ERGO    R317022   2.816   6.073   6.464  0.0298  0.1549  0.0053
 1201ERGO    R417023   2.623   5.991   6.670  0.1524 -0.0014  0.0581
 1201ERGO    R517024   2.662   6.195   6.602 -0.0497  0.0291  0.0286
 1201ERGO    C117025   2.744   6.231   6.973  0.0052  0.1415  0.0062
 1201ERGO    C217026   2.956   6.215   7.250  0.0968 -0.0661  0.1902
 1202ERGO   ROH17027  12.041   4.495   9.932 -0.0130  0.0739 -0.0466
 1202ERGO    R117028  12.047   4.355   9.686 -0.0558  0.0265 -0.0228
 1202ERGO    R217029  11.854   4.389   9.489 -0.0555  0.0420 -0.0307
 1202ERGO    R317030  12.070   4.442   9.333 -0.0418 -0.0396 -0.0362
 1202ERGO    R417031  11.861   4.362   9.145 -0.0476 -0.0170 -0.0243
 1202ERGO    R517032  12.061   4.277   9.160 -0.0750 -0.0611 -0.0071
 1202ERGO    C117033  12.068   4.394   8.798 -0.0302 -0.1280 -0.0259
 1202ERGO    C217034  11.984   4.328   8.561 -0.0635 -0.1148  0.0153
 1203ERGO   ROH17035   2.500   0.598  10.084 -0.0020  0.1041  0.0331
 1203ERGO    R117036   2.491   0.445   9.846  0.0447 -0.0400  0.1226
 1203ERGO    R217037   2.274   0.446   9.675  0.0458 -0.2012  0.1151
 1203ERGO    R317038   2.461   0.512   9.489  0.0325 -0.2580  0.0821
 1203ERGO    R417039   2.246   0.384   9.337 -0.0948 -0.0627  0.1005
 1203ERGO    R517040   2.457   0.329   9.334 -0.1320 -0.1995  0.0180
 1203ERGO    C117041   2.405   0.409   8.965 -0.1892 -0.0354  0.0609
 1203ERGO    C217042   2.480   0.413   8.586 -0.0805 -0.0956  0.2406
 1204ERGO   ROH17043   0.841   8.436   6.082  0.0932 -0.0360  0.0182
 1204ERGO    R117044   0.814   8.533   6.347 -0.0722 -0.0144 -0.0055
 1204ERGO    R217045   1.024   8.535   6.527 -0.2006 -0.0602  0.1464
 1204ERGO    R317046   0.960   8.799   6.547 -0.1458 -0.0423  0.0866
 1204ERGO    R417047   1.048   8.723   6.816 -0.1109  0.0107  0.0932
 1204ERGO    R517048   0.860   8.819   6.764 -0.1029  0.0335  0.1006
 1204ERGO    C117049   1.003   9.079   7.004 -0.0072  0.0688  0.0062
 1204ERGO    C217050   1.063   9.232   7.284 -0.2170 -0.0840 -0.2966
 1205ERGO   ROH17051  14.303   4.389   6.160  0.1865 -0.3633 -0.0627
 1205ERGO    R117052  14.112   4.474   6.351  0.3224 -0.0624 -0.0552
 1205ERGO    R217053  13.948   4.297   6.487  0.0576  0.1908 -0.0393
 1205ERGO    R317054  14.051   4.421   6.706  0.2577  0.0453 -0.0498
 1205ERGO    R417055  13.893   4.200   6.813 -0.0984  0.2958 -0.0331
 1205ERGO    R517056  13.876   4.410   6.868  0.2346  0.3323 -0.0476
 1205ERGO    C117057  13.956   4.259   7.209 -0.0015  0.2203 -0.0393
 1205ERGO    C217058  14.209   4.340   7.469 -0.0360 -0.0479 -0.3299
 1206ERGO   ROH17059  15.645   7.058   5.945  0.1739  0.0025 -0.0612
 1206ERGO    R117060  15.793   7.122   6.178  0.2486  0.1199 -0.1405
 1206ERGO    R217061  15.826   6.945   6.387 -0.0100  0.3551  0.1077
 1206ERGO    R317062  16.090   6.996   6.346  0.0677 -0.0629  0.0468
 1206ERGO    R417063  16.076   6.887   6.619 -0.1132  0.4035  0.2330
 1206ERGO    R517064  16.169   7.075   6.558  0.1468  0.1876 -0.0728
 1206ERGO    C117065  16.470   6.900   6.715 -0.1005  0.0392  0.2488
 1206ERGO    C217066  16.699   6.801   6.820  0.1390  0.1427 -0.2220
 1207ERGO   ROH17067   9.761   3.756   6.135  0.2924 -0.0702 -0.1454
 1207ERGO    R117068   9.702   3.665   6.396  0.0788  0.0223 -0.1588
 1207ERGO    R217069   9.827   3.446   6.510 -0.0734  0.0050 -0.0077
 1207ERGO    R317070   9.883   3.623   6.709 -0.1495  0.0453 -0.0231
 1207ERGO    R417071   9.797   3.379   6.848  0.1125 -0.0242  0.0033
 1207ERGO    R517072   9.716   3.580   6.875 -0.0462 -0.0981  0.0391
 1207ERGO    C117073   9.832   3.506   7.231  0.1496 -0.0034 -0.0047
 1207ERGO    C217074   9.792   3.530   7.571  0.3067 -0.3473  0.0645
 1208ERGO   ROH17075   0.398   4.308   5.827  0.0880 -0.0246  0.1370
 1208ERGO    R117076   0.262   4.256   6.070  0.0127  0.1888  0.1448
 1208ERGO    R217077   0.385   4.134   6.286 -0.1929 -0.1150  0.1040
 1208ERGO    R317078   0.297   4.354   6.419  0.2669  0.0433  0.1611
 1208ERGO    R417079   0.300   4.141   6.621 -0.4608 -0.0996  0.0369
 1208ERGO    R517080   0.132   4.269   6.570 -0.0898  0.3794 -0.0311
 1208ERGO    C117081   0.168   4.352   6.941 -0.1852  0.0580  0.0513
 1208ERGO    C217082   0.356   4.518   7.195  0.1226 -0.0776 -0.0042
 1209ERGO   ROH17083  17.981   8.515   5.906  0.1272  0.0741 -0.1357
 1209ERGO    R117084  18.198   8.689   5.958  0.0751  0.1853 -0.2784
 1209ERGO    R217085  18.168   8.963   5.978 -0.1136  0.1509  0.0713
 1209ERGO    R317086  18.290   8.926   6.218  0.2817 -0.0344 -0.1498
 1209ERGO    R417087  18.314   9.214   6.164 -0.3523  0.1143  0.3138
 1209ERGO    R517088  18.477   9.077   6.212 -0.0143  0.3396 -0.1450
 1209ERGO    C117089  18.515   9.326   6.498 -0.1202 -0.0809  0.2475
 1209ERGO    C217090  18.611   9.432   6.722 -0.2431  0.1600 -0.2940
 1210ERGO   ROH17091  16.054  13.856   6.341 -0.0284  0.0934  0.1071
 1210ERGO    R117092  16.032  13.798   6.617 -0.0945  0.0605  0.0957
 1210ERGO    R217093  16.244  13.705   6.767 -0.1431 -0.0145  0.1248
 1210ERGO    R317094  16.184  13.917   6.925 -0.1205 -0.0192  0.1386
 1210ERGO    R417095  16.296  13.718   7.108  0.0948  0.0602  0.0870
 1210ERGO    R517096  16.104  13.819   7.129  0.0678 -0.0211  0.2102
 1210ERGO    C117097  16.270  13.925   7.456  0.2545  0.0993  0.0779
 1210ERGO    C217098  16.304  13.815   7.699 -0.1319  0.0830  0.2997
 1211ERGO   ROH17099  15.424   4.940   9.543  0.0007 -0.1649 -0.1489
 1211ERGO    R117100  15.299   4.891   9.293  0.0190 -0.0379 -0.1843
 1211ERGO    R217101  15.232   5.094   9.118  0.1894  0.0396 -0.1636
 1211ERGO    R317102  15.379   4.946   8.943  0.1295 -0.0270 -0.1577
 1211ERGO    R417103  15.225   5.130   8.774  0.1218 -0.0473 -0.1716
 1211ERGO    R517104  15.233   4.913   8.756  0.0851 -0.0528 -0.1181
 1211ERGO    C117105  15.358   5.013   8.410  0.0263 -0.1604 -0.1707
 1211ERGO    C217106  15.362   4.903   8.070 -0.0997  0.2234 -0.1087
 1212ERGO   ROH17107  12.556   8.509   6.328  0.2421 -0.0802 -0.0610
 1212ERGO    R117108  12.592   8.673   6.556  0.0749  0.0109 -0.0966
 1212ERGO    R217109  12.436   8.650   6.783 -0.0234  0.0256 -0.1521
 1212ERGO    R317110  12.677   8.625   6.907 -0.0662  0.1546 -0.0438
 1212ERGO    R417111  12.526   8.813   7.074 -0.2736 -0.0307 -0.0417
 1212ERGO    R517112  12.725   8.845   6.989 -0.2613  0.1489  0.0719
 1212ERGO    C117113  12.804   8.884   7.360 -0.4596  0.0576  0.1240
 1212ERGO    C217114  12.903   8.862   7.751  0.2704  0.0973  0.0519
 1213ERGO   ROH17115  13.144  14.552   6.723 -0.0282 -0.0623  0.0214
 1213ERGO    R117116  13.170  14.416   6.970 -0.0065 -0.0795  0.0100
 1213ERGO    R217117  12.987  14.228   7.056  0.0034 -0.0897  0.0112
 1213ERGO    R317118  13.208  14.071   7.079  0.0084 -0.0866 -0.0177
 1213ERGO    R417119  13.032  13.984   7.297  0.0976  0.0097  0.0947
 1213ERGO    R517120  13.240  14.047   7.316  0.1080  0.0114 -0.0206
 1213ERGO    C117121  13.266  13.695   7.459  0.1571  0.0705  0.1162
 1213ERGO    C217122  13.524  13.487   7.583  0.0729 -0.0308 -0.2126
 1214ERGO   ROH17123  13.935   3.783   9.598 -0.1546  0.1788 -0.0634
 1214ERGO    R117124  13.805   3.749   9.349 -0.1345  0.2680 -0.0876
 1214ERGO    R217125  13.809   3.942   9.151  0.1324  0.2228 -0.1366
 1214ERGO    R317126  13.903   3.737   8.999 -0.0576  0.0763 -0.0590
 1214ERGO    R417127  13.830   3.946   8.806  0.2482  0.1076 -0.1314
 1214ERGO    R517128  13.762   3.739   8.804  0.0088  0.1887 -0.1014
 1214ERGO    C117129  13.929   3.757   8.462  0.1374 -0.0969 -0.0556
 1214ERGO    C217130  14.003   3.726   8.175  0.3307  0.0283 -0.3039
 1215ERGO   ROH17131   1.858  12.576   6.413  0.0056  0.0902  0.0063
 1215ERGO    R117132   1.876  12.429   6.654 -0.2398  0.0130 -0.0202
 1215ERGO    R217133   2.059  12.490   6.852 -0.0832 -0.3702 -0.0434
 1215ERGO    R317134   1.837  12.497   7.009 -0.0487  0.0355 -0.0010
 1215ERGO    R417135   2.063  12.489   7.197 -0.0093 -0.3268 -0.0434
 1215ERGO    R517136   1.891  12.354   7.194 -0.2528 -0.0390  0.0086
 1215ERGO    C117137   1.857  12.495   7.547  0.0662  0.0792 -0.0036
 1215ERGO    C217138   1.990  12.557   7.882 -0.2210 -0.0613  0.1909
 1216ERGO   ROH17139  10.811   1.561   6.120 -0.0828 -0.2760 -0.0214
 1216ERGO    R117140  10.945   1.515   6.366 -0.0889 -0.2227 -0.0073
 1216ERGO    R217141  10.909   1.677   6.587 -0.1095 -0.1842 -0.0347
 1216ERGO    R317142  10.849   1.442   6.709 -0.0993 -0.1677  0.0006
 1216ERGO    R417143  11.029   1.578   6.895  0.0523 -0.2258 -0.1106
 1216ERGO    R517144  11.052   1.377   6.816 -0.0542 -0.2283 -0.1264
 1216ERGO    C117145  11.043   1.300   7.189  0.1560 -0.2345 -0.1218
 1216ERGO    C217146  10.792   1.326   7.525 -0.3508 -0.1297 -0.2911
 1217ERGO   ROH17147  13.460  10.805   6.571  0.1647  0.0439 -0.1485
 1217ERGO    R117148  13.583  10.864   6.819 -0.1002  0.3250 -0.0795
 1217ERGO    R217149  13.448  10.985   7.028 -0.5625 -0.1626 -0.0785
 1217ERGO    R317150  13.536  10.769   7.167  0.0523  0.0295 -0.1355
 1217ERGO    R417151  13.598  10.998   7.339 -0.4286  0.1811 -0.1512
 1217ERGO    R517152  13.737  10.844   7.273 -0.0679  0.5241 -0.2309
 1217ERGO    C117153  13.769  10.803   7.650  0.2265  0.5616 -0.2470
 1217ERGO    C217154  13.941  10.485   7.813  0.0299 -0.1139 -0.1392
 1218ERGO   ROH17155   3.231   2.651   9.864  0.1612  0.1065 -0.0408
 1218ERGO    R117156   3.404   2.611   9.644  0.0761  0.1148 -0.1091
 1218ERGO    R217157   3.370   2.406   9.462  0.0642  0.0631 -0.0438
 1218ERGO    R317158   3.374   2.608   9.281 -0.0831  0.0210 -0.0972
 1218ERGO    R417159   3.362   2.364   9.119  0.4596 -0.0623 -0.0433
 1218ERGO    R517160   3.509   2.525   9.102  0.2302  0.1714  0.0545
 1218ERGO    C117161   3.362   2.530   8.750  0.5515 -0.1748 -0.0932
 1218ERGO    C217162   3.241   2.456   8.453  0.0009  0.2468 -0.2999
 1219ERGO   ROH17163  16.361   7.490   9.382 -0.0757 -0.0084  0.0791
 1219ERGO    R117164  16.254   7.598   9.143 -0.1394 -0.0907  0.0703
 1219ERGO    R217165  16.412   7.722   8.952 -0.2234  0.0664  0.1037
 1219ERGO    R317166  16.296   7.541   8.786 -0.0331 -0.0308  0.0723
 1219ERGO    R417167  16.403   7.747   8.607 -0.2221  0.1017  0.1057
 1219ERGO    R517168  16.198   7.674   8.612 -0.1532 -0.1034  0.0817
 1219ERGO    C117169  16.288   7.593   8.251 -0.0429  0.0309  0.0775
 1219ERGO    C217170  16.345   7.623   7.866 -0.0588 -0.1681 -0.1931
 1220ERGO   ROH17171   3.740  13.495   6.550 -0.1699 -0.3678 -0.1694
 1220ERGO    R117172   3.478  13.511   6.656 -0.1180 -0.2720 -0.0599
 1220ERGO    R217173   3.296  13.304   6.636 -0.2006 -0.1932  0.0023
 1220ERGO    R317174   3.283  13.332   6.906 -0.0909 -0.2078  0.0117
 1220ERGO    R417175   3.067  13.146   6.841 -0.1101 -0.2316  0.0773
 1220ERGO    R517176   3.049  13.330   6.956 -0.0799 -0.2306  0.0995
 1220ERGO    C117177   2.922  13.080   7.214  0.0456 -0.2676  0.1300
 1220ERGO    C217178   2.951  13.009   7.615  0.3909 -0.0739  0.0014
 1221ERGO   ROH17179  15.873   7.471   5.967  0.0019  0.1263  0.1239
 1221ERGO    R117180  15.633   7.525   6.108 -0.0895  0.0661 -0.0090
 1221ERGO    R217181  15.401   7.380   6.067  0.0111 -0.0839 -0.0362
 1221ERGO    R317182  15.414   7.345   6.336 -0.0898  0.0638 -0.0099
 1221ERGO    R417183  15.147   7.250   6.261  0.1015 -0.4144 -0.1320
 1221ERGO    R517184  15.194   7.399   6.413 -0.2326 -0.2592 -0.1688
 1221ERGO    C117185  15.010   7.141   6.626  0.0595 -0.4683 -0.1632
 1221ERGO    C217186  15.031   6.921   6.868  0.0556 -0.2590  0.0873
 1222ERGO   ROH17187  11.901   8.559  10.018 -0.0095  0.1994  0.0587
 1222ERGO    R117188  11.791   8.670   9.782 -0.0442  0.0469  0.0019
 1222ERGO    R217189  11.923   8.862   9.632 -0.1295  0.0566 -0.0618
 1222ERGO    R317190  11.883   8.685   9.430 -0.0158 -0.0473  0.0049
 1222ERGO    R417191  11.935   8.940   9.296 -0.0683 -0.0866 -0.0933
 1222ERGO    R517192  11.763   8.810   9.264 -0.0161 -0.1599 -0.0816
 1222ERGO    C117193  11.904   8.819   8.910  0.0739 -0.2675 -0.0491
 1222ERGO    C217194  11.903   8.900   8.570 -0.0403 -0.0475  0.1503
 1223ERGO   ROH17195   6.361  15.939   6.739  0.0519  0.0110 -0.0733
 1223ERGO    R117196   6.304  16.073   6.982  0.0096 -0.0540 -0.0473
 1223ERGO    R217197   6.385  15.976   7.228  0.1430 -0.0161 -0.0762
 1223ERGO    R317198   6.495  16.223   7.252 -0.0371  0.0665 -0.0804
 1223ERGO    R417199   6.517  16.107   7.519  0.3276 -0.0374 -0.1489
 1223ERGO    R517200   6.428  16.298   7.469  0.1153 -0.0861  0.0233
 1223ERGO    C117201   6.698  16.414   7.711  0.2660  0.0278 -0.1952
 1223ERGO    C217202   6.901  16.591   7.948  0.0560  0.0313  0.0702
 1224ERGO   ROH17203  16.258   3.552   9.713 -0.2328 -0.1429  0.2776
 1224ERGO    R117204  16.130   3.421   9.497 -0.1219 -0.0073  0.1275
 1224ERGO    R217205  16.025   3.558   9.282  0.0660  0.1231  0.1157
 1224ERGO    R317206  16.184   3.390   9.139  0.1177  0.1440  0.1479
 1224ERGO    R417207  16.005   3.510   8.940  0.0154 -0.0271  0.1388
 1224ERGO    R517208  16.038   3.297   8.973  0.1283  0.0033  0.2173
 1224ERGO    C117209  16.142   3.324   8.607  0.0342 -0.0950  0.1824
 1224ERGO    C217210  16.151   3.424   8.222  0.0903  0.3611  0.0257
 1225ERGO   ROH17211   1.410   3.162   9.063  0.0643  0.0310 -0.1253
 1225ERGO    R117212   1.403   3.238   8.790  0.2594 -0.0434 -0.1534
 1225ERGO    R217213   1.532   3.094   8.593  0.2253 -0.2207 -0.0520
 1225ERGO    R317214   1.285   3.092   8.478  0.2734 -0.0335 -0.1627
 1225ERGO    R417215   1.453   2.930   8.299  0.1768 -0.3692  0.0436
 1225ERGO    R517216   1.329   3.101   8.243  0.3947 -0.2726 -0.1517
 1225ERGO    C117217   1.175   2.832   8.021  0.1938 -0.2800 -0.0047
 1225ERGO    C217218   1.093   2.599   7.688  0.0917  0.0809  0.3058
 1226ERGO   ROH17219  11.338   7.359   9.765  0.0424  0.2652  0.1228
 1226ERGO    R117220  11.224   7.426   9.514  0.0820  0.4037  0.1412
 1226ERGO    R217221  11.302   7.648   9.370  0.5103  0.1798  0.0141
 1226ERGO    R317222  11.342   7.466   9.172  0.0367 -0.0021  0.0721
 1226ERGO    R417223  11.289   7.718   9.031  0.4682  0.0551 -0.0108
 1226ERGO    R517224  11.186   7.528   9.001  0.0618  0.2390  0.1303
 1226ERGO    C117225  11.320   7.587   8.649 -0.0008 -0.1882  0.0292
 1226ERGO    C217226  11.282   7.634   8.295 -0.0785 -0.1666 -0.1211
 1227ERGO   ROH17227   7.538  12.666   6.726 -0.1824  0.0878  0.0324
 1227ERGO    R117228   7.365  12.633   6.947 -0.1332  0.2172  0.0930
 1227ERGO    R217229   7.386  12.419   7.120 -0.3685  0.0774 -0.0389
 1227ERGO    R317230   7.399  12.614   7.309  0.0147 -0.0432  0.0675
 1227ERGO    R417231   7.285  12.381   7.449 -0.6558  0.1584 -0.1152
 1227ERGO    R517232   7.200  12.582   7.440 -0.1494  0.3865 -0.0650
 1227ERGO    C117233   7.239  12.542   7.818 -0.4635  0.0923 -0.0597
 1227ERGO    C217234   7.398  12.603   8.074 -0.1760  0.2661  0.1311
 1228ERGO   ROH17235   1.156   9.134   9.631 -0.2883  0.0073  0.1224
 1228ERGO    R117236   1.284   9.079   9.384 -0.1780 -0.2368  0.2314
 1228ERGO    R217237   1.184   8.897   9.202 -0.4547  0.0525  0.0936
 1228ERGO    R317238   1.200   9.107   9.031  0.2279  0.0689  0.1497
 1228ERGO    R417239   1.259   8.872   8.866 -0.4537 -0.1114  0.1051
 1228ERGO    R517240   1.382   9.051   8.885  0.1100 -0.4682  0.1775
 1228ERGO    C117241   1.318   9.055   8.509  0.1877 -0.1916  0.1643
 1228ERGO    C217242   1.287   8.958   8.156  0.1979 -0.0472  0.1907
 1229ERGO   ROH17243   4.584  14.328   6.646 -0.0348 -0.1702 -0.0512
 1229ERGO    R117244   4.621  14.441   6.903  0.1503 -0.0811 -0.1138
 1229ERGO    R217245   4.510  14.332   7.131  0.0101  0.1941 -0.0386
 1229ERGO    R317246   4.767  14.337   7.219  0.0335 -0.1251 -0.0758
 1229ERGO    R417247   4.604  14.388   7.458  0.1442  0.1827 -0.0755
 1229ERGO    R517248   4.769  14.511   7.384  0.3006 -0.0701 -0.1395
 1229ERGO    C117249   4.901  14.427   7.732  0.2441 -0.1236 -0.1318
 1229ERGO    C217250   5.144  14.479   7.953  0.0354 -0.3322  0.0386
 1230ERGO   ROH17251  13.889  17.458   5.869 -0.0011 -0.1769 -0.0736
 1230ERGO    R117252  13.820  17.398   6.137  0.0851 -0.2433 -0.0658
 1230ERGO    R217253  13.986  17.253   6.305  0.2708 -0.0382 -0.0653
 1230ERGO    R317254  13.955  17.468   6.467  0.0226 -0.0594 -0.0788
 1230ERGO    R417255  13.993  17.243   6.650 -0.0281 -0.0431 -0.0564
 1230ERGO    R517256  13.829  17.386   6.653 -0.1004 -0.1248 -0.1922
 1230ERGO    C117257  13.969  17.440   7.004 -0.4352 -0.0655 -0.0638
 1230ERGO    C217258  14.110  17.447   7.352 -0.1570  0.1307  0.1727
 1231ERGO   ROH17259   2.429   0.414   6.575  0.0196 -0.0863 -0.0147
 1231ERGO    R117260   2.490   0.588   6.789  0.0196  0.1412 -0.1957
 1231ERGO    R217261   2.389   0.846   6.805 -0.4337 -0.0251 -0.1929
 1231ERGO    R317262   2.304   0.763   7.049  0.0735 -0.0638 -0.0173
 1231ERGO    R417263   2.331   1.053   7.075 -0.4707  0.0177 -0.2341
 1231ERGO    R517264   2.421   0.902   7.204  0.0188  0.2661 -0.2633
 1231ERGO    C117265   2.217   1.095   7.462 -0.0161  0.0063 -0.0931
 1231ERGO    C217266   2.105   1.407   7.567 -0.1364 -0.1070  0.1854
 1232ERGO   ROH17267   6.856  13.360   6.784  0.1754  0.2599  0.1391
 1232ERGO    R117268   6.956  13.410   7.044 -0.0146  0.2699  0.2121
 1232ERGO    R217269   6.804  13.530   7.241 -0.2411  0.0609  0.1731
 1232ERGO    R317270   6.872  13.309   7.383 -0.1073  0.0754  0.1318
 1232ERGO    R417271   6.731  13.480   7.575 -0.1636 -0.0271  0.1766
 1232ERGO    R517272   6.929  13.393   7.600 -0.1173  0.0706  0.1341
 1232ERGO    C117273   6.753  13.243   7.903  0.0072 -0.0649  0.1399
 1232ERGO    C217274   6.786  13.258   8.162 -0.0621 -0.2656  0.0317
 1233ERGO   ROH17275   0.246   6.269   9.404 -0.0759  0.0415 -0.1230
 1233ERGO    R117276   0.107   6.292   9.159 -0.0214 -0.0488 -0.1628
 1233ERGO    R217277   0.215   6.419   8.938 -0.0106 -0.0465 -0.1552
 1233ERGO    R317278   0.158   6.184   8.815  0.1055 -0.0872 -0.1329
 1233ERGO    R417279   0.238   6.364   8.598 -0.0296 -0.0510 -0.1558
 1233ERGO    R517280   0.053   6.249   8.609  0.0369 -0.1570 -0.1214
 1233ERGO    C117281   0.197   6.111   8.284  0.0683 -0.0919 -0.1352
 1233ERGO    C217282   0.217   6.254   7.917  0.0783 -0.0096  0.1511
 1234ERGO   ROH17283   6.060  10.863  10.433 -0.0554  0.0024 -0.0712
 1234ERGO    R117284   6.006  10.993  10.188 -0.0335  0.0290 -0.0619
 1234ERGO    R217285   6.199  11.032   9.994 -0.0289  0.0020 -0.0634
 1234ERGO    R317286   6.018  10.908   9.835 -0.0575  0.0489 -0.0676
 1234ERGO    R417287   6.199  11.044   9.649  0.0681 -0.1152 -0.0676
 1234ERGO    R517288   5.982  11.061   9.654  0.0755  0.0084 -0.1295
 1234ERGO    C117289   6.030  10.933   9.298  0.0978 -0.1395 -0.0741
 1234ERGO    C217290   6.141  11.065   9.050 -0.3357 -0.2937 -0.1842
 1235ERGO   ROH17291   3.791   1.069   9.917 -0.0256  0.2309 -0.0884
 1235ERGO    R117292   3.766   1.216   9.676  0.2783  0.1879 -0.1510
 1235ERGO    R217293   3.942   1.188   9.465  0.1578 -0.3657 -0.1945
 1235ERGO    R317294   3.715   1.140   9.324 -0.0202  0.1400 -0.0991
 1235ERGO    R417295   3.914   1.208   9.121  0.0471 -0.2908 -0.1814
 1235ERGO    R517296   3.719   1.301   9.148  0.2557  0.1428 -0.0916
 1235ERGO    C117297   3.684   1.176   8.789 -0.1844  0.2276 -0.0841
 1235ERGO    C217298   3.832   1.221   8.489  0.0600  0.3649  0.1812
 1236ERGO   ROH17299  11.429  10.800  10.135 -0.1138 -0.0723  0.0177
 1236ERGO    R117300  11.496  10.706   9.876 -0.0372  0.0354 -0.0034
 1236ERGO    R217301  11.314  10.576   9.714  0.0321  0.0253 -0.0809
 1236ERGO    R317302  11.384  10.769   9.536 -0.0019  0.1118  0.0000
 1236ERGO    R417303  11.356  10.526   9.375 -0.0181  0.1932 -0.1120
 1236ERGO    R517304  11.529  10.658   9.382 -0.0239  0.1934 -0.0764
 1236ERGO    C117305  11.447  10.678   9.010 -0.0793  0.3722 -0.0542
 1236ERGO    C217306  11.488  10.801   8.753 -0.0445 -0.1524 -0.2721
 1237ERGO   ROH17307   2.119   2.567   9.618 -0.1322  0.0689 -0.0591
 1237ERGO    R117308   2.185   2.651   9.356 -0.0722  0.0334 -0.0549
 1237ERGO    R217309   2.433   2.605   9.243 -0.0568 -0.0040  0.0006
 1237ERGO    R317310   2.285   2.492   9.045 -0.0271 -0.0098 -0.0196
 1237ERGO    R417311   2.533   2.578   8.914 -0.0677  0.1316 -0.0144
 1237ERGO    R517312   2.329   2.629   8.853 -0.0963  0.0659  0.0150
 1237ERGO    C117313   2.452   2.457   8.535 -0.0461  0.2051 -0.0423
 1237ERGO    C217314   2.390   2.441   8.223 -0.0868 -0.4726  0.0116
 1238ERGO   ROH17315  12.454   6.274   6.177 -0.1056  0.0835 -0.0964
 1238ERGO    R117316  12.337   6.451   6.365 -0.0916  0.1245 -0.1266
 1238ERGO    R217317  12.386   6.433   6.636 -0.2652  0.0279 -0.1017
 1238ERGO    R317318  12.456   6.695   6.608 -0.0620 -0.0133 -0.0008
 1238ERGO    R417319  12.416   6.658   6.897 -0.6624  0.0415 -0.0613
 1238ERGO    R517320  12.322   6.809   6.770 -0.3310  0.0802 -0.2773
 1238ERGO    C117321  12.499   7.034   7.022 -0.7029  0.0107  0.0570
 1238ERGO    C217322  12.801   7.127   7.288  0.3020  0.0091 -0.0143
 1239ERGO   ROH17323   7.393   7.705   6.456  0.2812  0.1681 -0.0046
 1239ERGO    R117324   7.472   7.759   6.722  0.1708 -0.0359  0.0708
 1239ERGO    R217325   7.349   7.950   6.878  0.2255 -0.0295  0.1018
 1239ERGO    R317326   7.319   7.743   7.052 -0.0279 -0.1023 -0.0225
 1239ERGO    R417327   7.271   7.984   7.213  0.3684 -0.1235  0.1460
 1239ERGO    R517328   7.413   7.824   7.257  0.1525 -0.3655  0.0061
 1239ERGO    C117329   7.198   7.810   7.572  0.2138 -0.2465  0.0550
 1239ERGO    C217330   6.974   7.709   7.900 -0.3614 -0.0450  0.1117
 1240ERGO   ROH17331  13.701  12.268   6.547  0.3057  0.0821 -0.2387
 1240ERGO    R117332  13.855  12.206   6.776  0.0853  0.1875 -0.0569
 1240ERGO    R217333  13.770  12.265   7.033 -0.2712  0.0996 -0.1425
 1240ERGO    R317334  13.815  12.000   7.074 -0.1088  0.1306 -0.1229
 1240ERGO    R417335  13.793  12.114   7.343 -0.2149  0.1204 -0.1375
 1240ERGO    R517336  13.958  11.993   7.266 -0.1323  0.2235 -0.1076
 1240ERGO    C117337  13.849  11.778   7.562 -0.0295  0.1615 -0.1163
 1240ERGO    C217338  13.883  11.703   7.811 -0.0822 -0.0944 -0.0147
 1241ERGO   ROH17339  15.865  10.022   9.984 -0.1034  0.1434  0.0557
 1241ERGO    R117340  15.971  10.097   9.733  0.0704 -0.1995  0.0225
 1241ERGO    R217341  16.022   9.914   9.532 -0.4072 -0.3995  0.0768
 1241ERGO    R317342  15.866  10.081   9.385 -0.0067 -0.0391  0.0362
 1241ERGO    R417343  16.021   9.930   9.187 -0.5307 -0.6688  0.0614
 1241ERGO    R517344  16.005  10.147   9.202  0.1134 -0.5863 -0.0929
 1241ERGO    C117345  15.873  10.095   8.848 -0.2269 -0.4871  0.0143
 1241ERGO    C217346  16.031  10.080   8.463  0.0957  0.0018  0.0412
 1242ERGO   ROH17347   4.456  12.550   6.796 -0.3645  0.0012 -0.0888
 1242ERGO    R117348   4.471  12.343   6.988 -0.2112  0.0204 -0.0796
 1242ERGO    R217349   4.698  12.295   7.139 -0.1255  0.0985 -0.1872
 1242ERGO    R317350   4.525  12.319   7.347 -0.0306  0.0620 -0.1028
 1242ERGO    R417351   4.717  12.115   7.433 -0.0663 -0.0526 -0.2818
 1242ERGO    R517352   4.500  12.096   7.430 -0.0771  0.0288 -0.2012
 1242ERGO    C117353   4.566  12.033   7.800  0.0574 -0.1749 -0.2577
 1242ERGO    C217354   4.752  11.967   8.152  0.4677 -0.1113  0.0553
 1243ERGO   ROH17355  17.405   3.941   5.748  0.0506 -0.1657  0.3409
 1243ERGO    R117356  17.428   4.150   5.937  0.0772 -0.1261  0.2946
 1243ERGO    R217357  17.403   4.107   6.209  0.1342 -0.0728  0.3098
 1243ERGO    R317358  17.646   4.230   6.217  0.1293 -0.0582  0.2345
 1243ERGO    R417359  17.556   4.222   6.497  0.1691  0.0364  0.2481
 1243ERGO    R517360  17.621   4.399   6.386  0.1456 -0.0005  0.1781
 1243ERGO    C117361  17.873   4.404   6.673  0.1848  0.1137  0.1416
 1243ERGO    C217362  18.083   4.232   6.964 -0.2576  0.0687  0.0221
 1244ERGO   ROH17363  16.084   5.546   8.987  0.0833  0.0932  0.1063
 1244ERGO    R117364  16.182   5.605   8.728  0.3425 -0.0874  0.1594
 1244ERGO    R217365  16.285   5.411   8.560 -0.2157 -0.3539  0.0998
 1244ERGO    R317366  16.101   5.509   8.386  0.1163  0.3182  0.0923
 1244ERGO    R417367  16.302   5.379   8.217 -0.3329 -0.4524  0.1028
 1244ERGO    R517368  16.230   5.584   8.199  0.4084 -0.1627  0.0834
 1244ERGO    C117369  16.138   5.452   7.853 -0.0896  0.1212  0.0974
 1244ERGO    C217370  16.148   5.317   7.529 -0.0648  0.3683 -0.1354
 1245ERGO   ROH17371   9.662  16.215   6.868 -0.1476 -0.1989 -0.0315
 1245ERGO    R117372   9.588  16.318   7.121 -0.0340 -0.0870 -0.0427
 1245ERGO    R217373   9.434  16.174   7.301 -0.2137  0.1108 -0.0353
 1245ERGO    R317374   9.641  16.226   7.469 -0.1546 -0.1218 -0.0327
 1245ERGO    R417375   9.413  16.173   7.646 -0.1961  0.0377 -0.0344
 1245ERGO    R517376   9.542  16.349   7.649 -0.0344 -0.0781  0.0056
 1245ERGO    C117377   9.595  16.221   8.005 -0.1305 -0.2231 -0.0314
 1245ERGO    C217378   9.781  16.173   8.287 -0.2078  0.1337 -0.3092
 1246ERGO   ROH17379   2.988  15.821   6.831  0.1369  0.2492  0.0126
 1246ERGO    R117380   3.114  15.762   7.078  0.1605  0.2371 -0.0021
 1246ERGO    R217381   3.335  15.901   7.169  0.0984  0.3111  0.0387
 1246ERGO    R317382   3.180  15.938   7.390  0.0784  0.1814  0.0471
 1246ERGO    R417383   3.456  15.979   7.483  0.0765  0.0431  0.1159
 1246ERGO    R517384   3.309  15.842   7.568  0.0312  0.0137 -0.0075
 1246ERGO    C117385   3.382  16.059   7.873  0.0449 -0.2347  0.1689
 1246ERGO    C217386   3.309  16.078   8.129 -0.2388  0.1963  0.0767
 1247ERGO   ROH17387  18.166   6.443   9.394 -0.2141 -0.0426 -0.0584
 1247ERGO    R117388  18.095   6.592   9.164 -0.2318  0.0012 -0.0260
 1247ERGO    R217389  18.271   6.636   8.955 -0.2368  0.0619 -0.0259
 1247ERGO    R317390  18.070   6.530   8.807 -0.2321  0.0716 -0.0362
 1247ERGO    R417391  18.266   6.620   8.610 -0.1863 -0.0348 -0.0216
 1247ERGO    R517392  18.055   6.672   8.615 -0.1671  0.0153 -0.0762
 1247ERGO    C117393  18.074   6.510   8.270 -0.1526 -0.0819 -0.0289
 1247ERGO    C217394  18.128   6.476   7.937  0.0130  0.0961 -0.0529
 1248ERGO   ROH17395   9.611   5.487   6.188  0.0863 -0.0209 -0.1347
 1248ERGO    R117396   9.520   5.398   6.441  0.1204 -0.0937 -0.1476
 1248ERGO    R217397   9.693   5.326   6.645  0.1507  0.1010 -0.1026
 1248ERGO    R317398   9.550   5.509   6.786 -0.0702 -0.0323 -0.1494
 1248ERGO    R417399   9.664   5.331   6.989  0.2355  0.2115 -0.0966
 1248ERGO    R517400   9.454   5.383   6.965  0.1510 -0.0914 -0.0678
 1248ERGO    C117401   9.512   5.505   7.322  0.0775  0.1507 -0.1370
 1248ERGO    C217402   9.466   5.514   7.612  0.1001  0.0387  0.0516
 1249ERGO   ROH17403   5.482  13.331   6.902 -0.0368 -0.0188  0.0651
 1249ERGO    R117404   5.419  13.351   7.177  0.0098  0.0954  0.0675
 1249ERGO    R217405   5.283  13.567   7.284 -0.2065  0.0159 -0.0456
 1249ERGO    R317406   5.117  13.374   7.379  0.0319 -0.1099  0.1263
 1249ERGO    R417407   5.088  13.595   7.568 -0.2801  0.0498 -0.0987
 1249ERGO    R517408   5.137  13.389   7.617 -0.0153  0.1575  0.1167
 1249ERGO    C117409   4.819  13.430   7.822 -0.0991 -0.0486  0.0317
 1249ERGO    C217410   4.469  13.536   7.906  0.0366  0.0666 -0.3433
 1250ERGO   ROH17411  13.019   4.540   6.047  0.0673  0.0249  0.1678
 1250ERGO    R117412  13.047   4.414   6.300  0.0604 -0.1362  0.0894
 1250ERGO    R217413  12.880   4.470   6.513  0.2030 -0.0922  0.1904
 1250ERGO    R317414  12.844   4.200   6.512 -0.0483 -0.0614  0.0619
 1250ERGO    R417415  12.757   4.287   6.779  0.2666 -0.1323  0.1928
 1250ERGO    R517416  12.904   4.132   6.734  0.0859 -0.2467 -0.0283
 1250ERGO    C117417  12.651   3.927   6.933  0.0678 -0.1268  0.0735
 1250ERGO    C217418  12.571   3.868   7.285  0.1173  0.1053 -0.2015
 1251ERGO   ROH17419   7.747   8.847   6.387 -0.0470 -0.2101  0.0252
 1251ERGO    R117420   7.810   8.701   6.621 -0.0420 -0.1571  0.0572
 1251ERGO    R217421   7.956   8.808   6.829 -0.0019 -0.1230  0.0121
 1251ERGO    R317422   7.742   8.731   6.977  0.0029 -0.0517  0.0569
 1251ERGO    R417423   7.935   8.832   7.173  0.1065 -0.1879  0.0240
 1251ERGO    R517424   7.838   8.638   7.176  0.0137 -0.1410  0.0093
 1251ERGO    C117425   7.722   8.774   7.513  0.1742 -0.1587  0.0729
 1251ERGO    C217426   7.457   8.723   7.751  0.0919  0.1740  0.1111
 1252ERGO   ROH17427   4.056   1.503   6.027  0.1547  0.1611 -0.1803
 1252ERGO    R117428   4.104   1.579   6.295  0.1276  0.0432 -0.1406
 1252ERGO    R217429   4.337   1.703   6.375  0.0825  0.0974 -0.0780
 1252ERGO    R317430   4.166   1.889   6.476  0.0067 -0.0232  0.0151
 1252ERGO    R417431   4.407   1.908   6.645  0.1607  0.2842 -0.2385
 1252ERGO    R517432   4.201   1.878   6.713  0.2598  0.1154 -0.0153
 1252ERGO    C117433   4.286   2.201   6.896  0.1352  0.2798 -0.2446
 1252ERGO    C217434   4.191   2.436   7.194 -0.0134 -0.0407  0.0244
 1253ERGO   ROH17435   1.276  15.848   6.659  0.0481 -0.2630 -0.0457
 1253ERGO    R117436   1.520  15.733   6.745  0.1319 -0.0759 -0.0288
 1253ERGO    R217437   1.730  15.885   6.842 -0.0366  0.0765  0.1076
 1253ERGO    R317438   1.711  15.717   7.055  0.0539 -0.0454  0.0206
 1253ERGO    R417439   1.986  15.818   7.064  0.0405 -0.0108 -0.0072
 1253ERGO    R517440   1.924  15.609   7.064  0.0722 -0.0197 -0.1046
 1253ERGO    C117441   2.117  15.621   7.393  0.1703 -0.1761 -0.1558
 1253ERGO    C217442   2.299  15.512   7.635  0.0393 -0.1097 -0.2179
 1254ERGO   ROH17443   8.178   5.955   6.257  0.1459 -0.1691  0.1588
 1254ERGO    R117444   8.232   6.079   6.505 -0.0152  0.0223  0.0984
 1254ERGO    R217445   8.037   6.203   6.656 -0.1946 -0.2539  0.0788
 1254ERGO    R317446   8.127   6.037   6.851  0.1270 -0.0200  0.1409
 1254ERGO    R417447   8.002   6.261   6.995 -0.5614 -0.2979  0.0549
 1254ERGO    R517448   8.205   6.185   7.023 -0.3545  0.2212  0.1824
 1254ERGO    C117449   8.067   6.138   7.376 -0.4731 -0.1039  0.0993
 1254ERGO    C217450   8.035   6.143   7.690  0.1224 -0.0901  0.1325
 1255ERGO   ROH17451   8.784  16.283   6.539  0.0704  0.0571  0.0155
 1255ERGO    R117452   8.634  16.283   6.778 -0.1743 -0.3726 -0.1273
 1255ERGO    R217453   8.579  16.514   6.920  0.0919 -0.6606  0.4758
 1255ERGO    R317454   8.322  16.430   6.895 -0.0450 -0.1586 -0.0411
 1255ERGO    R417455   8.308  16.661   7.075  0.1822 -0.5740  0.5543
 1255ERGO    R517456   8.228  16.462   7.113 -0.2214 -0.5587 -0.0459
 1255ERGO    C117457   7.908  16.668   7.143  0.1062 -0.0524  0.1148
 1255ERGO    C217458   7.601  16.878   7.041 -0.3105 -0.1573 -0.0311
 1256ERGO   ROH17459   2.083   6.599   9.451 -0.0546  0.2872  0.1627
 1256ERGO    R117460   1.964   6.587   9.194 -0.0213  0.1002  0.1530
 1256ERGO    R217461   1.993   6.788   9.007 -0.1075  0.0294  0.0547
 1256ERGO    R317462   2.079   6.585   8.849  0.0205 -0.0045  0.1686
 1256ERGO    R417463   2.020   6.803   8.663 -0.1408 -0.1595  0.0443
 1256ERGO    R517464   1.943   6.600   8.653 -0.0006 -0.2161  0.1691
 1256ERGO    C117465   2.117   6.620   8.314 -0.0401 -0.3013  0.1451
 1256ERGO    C217466   2.293   6.560   7.899 -0.2584 -0.1053  0.2280
 1257ERGO   ROH17467  12.761  14.863   6.727  0.1868 -0.2767 -0.1330
 1257ERGO    R117468  12.784  14.913   7.004  0.1605 -0.2391 -0.1364
 1257ERGO    R217469  12.566  14.906   7.175  0.0965  0.0380 -0.1930
 1257ERGO    R317470  12.720  14.729   7.312 -0.1344 -0.1052 -0.1156
 1257ERGO    R417471  12.525  14.824   7.509 -0.0319  0.1955 -0.1698
 1257ERGO    R517472  12.742  14.824   7.530 -0.0376 -0.0625 -0.1484
 1257ERGO    C117473  12.645  14.610   7.831 -0.3233  0.1527 -0.0835
 1257ERGO    C217474  12.691  14.621   8.107  0.0131  0.0995 -0.0538
 1258ERGO   ROH17475   3.220   9.183   6.169  0.1590  0.3600  0.0435
 1258ERGO    R117476   3.384   9.226   6.396  0.1284  0.1956  0.0993
 1258ERGO    R217477   3.280   9.276   6.647  0.0931  0.0463  0.1208
 1258ERGO    R317478   3.436   9.065   6.718  0.0559 -0.0203  0.0042
 1258ERGO    R417479   3.443   9.245   6.950  0.1634 -0.1135  0.0668
 1258ERGO    R517480   3.615   9.164   6.844  0.1123 -0.1182 -0.0044
 1258ERGO    C117481   3.685   9.030   7.194  0.1693 -0.2691 -0.0743
 1258ERGO    C217482   3.685   8.964   7.612  0.0364  0.1014 -0.2877
 1259ERGO   ROH17483  17.524   9.635   9.866 -0.1657 -0.0357  0.1390
 1259ERGO    R117484  17.364   9.628   9.633  0.0257 -0.1689  0.0099
 1259ERGO    R217485  17.335   9.847   9.466  0.0262 -0.2145 -0.0409
 1259ERGO    R317486  17.416   9.671   9.275  0.2849 -0.1909  0.0417
 1259ERGO    R417487  17.309   9.899   9.125  0.0246 -0.3685 -0.0659
 1259ERGO    R517488  17.251   9.690   9.102  0.2867 -0.4581  0.0009
 1259ERGO    C117489  17.371   9.763   8.748  0.2665 -0.4361 -0.0030
 1259ERGO    C217490  17.254   9.690   8.412 -0.0929 -0.3099 -0.0275
 1260ERGO   ROH17491   9.768   7.381   6.343 -0.0913  0.2230  0.2152
 1260ERGO    R117492   9.901   7.171   6.478 -0.1078  0.1455  0.1123
 1260ERGO    R217493  10.158   7.092   6.414 -0.1029  0.1736  0.0910
 1260ERGO    R317494  10.202   7.134   6.679 -0.1260  0.0298  0.1182
 1260ERGO    R417495  10.386   6.917   6.607 -0.2015 -0.0069  0.0461
 1260ERGO    R517496  10.240   6.915   6.769 -0.2258 -0.0267  0.0216
 1260ERGO    C117497  10.561   6.855   6.967 -0.2805 -0.2470  0.0456
 1260ERGO    C217498  10.833   7.048   7.043 -0.3346 -0.1105 -0.1240
 1261ERGO   ROH17499  16.909  12.674   8.507 -0.0031 -0.1048  0.1613
 1261ERGO    R117500  16.998  12.605   8.247 -0.0267 -0.0900  0.1495
 1261ERGO    R217501  17.177  12.761   8.105 -0.1027 -0.0390  0.1093
 1261ERGO    R317502  17.316  12.528   8.088 -0.0291  0.0052  0.0976
 1261ERGO    R417503  17.402  12.683   7.855 -0.2897 -0.0684 -0.0528
 1261ERGO    R517504  17.323  12.480   7.853 -0.2159 -0.1003  0.1110
 1261ERGO    C117505  17.664  12.420   7.693 -0.3298 -0.0440 -0.1581
 1261ERGO    C217506  17.790  12.128   7.496 -0.2140  0.2724 -0.0302
 1262ERGO   ROH17507  15.072   0.332  10.005  0.1348  0.0648 -0.0748
 1262ERGO    R117508  15.020   0.236   9.743  0.1703 -0.1132 -0.0181
 1262ERGO    R217509  14.844   0.362   9.571  0.0331 -0.3510 -0.0524
 1262ERGO    R317510  15.058   0.362   9.404  0.0038 -0.2533 -0.0907
 1262ERGO    R417511  14.826   0.324   9.228 -0.0141 -0.4036 -0.0445
 1262ERGO    R517512  15.003   0.198   9.238  0.0604 -0.3065 -0.0602
 1262ERGO    C117513  15.016   0.303   8.871 -0.0689 -0.3425 -0.0758
 1262ERGO    C217514  14.951   0.365   8.592 -0.0894  0.3477  0.1143
 1263ERGO   ROH17515   6.766  16.198  10.321 -0.1053 -0.0088  0.0588
 1263ERGO    R117516   6.865  16.121  10.067 -0.0382  0.0442  0.0664
 1263ERGO    R217517   6.746  15.922   9.914  0.1684 -0.1359  0.1153
 1263ERGO    R317518   6.741  16.117   9.725 -0.0723 -0.1739  0.0832
 1263ERGO    R417519   6.799  15.873   9.577  0.2209 -0.1094  0.1212
 1263ERGO    R517520   6.914  16.057   9.572 -0.0088  0.0224  0.0885
 1263ERGO    C117521   6.825  16.027   9.202  0.0254 -0.1298  0.0944
 1263ERGO    C217522   6.764  16.019   8.883 -0.1012 -0.1909 -0.0429
 1264ERGO   ROH17523   2.406   2.609   5.869  0.0361 -0.1526  0.0626
 1264ERGO    R117524   2.416   2.559   6.148  0.0174 -0.0570  0.0803
 1264ERGO    R217525   2.602   2.677   6.314  0.0139 -0.0118  0.0486
 1264ERGO    R317526   2.382   2.755   6.453  0.0121  0.0494  0.0126
 1264ERGO    R417527   2.602   2.773   6.646 -0.0160 -0.0580  0.0623
 1264ERGO    R517528   2.414   2.665   6.672 -0.0638  0.0048  0.0081
 1264ERGO    C117529   2.394   2.903   6.969 -0.0349 -0.0275  0.0364
 1264ERGO    C217530   2.313   3.156   7.235  0.2097  0.2983 -0.2083
 1265ERGO   ROH17531   3.608   6.560   6.034 -0.1761  0.0101 -0.1102
 1265ERGO    R117532   3.595   6.596   6.315 -0.1257 -0.0946 -0.0950
 1265ERGO    R217533   3.671   6.399   6.493  0.1856 -0.0547 -0.1853
 1265ERGO    R317534   3.830   6.596   6.593 -0.0283  0.1181 -0.1730
 1265ERGO    R417535   3.760   6.431   6.826  0.1985 -0.0265 -0.1907
 1265ERGO    R517536   3.734   6.647   6.806 -0.0627 -0.0432 -0.1431
 1265ERGO    C117537   3.961   6.634   7.113  0.0051  0.1522 -0.1823
 1265ERGO    C217538   3.961   6.596   7.456 -0.3571  0.0260 -0.0624
 1266ERGO   ROH17539  14.873  14.081   6.253 -0.0015  0.0469  0.0141
 1266ERGO    R117540  15.053  14.041   6.467  0.0155  0.0746  0.0057
 1266ERGO    R217541  15.086  14.225   6.671 -0.0845  0.0305  0.0658
 1266ERGO    R317542  15.032  14.011   6.830  0.0215 -0.0487 -0.0044
 1266ERGO    R417543  15.120  14.221   7.015 -0.0180 -0.0916  0.0576
 1266ERGO    R517544  15.201  14.019   6.999  0.0493 -0.0557 -0.0343
 1266ERGO    C117545  15.089  14.017   7.364  0.1203 -0.2372 -0.0130
 1266ERGO    C217546  15.113  14.114   7.739  0.4068 -0.3313 -0.0219
 1267ERGO   ROH17547   3.434  14.675   6.481  0.0009 -0.0383 -0.0291
 1267ERGO    R117548   3.638  14.563   6.642  0.0538  0.2551  0.1140
 1267ERGO    R217549   3.670  14.628   6.908 -0.3630  0.1530  0.1927
 1267ERGO    R317550   3.655  14.359   6.943  0.1254  0.0888  0.0003
 1267ERGO    R417551   3.705  14.467   7.212 -0.6270  0.0616  0.1775
 1267ERGO    R517552   3.820  14.312   7.111 -0.0921  0.3477  0.3039
 1267ERGO    C117553   3.710  14.120   7.422 -0.3222 -0.0519 -0.0119
 1267ERGO    C217554   3.772  14.262   7.767  0.0246 -0.0861  0.4143
 1268ERGO   ROH17555   1.994  14.399   8.355  0.1659 -0.1442  0.1005
 1268ERGO    R117556   2.206  14.366   8.171  0.0924 -0.1451  0.0151
 1268ERGO    R217557   2.369  14.143   8.168  0.0096 -0.2054 -0.1347
 1268ERGO    R317558   2.294  14.130   7.908 -0.0829 -0.0670 -0.1154
 1268ERGO    R417559   2.529  13.956   7.926 -0.0930 -0.1025 -0.2832
 1268ERGO    R517560   2.501  14.122   7.787 -0.1246 -0.0290 -0.1914
 1268ERGO    C117561   2.552  13.836   7.540 -0.2397  0.0874 -0.3516
 1268ERGO    C217562   2.639  13.585   7.361  0.1040  0.2634  0.0088
 1269ERGO   ROH17563   5.653   6.346   9.525  0.0034  0.1850  0.0664
 1269ERGO    R117564   5.763   6.271   9.275 -0.1346  0.0777  0.0350
 1269ERGO    R217565   5.609   6.230   9.050 -0.2316  0.2748  0.0613
 1269ERGO    R317566   5.778   6.412   8.940 -0.0450  0.0907  0.0443
 1269ERGO    R417567   5.713   6.226   8.721 -0.1456  0.0654  0.0911
 1269ERGO    R517568   5.913   6.282   8.790 -0.1149 -0.0813  0.1267
 1269ERGO    C117569   5.934   6.394   8.426  0.0797 -0.2294  0.0926
 1269ERGO    C217570   5.931   6.306   8.110  0.1724 -0.2517 -0.0003
 1270ERGO   ROH17571  13.614   5.436   6.098  0.2105 -0.1629  0.1167
 1270ERGO    R117572  13.525   5.399   6.364  0.0962 -0.0121  0.1006
 1270ERGO    R217573  13.692   5.425   6.581  0.0207  0.0355  0.1549
 1270ERGO    R317574  13.504   5.601   6.666  0.0431  0.1347 -0.0003
 1270ERGO    R417575  13.657   5.536   6.907 -0.0778  0.1895  0.0924
 1270ERGO    R517576  13.441   5.522   6.883 -0.0726  0.2503  0.0093
 1270ERGO    C117577  13.459   5.766   7.175 -0.1141  0.3724 -0.0897
 1270ERGO    C217578  13.563   5.799   7.508 -0.1554  0.1064  0.0948
 1271ERGO   ROH17579   1.943   7.343   5.662  0.1938  0.0820 -0.0933
 1271ERGO    R117580   2.084   7.223   5.876 -0.1377 -0.0053  0.0820
 1271ERGO    R217581   2.335   7.307   5.955  0.0224 -0.4576  0.0811
 1271ERGO    R317582   2.216   7.330   6.198 -0.0280  0.0480  0.0200
 1271ERGO    R417583   2.495   7.262   6.258 -0.1509 -0.3375  0.1922
 1271ERGO    R517584   2.318   7.158   6.330 -0.3517  0.0411  0.2728
 1271ERGO    C117585   2.476   7.258   6.663 -0.2992  0.2070  0.1994
 1271ERGO    C217586   2.626   7.150   6.941 -0.3530  0.2505 -0.1786
 1272ERGO   ROH17587  16.098   4.016   5.797 -0.1524 -0.1907  0.1265
 1272ERGO    R117588  16.189   4.091   6.055 -0.1481 -0.1401  0.1100
 1272ERGO    R217589  16.148   3.934   6.279  0.0533 -0.2033  0.1021
 1272ERGO    R317590  16.418   3.957   6.304  0.0422  0.0341  0.0330
 1272ERGO    R417591  16.314   3.988   6.577  0.0810 -0.1386  0.0750
 1272ERGO    R517592  16.448   4.125   6.472 -0.0690  0.0161  0.0752
 1272ERGO    C117593  16.665   4.041   6.774  0.0866  0.1220 -0.0056
 1272ERGO    C217594  16.955   3.939   7.005 -0.1350  0.0400  0.2938
 1273ERGO   ROH17595  11.600  12.578   6.450 -0.1866  0.0161 -0.0031
 1273ERGO    R117596  11.740  12.462   6.668 -0.1529 -0.1648 -0.1196
 1273ERGO    R217597  11.775  12.593   6.908  0.2659 -0.1821 -0.1646
 1273ERGO    R317598  11.663  12.367   7.010  0.0215 -0.0083 -0.0358
 1273ERGO    R417599  11.870  12.442   7.204  0.1898 -0.1944 -0.1454
 1273ERGO    R517600  11.847  12.248   7.107 -0.0896 -0.2047 -0.0638
 1273ERGO    C117601  11.820  12.142   7.473 -0.0839 -0.0384 -0.0133
 1273ERGO    C217602  11.931  11.986   7.816  0.3137  0.2086  0.1577
 1274ERGO   ROH17603  10.771   0.162   6.438  0.1869  0.0172 -0.0556
 1274ERGO    R117604  10.897   0.184   6.691  0.0673  0.3384 -0.0200
 1274ERGO    R217605  10.839   0.388   6.868 -0.4064  0.2752 -0.0888
 1274ERGO    R317606  10.792   0.182   7.039 -0.0428  0.2135 -0.0533
 1274ERGO    R417607  10.906   0.393   7.207 -0.4364  0.4594 -0.0841
 1274ERGO    R517608  10.976   0.187   7.191 -0.0572  0.5785 -0.0405
 1274ERGO    C117609  10.901   0.203   7.565 -0.1124  0.5089 -0.0480
 1274ERGO    C217610  10.927   0.076   7.841 -0.2612  0.0904 -0.0557
 1275ERGO   ROH17611  15.534  10.365   5.790  0.0403  0.0751  0.0772
 1275ERGO    R117612  15.531  10.400   6.071  0.3086  0.2597  0.0630
 1275ERGO    R217613  15.588  10.642   6.191  0.0071  0.4657 -0.1680
 1275ERGO    R317614  15.346  10.603   6.310  0.2055  0.0863  0.1284
 1275ERGO    R417615  15.446  10.855   6.424 -0.2161  0.4362 -0.2771
 1275ERGO    R517616  15.378  10.680   6.535  0.2738  0.4190  0.0026
 1275ERGO    C117617  15.137  10.942   6.671 -0.1598  0.0627 -0.0625
 1275ERGO    C217618  15.154  11.163   6.932  0.1046 -0.0659  0.1862
 1276ERGO   ROH17619   1.658   5.631   9.312 -0.1284  0.0818 -0.2824
 1276ERGO    R117620   1.803   5.696   9.078  0.0832 -0.0717 -0.1991
 1276ERGO    R217621   1.986   5.523   8.963 -0.0627 -0.2937 -0.1224
 1276ERGO    R317622   1.834   5.563   8.741  0.0963 -0.0779 -0.1931
 1276ERGO    R417623   2.093   5.472   8.638  0.1272 -0.0632 -0.0964
 1276ERGO    R517624   1.987   5.653   8.580  0.2192  0.0061 -0.0238
 1276ERGO    C117625   2.014   5.480   8.241  0.3871  0.2736 -0.1477
 1276ERGO    C217626   2.012   5.594   7.884  0.0912  0.1209  0.0483
 1277ERGO   ROH17627  10.063  17.444   6.373  0.1634 -0.1080 -0.0133
 1277ERGO    R117628  10.144  17.454   6.644  0.0237 -0.0827  0.0300
 1277ERGO    R217629  10.313  17.651   6.742  0.1628 -0.1990  0.0488
 1277ERGO    R317630  10.112  17.688   6.921  0.0887  0.0587 -0.0836
 1277ERGO    R417631  10.352  17.787   7.057  0.0948 -0.1715  0.0448
 1277ERGO    R517632  10.212  17.639   7.133 -0.1085  0.0023 -0.0096
 1277ERGO    C117633  10.187  17.901   7.409 -0.0143  0.0866 -0.0819
 1277ERGO    C217634  10.013  18.177   7.535  0.0766  0.2537 -0.0623
 1278ERGO   ROH17635   6.358  16.392  10.216  0.0251  0.0016  0.1754
 1278ERGO    R117636   6.417  16.299   9.955  0.1938  0.0963  0.1782
 1278ERGO    R217637   6.225  16.189   9.789  0.4016 -0.3656  0.2240
 1278ERGO    R317638   6.313  16.380   9.616 -0.0527 -0.1776  0.1864
 1278ERGO    R417639   6.245  16.152   9.446  0.2527 -0.2755  0.2048
 1278ERGO    R517640   6.434  16.258   9.449  0.0643  0.0689  0.0924
 1278ERGO    C117641   6.338  16.309   9.084 -0.2604 -0.0464  0.1582
 1278ERGO    C217642   6.358  16.326   8.725 -0.1733 -0.1267 -0.0009
 1279ERGO   ROH17643   3.338   6.168   9.597  0.0708 -0.1336  0.0613
 1279ERGO    R117644   3.464   6.117   9.349  0.0361 -0.1539  0.0476
 1279ERGO    R217645   3.332   5.999   9.136 -0.0812  0.0967 -0.0235
 1279ERGO    R317646   3.417   6.220   9.003  0.1796  0.0706  0.0930
 1279ERGO    R417647   3.328   6.035   8.793 -0.0016  0.2676 -0.0075
 1279ERGO    R517648   3.523   6.133   8.806  0.1074  0.0477  0.0643
 1279ERGO    C117649   3.406   6.263   8.467  0.2895  0.3425  0.1113
 1279ERGO    C217650   3.456   6.267   8.232  0.1880  0.1934  0.1640
 1280ERGO   ROH17651   2.276   3.683   9.466  0.1017  0.0006  0.0936
 1280ERGO    R117652   2.336   3.731   9.193  0.1500  0.0691  0.1170
 1280ERGO    R217653   2.536   3.596   9.058  0.0686 -0.0064  0.0806
 1280ERGO    R317654   2.335   3.538   8.884  0.0448  0.1914  0.0379
 1280ERGO    R417655   2.572   3.565   8.716  0.1622 -0.2374  0.1089
 1280ERGO    R517656   2.383   3.670   8.691  0.3136  0.0277 -0.0163
 1280ERGO    C117657   2.405   3.492   8.354  0.1946 -0.1863  0.0853
 1280ERGO    C217658   2.379   3.518   8.066  0.0815  0.1039 -0.0811
 1281ERGO   ROH17659  17.283   1.952   9.912 -0.0095  0.0587  0.0677
 1281ERGO    R117660  17.258   2.071   9.656  0.1076 -0.0112  0.0232
 1281ERGO    R217661  17.472   2.102   9.483  0.1412 -0.2757  0.0170
 1281ERGO    R317662  17.310   1.968   9.311  0.0204 -0.1883  0.0609
 1281ERGO    R417663  17.469   2.145   9.141  0.0289 -0.2272  0.0235
 1281ERGO    R517664  17.252   2.131   9.145  0.0223 -0.1405  0.1048
 1281ERGO    C117665  17.315   2.046   8.779 -0.1498 -0.1169  0.0684
 1281ERGO    C217666  17.282   1.997   8.539 -0.0394 -0.0177 -0.1563
 1282ERGO   ROH17667   9.770   9.236   6.361  0.1252  0.0734  0.0258
 1282ERGO    R117668   9.853   9.104   6.597  0.2187  0.3505  0.1552
 1282ERGO    R217669   9.898   9.237   6.835 -0.2396  0.5662  0.1440
 1282ERGO    R317670   9.722   9.055   6.933  0.0453  0.2445  0.0700
 1282ERGO    R417671   9.874   9.145   7.167 -0.0714  0.3285  0.0909
 1282ERGO    R517672   9.845   8.939   7.102  0.2295  0.3281 -0.0165
 1282ERGO    C117673   9.695   8.920   7.452  0.2940 -0.1118 -0.0095
 1282ERGO    C217674   9.475   8.801   7.696 -0.1764 -0.2324  0.0709
 1283ERGO   ROH17675  16.162   1.510   5.710  0.1260  0.2884 -0.2371
 1283ERGO    R117676  16.294   1.599   5.944 -0.0136  0.1806 -0.1155
 1283ERGO    R217677  16.170   1.607   6.191 -0.1165 -0.0764 -0.1543
 1283ERGO    R317678  16.383   1.457   6.267 -0.0653 -0.0216 -0.1888
 1283ERGO    R417679  16.237   1.511   6.516 -0.1667 -0.2580 -0.1966
 1283ERGO    R517680  16.448   1.550   6.479 -0.1748 -0.1284 -0.1077
 1283ERGO    C117681  16.476   1.314   6.777 -0.1481 -0.3121 -0.2536
 1283ERGO    C217682  16.496   1.254   7.185 -0.1088  0.2160 -0.0143
 1284ERGO   ROH17683   9.125  15.490   6.835 -0.0853  0.0876 -0.0287
 1284ERGO    R117684   9.213  15.405   7.089  0.1538  0.3550 -0.0158
 1284ERGO    R217685   9.306  15.580   7.282 -0.3890  0.6583 -0.0061
 1284ERGO    R317686   9.116  15.460   7.436 -0.0647  0.0791 -0.0303
 1284ERGO    R417687   9.288  15.603   7.626 -0.4495  0.5112  0.0006
 1284ERGO    R517688   9.235  15.392   7.632  0.1364  0.3480 -0.0556
 1284ERGO    C117689   9.100  15.504   7.971 -0.1803 -0.1182 -0.0181
 1284ERGO    C217690   8.943  15.488   8.250 -0.2180  0.0567  0.0267
 1285ERGO   ROH17691  12.328  18.324   6.099 -0.0449 -0.0547  0.0630
 1285ERGO    R117692  12.421  18.145   6.297 -0.0442 -0.1392 -0.0147
 1285ERGO    R217693  12.690  18.105   6.348 -0.0513 -0.0540  0.0604
 1285ERGO    R317694  12.618  18.167   6.602 -0.1695 -0.2499  0.0781
 1285ERGO    R417695  12.884  18.047   6.628  0.0813  0.2413  0.0336
 1285ERGO    R517696  12.704  17.987   6.734  0.1853 -0.1329  0.0281
 1285ERGO    C117697  12.929  18.072   7.030  0.0475  0.2293  0.0346
 1285ERGO    C217698  13.102  18.169   7.215 -0.1501  0.0383  0.2791
 1286ERGO   ROH17699   1.984   5.508   6.051 -0.0272  0.0800 -0.0131
 1286ERGO    R117700   2.102   5.662   6.257 -0.0428 -0.0039  0.0585
 1286ERGO    R217701   2.181   5.924   6.221  0.0908 -0.0349  0.1288
 1286ERGO    R317702   2.023   5.967   6.439  0.0211  0.0060  0.0711
 1286ERGO    R417703   2.210   6.194   6.435  0.2361 -0.1590  0.2684
 1286ERGO    R517704   2.172   6.059   6.602  0.0287 -0.2069  0.1889
 1286ERGO    C117705   2.079   6.391   6.764  0.2553 -0.1927  0.2955
 1286ERGO    C217706   1.823   6.598   6.959 -0.2452 -0.0784  0.1278
 1287ERGO   ROH17707  16.514  11.461   6.149  0.2305  0.0929 -0.0448
 1287ERGO    R117708  16.441  11.314   6.380  0.1981  0.1047 -0.0470
 1287ERGO    R217709  16.455  11.039   6.391  0.0251  0.0919 -0.0916
 1287ERGO    R317710  16.606  11.087   6.612  0.1162 -0.0359 -0.1255
 1287ERGO    R417711  16.453  10.847   6.679 -0.3510  0.2979  0.0499
 1287ERGO    R517712  16.464  11.030   6.796 -0.0028  0.3686 -0.0838
 1287ERGO    C117713  16.594  10.780   7.053 -0.4844  0.2977  0.1006
 1287ERGO    C217714  16.700  10.527   7.287  0.0309  0.2400  0.1637
 1288ERGO   ROH17715   7.406   4.824   7.461  0.0040 -0.0661  0.1005
 1288ERGO    R117716   7.139   4.821   7.555 -0.0262  0.0850  0.0215
 1288ERGO    R217717   6.940   4.976   7.441  0.0331 -0.0122 -0.2222
 1288ERGO    R317718   6.812   4.737   7.419  0.0040 -0.0220  0.0146
 1288ERGO    R417719   6.599   4.937   7.398  0.0085 -0.0239 -0.0277
 1288ERGO    R517720   6.606   4.769   7.536  0.0632  0.0760  0.0930
 1288ERGO    C117721   6.281   4.691   7.352 -0.0332 -0.0399  0.3078
 1288ERGO    C217722   6.025   4.495   7.337  0.0838 -0.2428  0.0072
 1289ERGO   ROH17723   5.878   5.436   6.123 -0.2838 -0.1337 -0.0602
 1289ERGO    R117724   5.895   5.347   6.391 -0.1943 -0.1249 -0.0612
 1289ERGO    R217725   5.954   5.085   6.458 -0.1500 -0.1240 -0.0688
 1289ERGO    R317726   6.150   5.201   6.606 -0.1145 -0.0965 -0.1397
 1289ERGO    R417727   6.161   4.917   6.678 -0.0648 -0.0758 -0.1133
 1289ERGO    R517728   6.143   5.085   6.815 -0.0350 -0.0701 -0.1287
 1289ERGO    C117729   6.466   4.928   6.944  0.0180 -0.0219 -0.2059
 1289ERGO    C217730   6.602   4.609   7.021 -0.1810 -0.0927  0.3031
 1290ERGO   ROH17731  13.880   0.167   6.016 -0.3235  0.0664  0.0061
 1290ERGO    R117732  13.795   0.028   6.248 -0.4437  0.2132  0.0514
 1290ERGO    R217733  13.961  -0.016   6.464 -0.3972 -0.0766 -0.0411
 1290ERGO    R317734  13.758   0.102   6.602 -0.1220  0.2821  0.0743
 1290ERGO    R417735  13.896  -0.067   6.800 -0.4321 -0.1521 -0.0587
 1290ERGO    R517736  13.682  -0.069   6.753 -0.4602  0.3394 -0.0192
 1290ERGO    C117737  13.668   0.014   7.125 -0.1942  0.1408  0.0395
 1290ERGO    C217738  13.510  -0.074   7.525 -0.0306 -0.0116  0.4271
 1291ERGO   ROH17739   2.113   2.966   5.892 -0.1537  0.1839  0.0031
 1291ERGO    R117740   2.222   3.058   6.136 -0.1360  0.1596  0.0048
 1291ERGO    R217741   2.174   3.312   6.235 -0.1709  0.1329  0.0601
 1291ERGO    R317742   2.094   3.176   6.456 -0.1129  0.0751  0.0450
 1291ERGO    R417743   2.132   3.450   6.549 -0.2327  0.0804  0.0749
 1291ERGO    R517744   2.221   3.272   6.634 -0.1560  0.1104  0.0558
 1291ERGO    C117745   2.033   3.403   6.939 -0.2141 -0.0045  0.0693
 1291ERGO    C217746   1.872   3.398   7.270 -0.0798 -0.1847  0.0652
 1292ERGO   ROH17747   9.978  10.752   6.401 -0.0709  0.0266  0.0336
 1292ERGO    R117748   9.959  10.909   6.635 -0.0577  0.0639  0.0096
 1292ERGO    R217749   9.742  10.898   6.805 -0.0117  0.0298  0.0674
 1292ERGO    R317750   9.932  10.848   6.993  0.0518  0.1202  0.0279
 1292ERGO    R417751   9.701  10.946   7.145 -0.0334 -0.1822  0.0959
 1292ERGO    R517752   9.904  11.024   7.154 -0.1081  0.0131  0.1191
 1292ERGO    C117753   9.855  10.927   7.519  0.0136 -0.2208  0.0754
 1292ERGO    C217754   9.780  10.733   7.763 -0.0626  0.0393  0.0929
 1293ERGO   ROH17755  15.603   5.829   5.528 -0.1350 -0.1633  0.0567
 1293ERGO    R117756  15.480   5.958   5.748  0.0405  0.0123  0.0555
 1293ERGO    R217757  15.380   5.819   5.965 -0.1097  0.1544  0.0809
 1293ERGO    R317758  15.541   5.988   6.105  0.1115 -0.0236  0.0461
 1293ERGO    R417759  15.409   5.824   6.309 -0.1019  0.1879  0.0796
 1293ERGO    R517760  15.414   6.041   6.301  0.1810  0.1818  0.0359
 1293ERGO    C117761  15.577   5.984   6.642  0.1102  0.0402  0.0463
 1293ERGO    C217762  15.540   6.011   7.030  0.2815  0.1856  0.0407
 1294ERGO   ROH17763   0.832   6.449   5.747 -0.0203 -0.0663  0.2107
 1294ERGO    R117764   0.851   6.229   5.925  0.1858 -0.1085  0.1388
 1294ERGO    R217765   1.080   6.174   6.069  0.2161  0.1016  0.1743
 1294ERGO    R317766   0.910   6.181   6.281  0.1536 -0.1648  0.1366
 1294ERGO    R417767   1.177   6.162   6.400  0.1625  0.2381  0.1956
 1294ERGO    R517768   1.008   6.031   6.440  0.3491 -0.0253  0.1523
 1294ERGO    C117769   1.074   6.162   6.792  0.0727  0.0674  0.1726
 1294ERGO    C217770   1.177   5.937   7.142  0.0519 -0.1044 -0.3609
 1295ERGO   ROH17771  18.080   7.056   9.507  0.0883  0.0635  0.0239
 1295ERGO    R117772  18.083   7.180   9.252 -0.0186  0.0485  0.0153
 1295ERGO    R217773  18.282   7.133   9.067 -0.0113  0.1601 -0.0054
 1295ERGO    R317774  18.072   7.070   8.906  0.0085  0.0191  0.0238
 1295ERGO    R417775  18.294   7.121   8.721 -0.0510  0.1738 -0.0072
 1295ERGO    R517776  18.097   7.213   8.716 -0.1162  0.0397  0.0221
 1295ERGO    C117777  18.105   7.053   8.369 -0.0554  0.0495  0.0190
 1295ERGO    C217778  18.090   6.973   7.906 -0.0416 -0.0099 -0.0270
 1296ERGO   ROH17779  17.614   7.154   5.819 -0.2917 -0.2666  0.0019
 1296ERGO    R117780  17.732   7.098   6.070 -0.3356 -0.2476  0.0259
 1296ERGO    R217781  17.774   7.293   6.262 -0.1106 -0.1794 -0.0958
 1296ERGO    R317782  17.634   7.122   6.420 -0.2858  0.0658  0.0233
 1296ERGO    R417783  17.771   7.301   6.607  0.1257 -0.1005 -0.0930
 1296ERGO    R517784  17.777   7.083   6.607 -0.2173 -0.1225 -0.0605
 1296ERGO    C117785  17.637   7.144   6.956  0.0987  0.1757  0.0205
 1296ERGO    C217786  17.750   7.115   7.205  0.1208 -0.2537 -0.2482
 1297ERGO   ROH17787   0.352  17.035   6.510  0.2932  0.2213 -0.0283
 1297ERGO    R117788   0.384  16.857   6.728  0.1080  0.0378 -0.1469
 1297ERGO    R217789   0.574  16.657   6.730  0.0736 -0.0003 -0.1747
 1297ERGO    R317790   0.647  16.773   6.965 -0.0712 -0.1974 -0.0290
 1297ERGO    R417791   0.826  16.542   6.936  0.1963  0.0458 -0.2977
 1297ERGO    R517792   0.700  16.588   7.108  0.1352 -0.3080 -0.2468
 1297ERGO    C117793   1.042  16.584   7.276  0.1319 -0.1125 -0.2326
 1297ERGO    C217794   1.175  16.429   7.500  0.1102 -0.2583  0.4264
 1298ERGO   ROH17795  15.089  12.129   6.479  0.0363 -0.2233  0.1192
 1298ERGO    R117796  15.048  12.190   6.752 -0.0049 -0.0944  0.0844
 1298ERGO    R217797  14.905  12.026   6.922  0.0404 -0.0547  0.1577
 1298ERGO    R317798  15.131  12.038   7.073  0.0239  0.1021  0.1725
 1298ERGO    R417799  14.913  12.099   7.259 -0.0306  0.0135  0.1452
 1298ERGO    R517800  15.091  12.220   7.224 -0.0937  0.1105  0.1357
 1298ERGO    C117801  15.130  12.154   7.598 -0.0876  0.2003  0.1518
 1298ERGO    C217802  15.130  12.145   7.928  0.0674  0.2001  0.1091
 1299ERGO   ROH17803  15.274   8.709   5.814 -0.0958 -0.0909 -0.0110
 1299ERGO    R117804  15.354   8.597   6.061  0.0066 -0.0304 -0.0154
 1299ERGO    R217805  15.570   8.692   6.205 -0.0063  0.0846 -0.0665
 1299ERGO    R317806  15.387   8.712   6.405  0.0224  0.0196 -0.0342
 1299ERGO    R417807  15.634   8.821   6.520  0.0384 -0.0306 -0.0284
 1299ERGO    R517808  15.510   8.663   6.604  0.0458 -0.0551 -0.0689
 1299ERGO    C117809  15.499   8.915   6.890  0.0914 -0.1587  0.0241
 1299ERGO    C217810  15.478   8.982   7.244 -0.2820 -0.1391 -0.0183
 1300ERGO   ROH17811   0.129   1.883   9.515 -0.1171 -0.2880  0.2266
 1300ERGO    R117812  -0.034   1.907   9.284 -0.0674 -0.1613  0.2058
 1300ERGO    R217813   0.067   1.886   9.028 -0.0260 -0.0933  0.2229
 1300ERGO    R317814  -0.125   1.696   9.002 -0.0737 -0.0330  0.1093
 1300ERGO    R417815  -0.044   1.759   8.727  0.2284 -0.1683  0.1563
 1300ERGO    R517816  -0.247   1.762   8.807  0.1433 -0.0595 -0.0437
 1300ERGO    C117817  -0.290   1.506   8.527  0.3318 -0.1552  0.0106
 1300ERGO    C217818  -0.295   1.562   8.182  0.2369 -0.0153 -0.0526
 1301ERGO   ROH17819   4.665   7.233   9.874 -0.0717 -0.0951 -0.0913
 1301ERGO    R117820   4.735   7.397   9.655 -0.1507 -0.0130 -0.0559
 1301ERGO    R217821   4.955   7.346   9.495 -0.0882  0.1625 -0.0295
 1301ERGO    R317822   4.771   7.357   9.295 -0.0655  0.0637 -0.0565
 1301ERGO    R417823   5.026   7.415   9.164 -0.0812  0.2503 -0.0097
 1301ERGO    R517824   4.846   7.537   9.155 -0.1622  0.1316 -0.0229
 1301ERGO    C117825   4.895   7.466   8.784 -0.0558  0.2087 -0.0236
 1301ERGO    C217826   4.915   7.409   8.514 -0.3319  0.2206 -0.1307
 1302ERGO   ROH17827   5.030  16.679   6.605 -0.0643 -0.1428  0.0760
 1302ERGO    R117828   5.059  16.811   6.854 -0.1163 -0.0176  0.0172
 1302ERGO    R217829   4.885  16.771   7.065 -0.0502 -0.0610  0.0664
 1302ERGO    R317830   5.113  16.713   7.200  0.0197  0.1631  0.0481
 1302ERGO    R417831   4.904  16.717   7.405  0.0062 -0.1869  0.0435
 1302ERGO    R517832   5.090  16.830   7.408 -0.1328  0.0450  0.0982
 1302ERGO    C117833   5.129  16.630   7.731  0.1047 -0.0497  0.0129
 1302ERGO    C217834   5.408  16.455   7.991  0.2003  0.2945 -0.0545
 1303ERGO   ROH17835  10.524  12.859   8.097  0.0814 -0.0196  0.1098
 1303ERGO    R117836  10.295  12.712   8.021  0.0768  0.0179  0.0513
 1303ERGO    R217837  10.153  12.554   8.198  0.0761 -0.0526 -0.0134
 1303ERGO    R317838   9.943  12.704   8.113  0.0775 -0.0129  0.0526
 1303ERGO    R417839   9.822  12.457   8.213  0.0895 -0.1377 -0.2271
 1303ERGO    R517840   9.791  12.546   8.017  0.1445  0.0458 -0.1560
 1303ERGO    C117841   9.431  12.541   8.143  0.0987 -0.1498 -0.2897
 1303ERGO    C217842   9.145  12.554   8.350 -0.1269 -0.3800 -0.2608
 1304ERGO   ROH17843  15.124   4.924   6.048 -0.0211 -0.0562 -0.0174
 1304ERGO    R117844  15.150   4.804   6.303  0.0430  0.0528  0.0282
 1304ERGO    R217845  15.252   4.940   6.522 -0.0668  0.2024 -0.0103
 1304ERGO    R317846  15.018   4.864   6.637 -0.0230  0.0820 -0.0038
 1304ERGO    R417847  15.179   4.969   6.858 -0.0409  0.0784  0.0052
 1304ERGO    R517848  15.083   4.774   6.849  0.0330  0.0476 -0.0384
 1304ERGO    C117849  14.917   4.914   7.163  0.0154 -0.1068  0.0204
 1304ERGO    C217850  14.683   4.891   7.426  0.0925 -0.2539  0.0196
 1305ERGO   ROH17851   4.840   5.934   9.584 -0.1015  0.0684 -0.0699
 1305ERGO    R117852   4.799   5.818   9.329 -0.1650  0.1266 -0.0846
 1305ERGO    R217853   4.673   5.952   9.123  0.0790  0.2947 -0.1185
 1305ERGO    R317854   4.900   5.890   8.987  0.0449  0.0027 -0.0533
 1305ERGO    R417855   4.691   5.903   8.781  0.1173  0.3625 -0.1278
 1305ERGO    R517856   4.828   5.737   8.817 -0.1272  0.1458 -0.1207
 1305ERGO    C117857   4.915   5.817   8.454  0.1076  0.1280 -0.0719
 1305ERGO    C217858   4.881   5.708   8.153  0.1787 -0.0547 -0.0570
 1306ERGO   ROH17859   3.664   2.849   9.957 -0.2049 -0.1218  0.0346
 1306ERGO    R117860   3.798   2.883   9.709 -0.1402 -0.0582  0.0779
 1306ERGO    R217861   3.889   2.669   9.559 -0.1218 -0.0199  0.0365
 1306ERGO    R317862   3.741   2.785   9.363 -0.0618  0.0520  0.0332
 1306ERGO    R417863   3.964   2.658   9.222  0.1857  0.4111  0.0823
 1306ERGO    R517864   3.903   2.866   9.207  0.0036  0.3750  0.2567
 1306ERGO    C117865   3.869   2.761   8.842  0.4210  0.7295  0.1060
 1306ERGO    C217866   3.844   2.770   8.524  0.1185  0.1295 -0.0405
 1307ERGO   ROH17867   6.847   6.886  10.033  0.0468 -0.1966  0.0435
 1307ERGO    R117868   6.867   6.760   9.781  0.1228 -0.1119  0.0079
 1307ERGO    R217869   6.651   6.733   9.610  0.1567 -0.1358 -0.0241
 1307ERGO    R317870   6.816   6.856   9.433  0.1333 -0.0259  0.0283
 1307ERGO    R417871   6.637   6.695   9.267  0.1658 -0.0074 -0.0396
 1307ERGO    R517872   6.854   6.692   9.263  0.1721  0.0439 -0.0363
 1307ERGO    C117873   6.784   6.789   8.901  0.1493  0.1705  0.0004
 1307ERGO    C217874   6.747   6.779   8.503  0.1648  0.1123 -0.1023
 1308ERGO   ROH17875  15.250   8.786   9.649 -0.3650 -0.3594 -0.0734
 1308ERGO    R117876  15.395   8.839   9.411 -0.1831 -0.2175  0.0653
 1308ERGO    R217877  15.491   8.638   9.247 -0.1072 -0.1218 -0.0137
 1308ERGO    R317878  15.353   8.773   9.056  0.0552  0.0450 -0.0146
 1308ERGO    R417879  15.537   8.599   8.907 -0.1897 -0.2205 -0.0128
 1308ERGO    R517880  15.515   8.815   8.885  0.0982 -0.1914 -0.0336
 1308ERGO    C117881  15.434   8.703   8.529 -0.0853 -0.1214 -0.0132
 1308ERGO    C217882  15.363   8.808   8.239 -0.0878 -0.0553  0.3879
 1309ERGO   ROH17883  11.418   2.304   6.017  0.1848 -0.1078  0.1645
 1309ERGO    R117884  11.353   2.459   6.246  0.1365  0.0524  0.0453
 1309ERGO    R217885  11.408   2.375   6.503 -0.2819  0.0415  0.1448
 1309ERGO    R317886  11.535   2.615   6.519  0.0480 -0.1319  0.2092
 1309ERGO    R417887  11.501   2.531   6.797 -0.1667 -0.1008  0.1842
 1309ERGO    R517888  11.438   2.721   6.711  0.1292 -0.0088  0.1777
 1309ERGO    C117889  11.673   2.847   6.984  0.2100 -0.3465  0.2677
 1309ERGO    C217890  11.926   2.867   7.409  0.0606  0.2610  0.3820
 1310ERGO   ROH17891   1.560   4.303   9.282 -0.0601  0.1947  0.0397
 1310ERGO    R117892   1.508   4.196   9.025  0.0552  0.0467  0.0773
 1310ERGO    R217893   1.362   4.331   8.834 -0.1120 -0.1876  0.0364
 1310ERGO    R317894   1.582   4.287   8.680 -0.0642  0.0181  0.0435
 1310ERGO    R417895   1.359   4.291   8.490 -0.0537 -0.1131  0.0267
 1310ERGO    R517896   1.508   4.133   8.512  0.0682 -0.0032  0.0030
 1310ERGO    C117897   1.564   4.226   8.147  0.0252  0.1234  0.0278
 1310ERGO    C217898   1.381   4.282   7.840  0.1238 -0.1810 -0.0985
 1311ERGO   ROH17899   5.254   3.697   6.045  0.1132 -0.0270  0.0679
 1311ERGO    R117900   5.248   3.613   6.315 -0.0278  0.0787  0.0991
 1311ERGO    R217901   5.467   3.501   6.440 -0.1841 -0.1636  0.1641
 1311ERGO    R317902   5.423   3.698   6.622  0.0521 -0.0350  0.0861
 1311ERGO    R417903   5.527   3.473   6.779 -0.1937 -0.0936  0.1716
 1311ERGO    R517904   5.342   3.583   6.816 -0.0689  0.1353  0.1399
 1311ERGO    C117905   5.521   3.641   7.148  0.0224  0.0679  0.1027
 1311ERGO    C217906   5.831   3.505   7.332 -0.0848  0.0275 -0.0428
 1312ERGO   ROH17907   2.606   1.778   9.882 -0.0421  0.0699 -0.1469
 1312ERGO    R117908   2.658   1.849   9.613  0.1672  0.1085 -0.0982
 1312ERGO    R217909   2.899   1.797   9.488  0.1198 -0.2581 -0.0438
 1312ERGO    R317910   2.740   1.675   9.304 -0.0428  0.1030 -0.1534
 1312ERGO    R417911   2.968   1.777   9.150  0.2391 -0.2906 -0.0183
 1312ERGO    R517912   2.757   1.814   9.110  0.3196  0.1367 -0.1065
 1312ERGO    C117913   2.860   1.651   8.781  0.1560  0.0295 -0.1064
 1312ERGO    C217914   2.901   1.667   8.414  0.1434  0.0578  0.1981
 1313ERGO   ROH17915   0.396   2.678   9.248  0.0012  0.1771 -0.0520
 1313ERGO    R117916   0.450   2.736   8.976  0.1305 -0.0149 -0.0698
 1313ERGO    R217917   0.549   2.547   8.800 -0.1172 -0.2408  0.0220
 1313ERGO    R317918   0.333   2.618   8.652  0.0046  0.0184 -0.0360
 1313ERGO    R417919   0.487   2.439   8.478 -0.1871 -0.2027  0.0233
 1313ERGO    R517920   0.418   2.640   8.429  0.0817 -0.1202 -0.0195
 1313ERGO    C117921   0.247   2.443   8.151 -0.1134  0.0627 -0.0305
 1313ERGO    C217922   0.232   2.270   7.938 -0.0893  0.2288 -0.2252
 1314ERGO   ROH17923  17.184   3.915   9.773 -0.0231  0.1619 -0.0255
 1314ERGO    R117924  17.076   3.991   9.523  0.1829  0.2066 -0.1024
 1314ERGO    R217925  17.234   4.040   9.301  0.3389 -0.2146 -0.0901
 1314ERGO    R317926  17.072   3.856   9.185  0.0333  0.0042 -0.0224
 1314ERGO    R417927  17.168   4.021   8.963  0.2254 -0.1577 -0.0717
 1314ERGO    R517928  16.960   3.976   9.011  0.1641  0.1530 -0.0099
 1314ERGO    C117929  16.976   3.836   8.657 -0.1273  0.0808  0.0025
 1314ERGO    C217930  17.009   3.832   8.289  0.2570 -0.0033  0.2780
 1315ERGO   ROH17931  14.295   5.256   9.788  0.2496 -0.2376  0.1035
 1315ERGO    R117932  14.419   5.165   9.550  0.2141 -0.0113 -0.0048
 1315ERGO    R217933  14.291   5.000   9.369  0.2820 -0.0683 -0.0005
 1315ERGO    R317934  14.360   5.195   9.193 -0.0156  0.0782  0.0386
 1315ERGO    R417935  14.310   4.960   9.026  0.0425  0.1148 -0.0380
 1315ERGO    R517936  14.490   5.082   9.026 -0.0532  0.2623 -0.1217
 1315ERGO    C117937  14.385   5.119   8.661 -0.3762  0.3589 -0.0230
 1315ERGO    C217938  14.489   5.092   8.253 -0.2625 -0.2054  0.2128
 1316ERGO   ROH17939   8.514  18.263   6.409 -0.1430  0.0364 -0.1672
 1316ERGO    R117940   8.506  18.296   6.689 -0.0967 -0.0121 -0.1602
 1316ERGO    R217941   8.363  18.499   6.811  0.0532  0.0623 -0.1096
 1316ERGO    R317942   8.249  18.293   6.948 -0.0773  0.1135 -0.1384
 1316ERGO    R417943   8.243  18.519   7.135  0.2510  0.0451 -0.0336
 1316ERGO    R517944   8.327  18.322   7.173  0.0774 -0.0589 -0.1660
 1316ERGO    C117945   8.067  18.338   7.452  0.2436  0.0833 -0.0165
 1316ERGO    C217946   7.856  18.268   7.695  0.0871  0.0781 -0.0157
 1317ERGO   ROH17947  17.164  13.886   6.478 -0.3148  0.2555 -0.1222
 1317ERGO    R117948  17.153  14.060   6.701 -0.2673  0.0017  0.0834
 1317ERGO    R217949  17.200  13.975   6.959  0.1191 -0.2319 -0.0589
 1317ERGO    R317950  17.383  14.176   6.958 -0.1082 -0.0188 -0.0460
 1317ERGO    R417951  17.279  14.169   7.233  0.0461 -0.3082  0.0173
 1317ERGO    R517952  17.287  14.343   7.101 -0.2273 -0.2121  0.1118
 1317ERGO    C117953  17.498  14.471   7.393 -0.2098 -0.1525  0.0738
 1317ERGO    C217954  17.577  14.505   7.728  0.1166  0.0105 -0.1307
 1318ERGO   ROH17955   4.644   6.813   9.761  0.3784 -0.0900 -0.0901
 1318ERGO    R117956   4.700   6.961   9.526  0.1346 -0.0819 -0.1475
 1318ERGO    R217957   4.915   6.903   9.362  0.1361  0.1061 -0.2211
 1318ERGO    R317958   4.724   6.891   9.169  0.0705 -0.1395 -0.1396
 1318ERGO    R417959   4.977   6.905   9.022 -0.0043  0.1524 -0.2453
 1318ERGO    R517960   4.804   7.036   8.996 -0.1728 -0.0569 -0.1855
 1318ERGO    C117961   4.834   6.895   8.643 -0.1476 -0.0511 -0.1827
 1318ERGO    C217962   5.015   6.797   8.336 -0.0279 -0.1455 -0.2177
 1319ERGO   ROH17963   1.411   2.222   5.959  0.1331 -0.1803  0.2044
 1319ERGO    R117964   1.498   2.343   6.200 -0.0418 -0.0343  0.1955
 1319ERGO    R217965   1.358   2.546   6.323 -0.2271 -0.0851  0.0667
 1319ERGO    R317966   1.370   2.380   6.538 -0.1977  0.0023  0.1339
 1319ERGO    R417967   1.420   2.647   6.648 -0.1449  0.0483  0.0106
 1319ERGO    R517968   1.545   2.471   6.674 -0.1563  0.0435  0.0571
 1319ERGO    C117969   1.468   2.551   7.039 -0.0695  0.2080  0.0411
 1319ERGO    C217970   1.504   2.586   7.372 -0.1002 -0.1463  0.1570
 1320ERGO   ROH17971   0.474   4.925   9.092  0.1272 -0.0135  0.1088
 1320ERGO    R117972   0.486   4.951   8.811 -0.1997  0.0484  0.0973
 1320ERGO    R217973   0.676   4.821   8.658 -0.0352  0.5028 -0.0895
 1320ERGO    R317974   0.458   4.730   8.523  0.0409  0.0062  0.1015
 1320ERGO    R417975   0.653   4.794   8.314 -0.3610  0.7603 -0.0943
 1320ERGO    R517976   0.448   4.867   8.327 -0.5770  0.1794  0.2253
 1320ERGO    C117977   0.436   4.693   7.987 -0.4792  0.4441  0.0822
 1320ERGO    C217978   0.443   4.775   7.630 -0.0534 -0.3907  0.0277
 1321ERGO   ROH17979   4.092   4.066   9.644 -0.1164 -0.3484 -0.0647
 1321ERGO    R117980   4.237   4.127   9.409 -0.1884 -0.1201 -0.0536
 1321ERGO    R217981   4.349   3.931   9.249  0.0638  0.0472 -0.0887
 1321ERGO    R317982   4.207   4.056   9.054 -0.0948 -0.0970 -0.0669
 1321ERGO    R417983   4.405   3.893   8.910  0.3363  0.4162 -0.0899
 1321ERGO    R517984   4.370   4.107   8.886 -0.0997  0.3734  0.0577
 1321ERGO    C117985   4.305   3.988   8.529  0.3460  0.4958 -0.0702
 1321ERGO    C217986   4.328   3.985   8.125 -0.1525 -0.1237 -0.2113
 1322ERGO   ROH17987   2.760   4.327   9.418  0.0766  0.0525  0.0834
 1322ERGO    R117988   2.867   4.410   9.169  0.2335 -0.0862  0.1033
 1322ERGO    R217989   3.034   4.249   9.018  0.0212 -0.3258  0.1134
 1322ERGO    R317990   2.851   4.297   8.824  0.1118 -0.0402  0.0944
 1322ERGO    R417991   3.096   4.231   8.679  0.0768 -0.2064  0.1173
 1322ERGO    R517992   2.973   4.409   8.652  0.2599 -0.0707  0.1813
 1322ERGO    C117993   2.960   4.266   8.298  0.1941  0.1312  0.1015
 1322ERGO    C217994   2.911   4.256   7.984  0.2306  0.0006  0.3188
 1323ERGO   ROH17995   2.036  11.044   6.228  0.0050  0.2391 -0.0407
 1323ERGO    R117996   1.991  10.938   6.486  0.0036  0.1526 -0.0764
 1323ERGO    R217997   1.997  11.095   6.714 -0.0330  0.0823 -0.0295
 1323ERGO    R317998   1.750  10.989   6.754 -0.0206  0.0343 -0.0745
 1323ERGO    R417999   1.855  11.036   7.024 -0.0812  0.0686 -0.0535
 1323ERGO    R518000   1.775  10.849   6.947 -0.0288  0.0474 -0.0619
 1323ERGO    C118001   1.540  10.903   7.242 -0.0975  0.0155 -0.1098
 1323ERGO    C218002   1.282  10.965   7.392  0.0564  0.2287 -0.0873
 1324ERGO   ROH18003   0.484  14.748   7.000  0.4200  0.0871  0.0852
 1324ERGO    R118004   0.395  14.778   7.267  0.1077  0.0476 -0.0103
 1324ERGO    R218005   0.566  14.845   7.474 -0.1259 -0.0131  0.2049
 1324ERGO    R318006   0.386  15.044   7.515 -0.1505  0.0019  0.0327
 1324ERGO    R418007   0.595  15.091   7.715 -0.1726  0.1740  0.0229
 1324ERGO    R518008   0.381  15.072   7.752 -0.1772  0.1812  0.0142
 1324ERGO    C118009   0.442  15.421   7.894 -0.2230  0.2968 -0.2446
 1324ERGO    C218010   0.495  15.754   8.089 -0.0987  0.1035 -0.3774
 1325ERGO   ROH18011  12.686  15.759   6.515 -0.1396 -0.1239  0.1407
 1325ERGO    R118012  12.633  15.771   6.793  0.0579  0.0116  0.1743
 1325ERGO    R218013  12.793  15.913   6.969  0.0776  0.2546 -0.0335
 1325ERGO    R318014  12.557  16.030   7.037  0.0319  0.1086  0.0636
 1325ERGO    R418015  12.694  15.987   7.292  0.1600  0.1841  0.0079
 1325ERGO    R518016  12.493  15.922   7.240  0.1787  0.0627  0.0861
 1325ERGO    C118017  12.416  16.140   7.543  0.1651  0.0058  0.1232
 1325ERGO    C218018  12.108  16.333   7.696 -0.2092  0.0452 -0.1789
 1326ERGO   ROH18019   6.917  11.674   6.721  0.1489 -0.2397  0.0681
 1326ERGO    R118020   6.864  11.646   6.997  0.1755 -0.0953  0.0894
 1326ERGO    R218021   6.766  11.413   7.107 -0.0727  0.0446  0.1829
 1326ERGO    R318022   6.982  11.436   7.270 -0.0058 -0.1534  0.1234
 1326ERGO    R418023   6.777  11.310   7.437 -0.0704  0.0336  0.1785
 1326ERGO    R518024   6.890  11.490   7.484  0.1059 -0.0711  0.1484
 1326ERGO    C118025   6.987  11.272   7.782 -0.0063 -0.1587  0.1200
 1326ERGO    C218026   7.039  10.980   8.038  0.0043  0.5139 -0.0670
 1327ERGO   ROH18027   6.459  14.356   7.057  0.1892 -0.3491 -0.0847
 1327ERGO    R118028   6.607  14.355   7.298  0.0977 -0.1302 -0.0233
 1327ERGO    R218029   6.590  14.558   7.485  0.0205  0.0421 -0.2039
 1327ERGO    R318030   6.532  14.353   7.655 -0.0435  0.1870 -0.0511
 1327ERGO    R418031   6.678  14.548   7.819  0.2847  0.1155 -0.2700
 1327ERGO    R518032   6.725  14.336   7.795  0.0508  0.0609 -0.2030
 1327ERGO    C118033   6.674  14.350   8.173  0.3784  0.2942 -0.1650
 1327ERGO    C218034   6.632  14.461   8.533 -0.0373 -0.1342 -0.0378
 1328ERGO   ROH18035   5.277   0.475   6.246  0.1549 -0.1848 -0.0868
 1328ERGO    R118036   5.377   0.537   6.504  0.0512 -0.0786 -0.0717
 1328ERGO    R218037   5.220   0.522   6.731 -0.0352 -0.0060 -0.1250
 1328ERGO    R318038   5.421   0.361   6.819 -0.0536  0.0438  0.0121
 1328ERGO    R418039   5.249   0.398   7.053 -0.3309 -0.1687 -0.1578
 1328ERGO    R518040   5.463   0.434   7.043 -0.3364 -0.0587  0.1013
 1328ERGO    C118041   5.454   0.174   7.322 -0.5204 -0.2166 -0.0481
 1328ERGO    C218042   5.498  -0.045   7.548 -0.0695  0.0393  0.1406
 1329ERGO   ROH18043   0.503   0.744   9.928 -0.0379  0.0954 -0.0534
 1329ERGO    R118044   0.639   0.677   9.689 -0.0340 -0.1725  0.0207
 1329ERGO    R218045   0.594   0.441   9.552 -0.5187 -0.0383 -0.0657
 1329ERGO    R318046   0.548   0.609   9.343  0.0218  0.1371 -0.0590
 1329ERGO    R418047   0.585   0.346   9.220 -0.4855  0.0722 -0.0991
 1329ERGO    R518048   0.692   0.528   9.170 -0.0210 -0.1467  0.0303
 1329ERGO    C118049   0.537   0.447   8.831  0.0412  0.3010 -0.1122
 1329ERGO    C218050   0.547   0.348   8.546  0.2319 -0.4320 -0.2645
 1330ERGO   ROH18051   3.588   2.619   6.451 -0.1342 -0.0433 -0.0504
 1330ERGO    R118052   3.638   2.718   6.712 -0.2138 -0.2267  0.0353
 1330ERGO    R218053   3.639   2.989   6.771  0.0950 -0.2559  0.1532
 1330ERGO    R318054   3.457   2.916   6.959 -0.1562 -0.0989 -0.0208
 1330ERGO    R418055   3.528   3.191   7.028  0.1999 -0.2215  0.1727
 1330ERGO    R518056   3.535   3.018   7.160 -0.1475 -0.3124  0.0937
 1330ERGO    C118057   3.293   3.240   7.354  0.0252 -0.0540  0.0205
 1330ERGO    C218058   3.163   3.492   7.458 -0.0545  0.1466  0.0839
 1331ERGO   ROH18059   9.501   8.287   6.178 -0.2256 -0.0251 -0.1778
 1331ERGO    R118060   9.341   8.314   6.411 -0.1126  0.0380 -0.1078
 1331ERGO    R218061   9.244   8.096   6.551 -0.1188  0.0795 -0.0563
 1331ERGO    R318062   9.366   8.218   6.761  0.0108  0.0491 -0.1116
 1331ERGO    R418063   9.181   8.026   6.883 -0.1550  0.2483 -0.0259
 1331ERGO    R518064   9.193   8.240   6.925  0.0381  0.2594 -0.1026
 1331ERGO    C118065   9.259   8.100   7.274 -0.0545  0.3181 -0.0602
 1331ERGO    C218066   9.254   8.018   7.582 -0.0728 -0.0348 -0.0521
 1332ERGO   ROH18067  15.010   9.602   6.177  0.1732 -0.0761  0.2151
 1332ERGO    R118068  14.871   9.715   6.395 -0.0226 -0.3900  0.2622
 1332ERGO    R218069  14.889   9.615   6.652  0.2783 -0.3673  0.2671
 1332ERGO    R318070  14.958   9.871   6.713 -0.2627 -0.2065  0.2362
 1332ERGO    R418071  14.933   9.738   6.972  0.5606 -0.3720  0.2306
 1332ERGO    R518072  14.833   9.921   6.911 -0.0262 -0.6004  0.4853
 1332ERGO    C118073  15.023  10.050   7.215  0.2172 -0.2238  0.1804
 1332ERGO    C218074  14.914  10.323   7.540  0.4486  0.2521 -0.2748
 1333ERGO   ROH18075  14.232   6.968   5.648  0.2800 -0.0106  0.0168
 1333ERGO    R118076  14.137   7.042   5.904  0.2702 -0.0927  0.0358
 1333ERGO    R218077  13.928   6.911   6.028  0.2003 -0.0638 -0.0629
 1333ERGO    R318078  14.107   6.885   6.231  0.1523 -0.2328 -0.0394
 1333ERGO    R418079  13.846   6.901   6.364  0.1437  0.0932 -0.0697
 1333ERGO    R518080  14.021   7.024   6.405  0.2882 -0.0950 -0.0749
 1333ERGO    C118081  13.967   6.869   6.750  0.0657  0.0261 -0.0516
 1333ERGO    C218082  13.844   7.031   7.083 -0.0766 -0.0897  0.3107
 1334ERGO   ROH18083   1.151  14.105  10.521  0.1265  0.3332  0.0853
 1334ERGO    R118084   1.258  14.168  10.267  0.2079 -0.0387  0.0210
 1334ERGO    R218085   1.272  13.984  10.063 -0.2400 -0.1965  0.1102
 1334ERGO    R318086   1.139  14.176   9.924  0.1329  0.0277  0.0512
 1334ERGO    R418087   1.302  14.036   9.722 -0.0851 -0.2864  0.1098
 1334ERGO    R518088   1.298  14.251   9.760  0.2954 -0.2769  0.0723
 1334ERGO    C118089   1.194  14.246   9.393  0.3551 -0.1281  0.0541
 1334ERGO    C218090   1.206  14.114   9.053  0.1773  0.1582 -0.3068
 1335ERGO   ROH18091   4.574  18.183   6.434 -0.0067 -0.0032 -0.0209
 1335ERGO    R118092   4.626  18.031   6.667 -0.0821  0.0663  0.0407
 1335ERGO    R218093   4.880  17.944   6.736 -0.1359 -0.0884  0.0391
 1335ERGO    R318094   4.824  18.071   6.969 -0.0054  0.0595 -0.0082
 1335ERGO    R418095   5.005  17.854   7.045  0.0988  0.1524  0.0187
 1335ERGO    R518096   4.810  17.896   7.131  0.1460  0.1649  0.1244
 1335ERGO    C118097   5.026  17.921   7.444  0.3580  0.4318 -0.0376
 1335ERGO    C218098   5.233  17.976   7.681 -0.0197 -0.3277 -0.0277
 1336ERGO   ROH18099   1.000   2.454   5.696  0.1562  0.1783 -0.0374
 1336ERGO    R118100   0.857   2.367   5.924  0.0642  0.1257 -0.1141
 1336ERGO    R218101   0.973   2.346   6.174  0.0216 -0.1308 -0.1086
 1336ERGO    R318102   0.766   2.505   6.248  0.1287 -0.0262 -0.0321
 1336ERGO    R418103   0.933   2.483   6.488  0.2221 -0.0592 -0.1127
 1336ERGO    R518104   0.719   2.440   6.474  0.2018  0.0359 -0.0039
 1336ERGO    C118105   0.715   2.712   6.742  0.4395  0.0808 -0.0433
 1336ERGO    C218106   0.635   2.979   6.807  0.0392 -0.0468 -0.0202
 1337ERGO   ROH18107  15.899   6.444   9.471 -0.1006 -0.0953  0.1066
 1337ERGO    R118108  15.887   6.305   9.225 -0.0490  0.0036  0.0463
 1337ERGO    R218109  15.672   6.327   9.051 -0.0298  0.0482  0.0226
 1337ERGO    R318110  15.866   6.393   8.872 -0.0109  0.1480  0.0804
 1337ERGO    R418111  15.638   6.312   8.708  0.1702 -0.2316  0.0125
 1337ERGO    R518112  15.841   6.234   8.695  0.2685 -0.0054  0.1753
 1337ERGO    C118113  15.800   6.365   8.340  0.3045 -0.3008  0.0608
 1337ERGO    C218114  15.790   6.352   8.067 -0.0074  0.0014  0.4235
 1338ERGO   ROH18115   8.573   2.450   6.488  0.0166 -0.0704 -0.0013
 1338ERGO    R118116   8.580   2.448   6.771 -0.2253 -0.1453  0.0080
 1338ERGO    R218117   8.387   2.323   6.924 -0.2043 -0.4484 -0.1913
 1338ERGO    R318118   8.601   2.196   7.033 -0.1257 -0.2028 -0.0575
 1338ERGO    R418119   8.385   2.161   7.229 -0.2000 -0.4641 -0.2011
 1338ERGO    R518120   8.584   2.242   7.268 -0.3247 -0.2358 -0.0704
 1338ERGO    C118121   8.585   1.947   7.510 -0.1238 -0.2426 -0.0812
 1338ERGO    C218122   8.559   1.628   7.693 -0.0795  0.0565 -0.0952
 1339ERGO   ROH18123   4.233   3.759   6.043 -0.2263 -0.0329  0.0819
 1339ERGO    R118124   4.033   3.772   6.243 -0.2298  0.1517  0.0665
 1339ERGO    R218125   4.089   3.736   6.511 -0.2984 -0.0180  0.0530
 1339ERGO    R318126   3.965   3.977   6.536  0.0035  0.1357  0.1365
 1339ERGO    R418127   3.993   3.879   6.811 -0.4138 -0.1722  0.0916
 1339ERGO    R518128   3.809   3.945   6.715 -0.2339  0.1720 -0.0514
 1339ERGO    C118129   3.821   4.188   7.009 -0.1975 -0.1176  0.1925
 1339ERGO    C218130   3.832   4.314   7.413  0.0105 -0.0253  0.1334
 1340ERGO   ROH18131   9.404   1.256   6.487 -0.1066 -0.1741  0.0147
 1340ERGO    R118132   9.481   1.466   6.660  0.0031 -0.1703 -0.0376
 1340ERGO    R218133   9.302   1.592   6.830  0.0819 -0.0785 -0.0219
 1340ERGO    R318134   9.484   1.525   7.019  0.0983 -0.1092 -0.0482
 1340ERGO    R418135   9.357   1.768   7.122  0.2072 -0.0465 -0.0638
 1340ERGO    R518136   9.571   1.734   7.096  0.1896 -0.1267 -0.1031
 1340ERGO    C118137   9.561   1.807   7.471  0.2957 -0.0567 -0.1130
 1340ERGO    C218138   9.397   2.079   7.681  0.4731 -0.0769  0.0981
 1341ERGO   ROH18139  10.379  15.334  10.225  0.0056 -0.0527  0.0903
 1341ERGO    R118140  10.439  15.293   9.952 -0.0095 -0.0296  0.0829
 1341ERGO    R218141  10.274  15.148   9.784 -0.1045  0.1243  0.0379
 1341ERGO    R318142  10.284  15.374   9.632  0.0614  0.1554  0.0949
 1341ERGO    R418143  10.323  15.154   9.442 -0.1575  0.1721  0.0316
 1341ERGO    R518144  10.453  15.327   9.468 -0.0060  0.0552  0.0550
 1341ERGO    C118145  10.361  15.369   9.100 -0.0326  0.2292  0.0814
 1341ERGO    C218146  10.391  15.316   8.774  0.0534  0.2655  0.0631
 1342ERGO   ROH18147  10.075   2.481   6.232  0.2046  0.2534 -0.0219
 1342ERGO    R118148  10.008   2.535   6.501  0.0141  0.0726 -0.0296
 1342ERGO    R218149   9.968   2.336   6.688  0.1169 -0.0515 -0.1312
 1342ERGO    R318150  10.155   2.475   6.829 -0.0863  0.0778  0.0151
 1342ERGO    R418151  10.018   2.310   7.029 -0.0992 -0.0332 -0.0973
 1342ERGO    R518152  10.047   2.526   7.036 -0.2665 -0.0168 -0.0578
 1342ERGO    C118153  10.222   2.425   7.360 -0.4157  0.0989  0.0598
 1342ERGO    C218154  10.225   2.607   7.719 -0.0139 -0.3126 -0.2579
 1343ERGO   ROH18155   8.893  14.398   7.807 -0.0700  0.0137 -0.0289
 1343ERGO    R118156   9.085  14.382   8.014 -0.0851 -0.0684 -0.0214
 1343ERGO    R218157   9.294  14.201   8.009 -0.0883 -0.0696 -0.0763
 1343ERGO    R318158   9.446  14.424   8.044 -0.0865 -0.0850  0.0207
 1343ERGO    R418159   9.626  14.202   8.107 -0.0446 -0.1224 -0.2205
 1343ERGO    R518160   9.583  14.374   8.233  0.0002 -0.2161 -0.0748
 1343ERGO    C118161   9.961  14.412   8.196 -0.0175 -0.1676 -0.2136
 1343ERGO    C218162  10.258  14.555   8.104 -0.1225  0.1534  0.2286
 1344ERGO   ROH18163   5.953   8.513   6.297  0.0271 -0.1200  0.0597
 1344ERGO    R118164   5.879   8.497   6.570 -0.1299 -0.1023  0.0195
 1344ERGO    R218165   5.714   8.297   6.667  0.1498 -0.3470  0.0107
 1344ERGO    R318166   5.919   8.257   6.840  0.1126  0.1080  0.1745
 1344ERGO    R418167   5.692   8.113   6.958  0.3084 -0.3522  0.0194
 1344ERGO    R518168   5.816   8.263   7.057 -0.0728 -0.0701  0.0954
 1344ERGO    C118169   5.872   7.967   7.291  0.3658  0.0718  0.1783
 1344ERGO    C218170   6.004   7.799   7.566  0.2354  0.0229 -0.1942
 1345ERGO   ROH18171   7.337  16.060   6.623  0.0884  0.1154 -0.1562
 1345ERGO    R118172   7.277  15.967   6.884  0.1176  0.3064 -0.0782
 1345ERGO    R218173   7.294  15.700   6.954 -0.3915  0.2703 -0.0304
 1345ERGO    R318174   7.456  15.796   7.151 -0.0004 -0.0145 -0.2030
 1345ERGO    R418175   7.305  15.580   7.278 -0.3605  0.3549 -0.0013
 1345ERGO    R518176   7.322  15.785   7.349  0.1520  0.3443 -0.0784
 1345ERGO    C118177   7.464  15.600   7.651  0.0249  0.1367 -0.1464
 1345ERGO    C218178   7.523  15.565   7.994  0.1437 -0.3631  0.0435
 1346ERGO   ROH18179  12.275   1.741   6.447 -0.2591 -0.1027 -0.0880
 1346ERGO    R118180  12.170   1.736   6.710 -0.1460 -0.1213 -0.0427
 1346ERGO    R218181  11.969   1.562   6.786 -0.1162 -0.1228  0.0302
 1346ERGO    R318182  12.147   1.494   6.980 -0.0344 -0.1419 -0.0508
 1346ERGO    R418183  11.889   1.398   7.080 -0.0097 -0.0744  0.0872
 1346ERGO    R518184  12.028   1.528   7.185  0.0729 -0.0934  0.0051
 1346ERGO    C118185  12.009   1.238   7.432  0.1289 -0.0641  0.0441
 1346ERGO    C218186  12.078   1.040   7.812 -0.1204 -0.2793 -0.0832
 1347ERGO   ROH18187   1.476  10.039   9.735  0.1255 -0.5338 -0.0178
 1347ERGO    R118188   1.436  10.046   9.455  0.0650 -0.3121 -0.0065
 1347ERGO    R218189   1.552  10.238   9.293  0.0081 -0.1596  0.1170
 1347ERGO    R318190   1.644  10.021   9.157  0.0090 -0.0434 -0.0681
 1347ERGO    R418191   1.587  10.220   8.949 -0.3318 -0.0076  0.0715
 1347ERGO    R518192   1.512  10.015   8.957 -0.1883 -0.0522  0.0672
 1347ERGO    C118193   1.694  10.006   8.622 -0.5290  0.1900 -0.1289
 1347ERGO    C218194   1.679  10.115   8.413  0.0692  0.3055  0.2582
 1348W        W18195  10.843  13.301   2.423  0.1674 -0.0445  0.1033
 1349W        W18196  10.179  16.551  14.675 -0.0031  0.0482  0.2246
 1350W        W18197   5.665   6.821  15.185 -0.2151 -0.1493 -0.0116
 1351W        W18198  17.993   0.169   4.106 -0.0603 -0.3621  0.3220
 1352W        W18199  16.746  18.381   4.067 -0.0903  0.0953 -0.1539
 1353W        W18200   9.746   5.966  13.624  0.0029 -0.1981 -0.1907
 1354W        W18201   0.965   0.353   3.012 -0.2832  0.0010  0.1952
 1355W        W18202   4.766   9.747  16.018 -0.0253  0.1392  0.1494
 1356W        W18203   9.316   9.749  11.058 -0.0436  0.0633 -0.3379
 1357W        W18204  10.981  12.423  15.563 -0.1306  0.1908 -0.2791
 1358W        W18205  10.090   9.414  13.934  0.1017  0.0443 -0.3136
 1359W        W18206   7.735   0.249   5.773  0.2811  0.0016  0.0280
 1360W        W18207   1.509  12.636  11.496  0.4006  0.0319  0.3933
 1361W        W18208  10.762   8.252   4.183  0.2810  0.0600 -0.0272
 1362W        W18209   0.323   4.687  10.858  0.0802  0.1616  0.2043
 1363W        W18210  13.939   6.850  12.833  0.1518  0.0640  0.1546
 1364W        W18211  13.510  16.090  11.913 -0.1066 -0.3991 -0.2445
 1365W        W18212   4.599  17.003  14.790 -0.0798  0.0657 -0.0169
 1366W        W18213  16.213   4.648   1.999 -0.1622 -0.0273 -0.0084
 1367W        W18214   2.721   6.389  13.188 -0.0268  0.1178  0.1205
 1368W        W18215  10.776  17.243   2.943  0.0741 -0.0517 -0.4233
 1369W        W18216   1.011   5.400   4.076 -0.0791  0.0633 -0.2534
 1370W        W18217  14.565  10.188  11.767 -0.0039  0.0866  0.2384
 1371W        W18218  11.291   3.852  10.826 -0.2323  0.0659 -0.3474
 1372W        W18219  14.382  18.127  12.908 -0.0938  0.0283  0.0291
 1373W        W18220   8.157  16.905   1.651 -0.0429  0.0467  0.1864
 1374W        W18221   1.349   7.780   0.881 -0.1628  0.1263 -0.0401
 1375W        W18222   1.676   4.163   3.858 -0.0390 -0.1883 -0.0755
 1376W        W18223   7.797  17.735  14.015  0.1279  0.0484  0.0565
 1377W        W18224  12.641   3.187  11.466  0.2048  0.0600  0.1129
 1378W        W18225  16.575  16.322  15.254  0.0795 -0.1886 -0.0236
 1379W        W18226   2.551   3.860  11.074  0.1913  0.1320  0.1570
 1380W        W18227  11.199  11.289   1.674 -0.0131  0.1144  0.0871
 1381W        W18228  11.006  11.002   5.566 -0.0117 -0.0034  0.0749
 1382W        W18229  16.526   5.369  12.184  0.1016 -0.1198  0.0033
 1383W        W18230   4.130  14.126   1.791  0.0968  0.0281 -0.1502
 1384W        W18231  12.519  14.453  13.558  0.2643 -0.2836  0.2661
 1385W        W18232  10.669  13.788   0.117  0.0667 -0.0516 -0.0261
 1386W        W18233   1.556  18.005   2.760  0.0809  0.4742 -0.1178
 1387W        W18234   4.368  13.751  11.532 -0.0908 -0.0397  0.1464
 1388W        W18235   0.670   3.765   3.586 -0.1853 -0.1967 -0.1063
 1389W        W18236   2.795  12.105  11.595  0.2525 -0.2968 -0.0258
 1390W        W18237  17.490   5.337   2.932 -0.2134  0.0378 -0.3045
 1391W        W18238   5.436   7.693  15.270 -0.0292  0.1254  0.1245
 1392W        W18239  17.302   6.880  13.688 -0.2546 -0.1533  0.0180
 1393W        W18240   4.374  16.236  14.365  0.0445 -0.1213  0.3224
 1394W        W18241   0.636  17.592  13.523 -0.3142 -0.0546 -0.1040
 1395W        W18242   4.510   3.442   4.083 -0.3934  0.1641 -0.2189
 1396W        W18243  13.841  12.408  15.868 -0.1030 -0.1380  0.0993
 1397W        W18244   0.025   3.045   1.257  0.0837  0.0330  0.2912
 1398W        W18245   5.686   8.759  12.255  0.0227  0.1395  0.0333
 1399W        W18246   6.631   6.349   3.446 -0.3097 -0.1571  0.0138
 1400W        W18247   1.559   7.306   0.060 -0.1501 -0.0238 -0.1592
 1401W        W18248  10.433   3.559  13.178  0.0950 -0.0037  0.0473
 1402W        W18249  15.821   2.630   2.673  0.0342  0.2073 -0.3080
 1403W        W18250  13.099   9.001   2.577  0.1946  0.2341  0.0494
 1404W        W18251   2.831   1.662  11.484  0.0431 -0.0232 -0.1715
 1405W        W18252   1.270   3.385   3.185  0.0182  0.2516 -0.2886
 1406W        W18253   5.743   1.893   0.996 -0.1225  0.2328  0.2553
 1407W        W18254   8.310   6.501   5.359  0.0008  0.1880 -0.1605
 1408W        W18255  13.124   5.121  14.108 -0.1279  0.0447  0.0173
 1409W        W18256   1.345   0.826  13.610 -0.0036  0.0293  0.4317
 1410W        W18257   2.403   9.934  15.485  0.0405  0.2207  0.2589
 1411W        W18258   2.811  10.296  11.601 -0.0066  0.0357 -0.1656
 1412W        W18259   2.871   7.425  12.709 -0.1202  0.1282 -0.1072
 1413W        W18260   1.444  14.676  13.251 -0.0610  0.5414  0.0155
 1414W        W18261  11.673  10.104   6.191 -0.3253  0.0121  0.1166
 1415W        W18262   9.026   7.188  13.979 -0.2741 -0.0547 -0.3027
 1416W        W18263   4.643  15.377  14.253 -0.1426  0.0239  0.1512
 1417W        W18264  13.228  11.071   3.416  0.1326  0.2128  0.1254
 1418W        W18265  16.967   4.980   1.497 -0.1167 -0.2464  0.0494
 1419W        W18266   3.444  13.400  14.497  0.0832 -0.0193 -0.0405
 1420W        W18267  10.343  13.443   2.010 -0.0837  0.0288  0.0519
 1421W        W18268   3.726   5.890   3.743  0.1152 -0.2495 -0.1703
 1422W        W18269   9.340   3.730   4.788  0.2469  0.0893 -0.1688
 1423W        W18270  17.423  11.612   3.776 -0.2010 -0.0574  0.2307
 1424W        W18271   5.814  16.280  13.925  0.0423  0.4176 -0.2541
 1425W        W18272   0.053   0.190  14.175  0.0668 -0.0635 -0.7819
 1426W        W18273  14.691  17.702   4.582 -0.0611 -0.0006 -0.0689
 1427W        W18274  14.653  10.505   5.071  0.4402  0.1073  0.0329
 1428W        W18275   7.161   7.158   4.750  0.0738 -0.1729 -0.1051
 1429W        W18276   3.772   7.010  12.501  0.0288 -0.0716  0.0807
 1430W        W18277  10.004   2.375  16.038  0.0083  0.4417  0.1603
 1431W        W18278  11.458   6.350  14.923 -0.0674  0.0203  0.0311
 1432W        W18279   3.283   8.974  13.549  0.1310  0.0447  0.2033
 1433W        W18280   1.108   8.988  13.269  0.0622 -0.2354 -0.2048
 1434W        W18281  15.034  17.820   2.069 -0.0471 -0.1135 -0.2884
 1435W        W18282  13.099  14.553  16.269  0.2343  0.0924  0.0923
 1436W        W18283  14.402   0.861   2.682  0.1459  0.0620 -0.0572
 1437W        W18284  11.462   4.603  11.845 -0.0868  0.0468  0.0546
 1438W        W18285  16.601   3.850  11.008 -0.0350 -0.0490  0.0460
 1439W        W18286   6.612   9.411  13.570  0.2073 -0.0454 -0.3694
 1440W        W18287   8.809   8.055  13.983  0.0128  0.2231  0.2294
 1441W        W18288  14.222   1.390   2.009  0.0501 -0.0026  0.0540
 1442W        W18289  11.407   9.422  16.078 -0.1514  0.0729 -0.0477
 1443W        W18290   4.540   7.847  13.333 -0.0183 -0.2856  0.1954
 1444W        W18291  10.602   6.107  12.220  0.1542 -0.1500 -0.2970
 1445W        W18292   5.911  14.477   1.021  0.0947 -0.1361 -0.0160
 1446W        W18293  17.038   3.169   3.467 -0.0939  0.2762 -0.0665
 1447W        W18294  16.016   0.784  13.441 -0.0201 -0.1043 -0.1671
 1448W        W18295   9.460  12.437  16.181  0.0413 -0.1678 -0.2306
 1449W        W18296   6.531   9.825  16.057 -0.1842 -0.1529  0.1844
 1450W        W18297  15.272   2.822  13.710  0.0523  0.0329 -0.0314
 1451W        W18298  14.747   5.326   2.872  0.2023 -0.0000  0.0561
 1452W        W18299  13.656   2.000   4.755  0.1243 -0.0536 -0.0304
 1453W        W18300  11.272   6.308   5.097  0.4977 -0.0374 -0.0899
 1454W        W18301  17.893   6.243   1.481 -0.1726 -0.0580  0.2378
 1455W        W18302   9.652  16.031  13.109  0.0755  0.0292 -0.3995
 1456W        W18303   9.498   4.864  14.599  0.1231  0.1492 -0.0882
 1457W        W18304   0.344  16.324   1.091  0.0154  0.0482  0.0442
 1458W        W18305  14.993   6.505  15.239  0.1609  0.2722  0.2516
 1459W        W18306  14.266   0.219  12.449 -0.0975 -0.1776 -0.4253
 1460W        W18307  11.840  10.260  11.964  0.0362 -0.0045  0.1256
 1461W        W18308   5.452  17.595   2.815 -0.0031  0.1932  0.2721
 1462W        W18309   3.202  11.176  13.996  0.0736 -0.0021  0.1127
 1463W        W18310   3.382  12.198   0.510  0.0137  0.1537 -0.0925
 1464W        W18311   3.654  17.265  15.973  0.0111  0.0854  0.0461
 1465W        W18312   5.447   2.685  15.438  0.0535 -0.0256  0.1951
 1466W        W18313  17.055   8.201  13.046 -0.0878  0.1419  0.0191
 1467W        W18314   7.535   7.079  11.643  0.5137 -0.1160 -0.0821
 1468W        W18315   1.057   3.413  11.106  0.1707 -0.0409 -0.0420
 1469W        W18316  10.886  15.627  14.854  0.4265  0.0712  0.1635
 1470W        W18317   6.628  17.443   3.051  0.4823  0.1695  0.0568
 1471W        W18318  16.302   5.747   4.602 -0.0321  0.0669  0.2602
 1472W        W18319  11.373  12.188  13.192 -0.1507  0.0702  0.2465
 1473W        W18320   0.684   2.249   2.579  0.3479 -0.0223  0.0769
 1474W        W18321   5.953   2.339   4.143 -0.2714  0.1018 -0.1376
 1475W        W18322   1.616  13.722   0.670  0.2879  0.0105  0.3061
 1476W        W18323  11.492  17.346   4.672  0.1175 -0.2789  0.0031
 1477W        W18324  16.693   2.393   1.645  0.1826 -0.0168  0.3867
 1478W        W18325   1.144   6.189   5.429  0.1867 -0.0078  0.0969
 1479W        W18326  10.463  16.138   2.662  0.1359  0.0591  0.0314
 1480W        W18327  16.675   9.726  14.637 -0.4248 -0.0301 -0.2078
 1481W        W18328  16.451  15.915   4.840  0.1792 -0.1148  0.1754
 1482W        W18329  15.232   1.952   1.082 -0.0275 -0.1261  0.0901
 1483W        W18330   3.929  16.557  13.800 -0.3698  0.3194 -0.1177
 1484W        W18331   9.939   8.600  14.743  0.0929 -0.0420 -0.1143
 1485W        W18332  11.808   2.215  14.583 -0.3751 -0.1299 -0.1518
 1486W        W18333  10.473   9.128   1.262  0.1846  0.1215 -0.0928
 1487W        W18334   5.503  18.281   2.627  0.3881 -0.1699 -0.0154
 1488W        W18335   0.849   4.063  11.992 -0.2711  0.2210  0.2426
 1489W        W18336  12.448  17.373  15.005 -0.0971  0.2488  0.1142
 1490W        W18337  10.541  16.175  15.938  0.1301  0.0642  0.0073
 1491W        W18338   7.034   3.131   3.826  0.1799  0.1767  0.1575
 1492W        W18339  14.199   1.221   3.583 -0.2974  0.3392 -0.1737
 1493W        W18340   0.604   0.238   2.651 -0.5089  0.0287  0.0381
 1494W        W18341  13.360   1.028   0.193 -0.0630  0.0350  0.1794
 1495W        W18342   2.051  11.183   5.785 -0.0397 -0.0455  0.0573
 1496W        W18343  16.485   7.418  14.098 -0.1005  0.0055 -0.2104
 1497W        W18344   1.083   9.663  11.267 -0.2057 -0.0439  0.4064
 1498W        W18345   3.324  10.497   0.903  0.1385  0.0511 -0.0960
 1499W        W18346   8.854   1.851  14.276  0.1397  0.2232  0.0043
 1500W        W18347  12.407   0.671  13.956 -0.2274 -0.1527  0.1404
 1501W        W18348  12.969   9.359  14.103  0.1586  0.3199 -0.0385
 1502W        W18349   5.689   1.639   5.619  0.1832 -0.2442  0.0161
 1503W        W18350  17.265   5.600   1.446 -0.0973  0.1064 -0.3695
 1504W        W18351   5.903   0.233   2.876 -0.2707  0.1867 -0.1604
 1505W        W18352  16.515  12.556   6.302 -0.0472 -0.2606  0.0345
 1506W        W18353   3.843   0.472  13.604  0.0641  0.1347 -0.1083
 1507W        W18354   5.259   9.868   0.373  0.1815 -0.1559  0.0104
 1508W        W18355   7.813   6.851  15.338 -0.7656  0.0236 -0.0121
 1509W        W18356  14.501  12.959   1.294 -0.1730  0.0525 -0.1062
 1510W        W18357   9.891   4.596  14.499  0.0423 -0.0323 -0.0742
 1511W        W18358  18.370   0.244   3.758  0.1718 -0.0518  0.0173
 1512W        W18359  17.362  15.713   4.460 -0.0925 -0.0970  0.0287
 1513W        W18360  10.935   9.952  13.756  0.1538 -0.1920  0.2693
 1514W        W18361  11.612  17.950   0.902  0.0316  0.3384  0.0236
 1515W        W18362   5.274  17.013   3.510 -0.2072 -0.1237 -0.3101
 1516W        W18363  17.533   8.043  15.551 -0.3677 -0.1405  0.0689
 1517W        W18364   8.789   5.053  14.256  0.1153  0.1668  0.2271
 1518W        W18365  14.407   9.405  15.854  0.1291  0.0214 -0.2109
 1519W        W18366   1.950  18.025  13.722  0.0235  0.0809  0.0174
 1520W        W18367   8.322   9.271   0.696 -0.2456  0.2650 -0.4430
 1521W        W18368  13.713   2.773   5.065 -0.0677 -0.3360  0.2081
 1522W        W18369  14.818  16.777  15.486  0.2301 -0.0765 -0.0288
 1523W        W18370  15.993  11.206   0.233  0.1573 -0.0844 -0.0377
 1524W        W18371   6.610  16.395  11.992 -0.3742  0.2644 -0.1953
 1525W        W18372  11.172  10.641  15.665 -0.0190  0.1632  0.1581
 1526W        W18373   3.764   8.247  13.944  0.1169 -0.0647  0.0977
 1527W        W18374  13.161   2.060   4.656  0.0645 -0.1974  0.4137
 1528W        W18375   7.291   3.036   2.471  0.0449  0.0940  0.0148
 1529W        W18376  13.331   3.405   3.988 -0.1017  0.2713  0.2713
 1530W        W18377   8.016  15.185  13.770  0.0614 -0.0660 -0.3011
 1531W        W18378   2.361  17.471   2.720  0.1001  0.1298 -0.2386
 1532W        W18379  12.701   1.889  16.370  0.1876  0.0217  0.0042
 1533W        W18380   6.261   2.209  12.374 -0.1193  0.0416  0.1023
 1534W        W18381   1.031   4.042   1.167 -0.0546 -0.0723 -0.4049
 1535W        W18382  16.097  11.380   4.682 -0.0577  0.0350 -0.1706
 1536W        W18383  16.925   4.534   5.074  0.2413  0.0624 -0.1337
 1537W        W18384   8.422   9.337   2.539  0.0230 -0.1974 -0.0570
 1538W        W18385  14.203   6.342  16.264 -0.0165 -0.0340  0.0029
 1539W        W18386  13.690  11.016   4.740 -0.1285 -0.0274  0.0302
 1540W        W18387  16.448   3.819   4.610 -0.2547  0.0718 -0.2779
 1541W        W18388   4.871  13.158   0.811  0.1083 -0.2817  0.1948
 1542W        W18389  17.720   4.440  14.256 -0.2403 -0.1294 -0.0229
 1543W        W18390   7.654   1.591   3.563 -0.0847  0.0589 -0.1037
 1544W        W18391  15.854   5.702  12.652  0.0056 -0.0118 -0.1958
 1545W        W18392   2.745  15.501  14.132  0.1752 -0.0259 -0.1493
 1546W        W18393   9.910   8.714  13.438 -0.0453  0.0064  0.1025
 1547W        W18394   4.394   4.095   3.681 -0.0607 -0.0300 -0.1228
 1548W        W18395  15.804  14.621  12.803 -0.1490 -0.0996  0.1191
 1549W        W18396  16.266  11.552   4.271  0.0430 -0.2130  0.1496
 1550W        W18397   0.574   9.772  14.791  0.2653 -0.1288 -0.1457
 1551W        W18398   1.565   7.094  15.650  0.2035  0.2160 -0.1826
 1552W        W18399  16.561   4.199  14.759 -0.1499 -0.1175  0.0964
 1553W        W18400  12.240  12.209  15.322  0.3194  0.1709  0.1569
 1554W        W18401  10.473  10.939  15.699  0.1859 -0.0252 -0.2628
 1555W        W18402   4.777   5.048   4.865 -0.0657 -0.1110  0.2190
 1556W        W18403   7.612  10.876  15.027 -0.3953  0.0248 -0.1567
 1557W        W18404   8.001  15.264   5.846 -0.0498  0.0416  0.1785
 1558W        W18405  17.352  11.432  14.480  0.1268  0.3261  0.2929
 1559W        W18406  13.337   9.439  10.899  0.0774  0.0094 -0.0640
 1560W        W18407   4.065   3.700   5.067 -0.1582 -0.1609 -0.1134
 1561W        W18408  12.928   6.042  13.364 -0.1208 -0.0560  0.0469
 1562W        W18409   7.133   1.713  12.206 -0.3794 -0.0153 -0.0853
 1563W        W18410   1.351  14.703   1.629 -0.1326 -0.1204 -0.2004
 1564W        W18411  10.004  14.544   1.159  0.0817 -0.1720  0.0906
 1565W        W18412  16.292   3.750  14.559 -0.0232 -0.0472 -0.2417
 1566W        W18413  13.370   6.958  11.841  0.1090  0.0436 -0.1843
 1567W        W18414   4.276  17.766   4.615  0.1679 -0.1135 -0.2288
 1568W        W18415   6.339  17.224  12.393  0.0474  0.2601  0.3233
 1569W        W18416   8.739   0.458   4.704 -0.1996 -0.2060  0.0218
 1570W        W18417   3.534   3.329   1.702 -0.1699 -0.1337 -0.1296
 1571W        W18418   5.300  16.645   2.882  0.1876  0.2266  0.0939
 1572W        W18419  11.352  10.468  11.171  0.2585 -0.1710 -0.2566
 1573W        W18420   7.810   0.355  15.196 -0.1822 -0.1896 -0.0796
 1574W        W18421   6.399   9.199   2.336 -0.0621 -0.1921 -0.1941
 1575W        W18422   8.333   8.428   2.464  0.0374 -0.0196 -0.0529
 1576W        W18423  16.850  10.164  14.610  0.1562 -0.0124  0.1440
 1577W        W18424   8.244   1.014  16.346 -0.0487  0.5379  0.1759
 1578W        W18425   9.246  12.820  13.729  0.1219 -0.5080 -0.1905
 1579W        W18426   5.199  13.612   4.044 -0.1259  0.0112  0.1719
 1580W        W18427   4.138  13.428  12.640 -0.2652  0.3068 -0.1590
 1581W        W18428   2.913   9.948  12.496  0.0831 -0.1730  0.1344
 1582W        W18429  17.457  12.351   3.024  0.0814 -0.3534  0.0247
 1583W        W18430   4.256   5.808   0.835  0.1293 -0.0417 -0.0337
 1584W        W18431  11.731   9.118  15.218  0.1306 -0.0574  0.0638
 1585W        W18432  13.033   1.613   0.401  0.2617  0.2417  0.3043
 1586W        W18433   7.162  16.709  15.936 -0.1150  0.0665  0.0265
 1587W        W18434   0.966  14.970  14.489 -0.2681  0.1440 -0.2120
 1588W        W18435  14.911   2.735   1.325 -0.0665 -0.0380  0.2709
 1589W        W18436  14.932  14.541  15.209 -0.2584 -0.1990  0.2694
 1590W        W18437   2.494  15.170  12.676  0.1964 -0.0221 -0.0660
 1591W        W18438  13.507   0.528  14.191 -0.0611  0.0212  0.0346
 1592W        W18439  15.816   3.645  13.452  0.0616 -0.2883  0.3007
 1593W        W18440  18.198   1.382  12.383  0.0330 -0.1107 -0.0267
 1594W        W18441   7.661   3.697  13.688  0.1624  0.0317 -0.1075
 1595W        W18442   1.422  11.391   4.331 -0.0243  0.1240 -0.1746
 1596W        W18443   4.273   7.844  16.332 -0.0076  0.1096 -0.1334
 1597W        W18444   2.412   7.325  14.960 -0.2118 -0.3909 -0.0105
 1598W        W18445  17.998  14.038  11.848 -0.2428 -0.0703  0.2454
 1599W        W18446  17.681   9.003  15.548 -0.1498  0.2198  0.0366
 1600W        W18447  10.322   9.715  14.929 -0.2996 -0.1198 -0.0639
 1601W        W18448   1.088   0.878  15.130 -0.2710  0.0040 -0.2221
 1602W        W18449   8.483   7.362  11.838  0.1413  0.3998  0.1541
 1603W        W18450  11.745   4.602   1.276  0.0798  0.1597 -0.0008
 1604W        W18451   1.014   5.947  16.354  0.0239 -0.0351 -0.1449
 1605W        W18452   4.540   4.675  13.811 -0.2453 -0.0242 -0.0286
 1606W        W18453  13.371   1.676  12.123 -0.2347 -0.1137  0.0657
 1607W        W18454   6.005  13.574  14.748 -0.1749 -0.3057 -0.0586
 1608W        W18455   8.090  12.182  11.444  0.0511 -0.1732 -0.0713
 1609W        W18456  14.689  17.438   1.374 -0.1507 -0.4545  0.1542
 1610W        W18457   7.173   6.466   3.554  0.0826  0.2902  0.0299
 1611W        W18458   9.618   3.964  11.460 -0.1691 -0.0477 -0.3057
 1612W        W18459  17.025   7.586  14.099 -0.1443 -0.0005  0.5084
 1613W        W18460  12.816   1.038   3.924 -0.2314 -0.1623 -0.0545
 1614W        W18461  16.882  17.700   1.457 -0.2508  0.5355  0.1140
 1615W        W18462  10.005   7.841  16.098  0.1256  0.0456  0.0396
 1616W        W18463  14.287  18.094   0.333  0.2668  0.2261 -0.0276
 1617W        W18464   5.917   2.159  15.601 -0.2666  0.1877  0.2403
 1618W        W18465  11.701   8.633  13.234  0.1746  0.0984 -0.1031
 1619W        W18466  12.854   0.433  12.680  0.0054 -0.1206 -0.3743
 1620W        W18467   8.592   1.063  14.923 -0.0453 -0.0236 -0.2056
 1621W        W18468   6.792  16.643   1.218  0.1916  0.0310 -0.1231
 1622W        W18469  12.986  11.034   5.443 -0.1324  0.0824 -0.1597
 1623W        W18470   8.062   9.605   2.794  0.3937 -0.1699 -0.0076
 1624W        W18471  14.399  12.121  13.278  0.0136 -0.0354 -0.0562
 1625W        W18472   1.151  15.414  11.522  0.0891  0.0184  0.1200
 1626W        W18473   5.189   0.724   2.718  0.0699 -0.3292  0.1244
 1627W        W18474  15.686   8.735  14.657  0.0703 -0.1477 -0.0600
 1628W        W18475   8.657  17.709  12.932 -0.0248  0.2551  0.0541
 1629W        W18476  12.861   2.380  15.577  0.3158  0.0713  0.0017
 1630W        W18477   4.535  16.669  15.202  0.3028  0.0322 -0.1452
 1631W        W18478   9.761   5.548   5.721  0.5086 -0.1422 -0.2420
 1632W        W18479   2.851   4.590  13.893  0.1622  0.2230 -0.0937
 1633W        W18480   0.842   4.794  13.490  0.0014 -0.0539 -0.1110
 1634W        W18481   8.103   5.316  13.610 -0.0150  0.0759  0.0605
 1635W        W18482   9.254  10.444   4.124  0.1774 -0.0911  0.1999
 1636W        W18483  14.098  14.116  12.138 -0.0662 -0.4473 -0.1660
 1637W        W18484   7.180  12.937  14.718  0.2437 -0.0182  0.0279
 1638W        W18485   2.972  11.968   2.441 -0.2981  0.0347 -0.1214
 1639W        W18486   5.628   7.389   4.235 -0.1334 -0.1575 -0.1293
 1640W        W18487  13.842   1.781   0.471 -0.0795 -0.1491  0.2508
 1641W        W18488   4.836   4.808  13.344  0.0519 -0.0594  0.1720
 1642W        W18489  11.863   7.563   5.215  0.0043 -0.1203  0.1226
 1643W        W18490  16.215   8.965   4.237 -0.0069 -0.0291  0.0863
 1644W        W18491  18.136   4.806   3.152 -0.1068  0.0479 -0.3667
 1645W        W18492   1.972   7.457  11.145 -0.1746  0.3133 -0.4727
 1646W        W18493   8.893   9.762  14.598  0.3000 -0.0651  0.1169
 1647W        W18494  13.309  16.467   2.589 -0.1005  0.1066  0.2272
 1648W        W18495   0.774  16.274   2.942  0.3342 -0.0594  0.0638
 1649W        W18496  10.990  16.722  11.774  0.0914  0.2581  0.0585
 1650W        W18497  10.222  17.370   1.021 -0.0240 -0.1181 -0.1907
 1651W        W18498  12.934  17.674  14.328 -0.0835  0.3222  0.0680
 1652W        W18499  17.488  17.285   1.638  0.1131  0.2020 -0.1048
 1653W        W18500  14.712   5.806  11.823  0.0177  0.3199  0.1961
 1654W        W18501  11.134  17.258   4.375  0.0855 -0.3095 -0.0109
 1655W        W18502   9.130   0.465  11.786  0.2168 -0.1907  0.0393
 1656W        W18503   1.730   8.692  11.670 -0.1527  0.0690  0.2268
 1657W        W18504   5.268  16.292   1.015 -0.0061 -0.3215  0.1107
 1658W        W18505   5.441   6.367   5.533 -0.1001 -0.1856  0.3010
 1659W        W18506  14.442  13.924  11.810  0.3358  0.0348 -0.2319
 1660W        W18507   4.777   8.696   5.596  0.2202 -0.1482  0.1538
 1661W        W18508  16.029   8.090  11.820 -0.1213  0.1951  0.2306
 1662W        W18509   4.224   9.202  15.430  0.3050  0.0211 -0.0031
 1663W        W18510  15.682   4.411   2.063 -0.2534 -0.0812  0.1974
 1664W        W18511  17.760   3.627  15.915  0.1091  0.1043 -0.1653
 1665W        W18512   7.631   1.806   3.136  0.4417 -0.1660 -0.0925
 1666W        W18513  15.537   6.054  13.371  0.0742  0.0400 -0.1056
 1667W        W18514  10.432  16.522  13.045  0.0017  0.1095 -0.2104
 1668W        W18515   4.734   6.952  12.117  0.0348  0.0974  0.2388
 1669W        W18516   4.585   6.280  15.553  0.0765  0.0473  0.0121
 1670W        W18517  15.170  12.425  14.221 -0.1152 -0.1813  0.2730
 1671W        W18518   8.788   6.553   5.515  0.0361 -0.1531  0.0940
 1672W        W18519  10.694   7.045   1.169  0.2269  0.1386  0.3078
 1673W        W18520   4.435   3.490   2.975  0.0255  0.0554  0.2087
 1674W        W18521   0.791   4.360  14.730 -0.3586 -0.0741  0.2369
 1675W        W18522   3.103  10.827  13.085  0.2754  0.0286  0.1232
 1676W        W18523   6.253  18.124  12.426 -0.0583  0.0442  0.0423
 1677W        W18524   9.562   2.789  15.040  0.2884  0.1041  0.1146
 1678W        W18525  11.376  14.143  15.713 -0.3622  0.1446  0.0040
 1679W        W18526   3.529  13.619   5.345  0.1857 -0.2105  0.0876
 1680W        W18527  17.052  12.434   2.715 -0.0998  0.3565  0.0595
 1681W        W18528   9.712   2.381  13.178  0.0160 -0.0270 -0.2628
 1682W        W18529   1.576   3.497  14.410  0.0968 -0.1247 -0.1438
 1683W        W18530   2.028   5.798   2.982  0.2333  0.1520 -0.0956
 1684W        W18531  16.961   4.027   2.888  0.0873 -0.1922 -0.0441
 1685W        W18532  15.114  11.272   5.502 -0.2087  0.2381  0.2312
 1686W        W18533   4.610  12.781  12.861 -0.1402  0.1255 -0.0830
 1687W        W18534   5.708   9.866   5.340  0.0985  0.1926 -0.3680
 1688W        W18535   5.179   6.837   3.485 -0.0186 -0.2263 -0.1681
 1689W        W18536   9.733   4.447   1.724 -0.1981 -0.0155  0.1800
 1690W        W18537   6.215   0.029   4.845  0.1331  0.2937 -0.1737
 1691W        W18538  11.431  11.178   3.326 -0.0279 -0.1938  0.0388
 1692W        W18539   6.242   5.788   4.643  0.1018  0.0217 -0.1634
 1693W        W18540  18.242   6.669   3.932 -0.4485 -0.2618 -0.0334
 1694W        W18541   6.824   0.337  14.695 -0.4277  0.1143  0.1138
 1695W        W18542  13.725  14.338  14.890  0.0127  0.1371  0.0435
 1696W        W18543   6.763  14.742  13.230 -0.1101 -0.1412 -0.2461
 1697W        W18544   8.723   0.518  12.991 -0.2191 -0.1654 -0.1206
 1698W        W18545   4.711   8.356  13.394 -0.0817 -0.3697 -0.1229
 1699W        W18546   1.328   2.219   4.951  0.2567  0.1579 -0.1433
 1700W        W18547  14.528  16.527  15.896  0.2317  0.1850 -0.0364
 1701W        W18548   4.114   6.480  13.920  0.0342 -0.1306  0.0075
 1702W        W18549  15.765   5.110  11.098 -0.0144  0.3511  0.0152
 1703W        W18550  10.168  18.010  12.409  0.0651 -0.2365 -0.0411
 1704W        W18551  16.532  15.711   4.398  0.1469  0.1225  0.1912
 1705W        W18552   4.174   6.742  14.907  0.0422 -0.0324 -0.0734
 1706W        W18553  12.918   1.856   1.263 -0.3737  0.0923  0.0767
 1707W        W18554   7.053   9.615  15.352 -0.1757  0.0446  0.0255
 1708W        W18555   6.531   8.151  15.822 -0.1842  0.0212  0.3378
 1709W        W18556  16.593   9.769  12.112  0.2183  0.1922 -0.0383
 1710W        W18557   5.932   9.652  11.718 -0.2235 -0.2341  0.0894
 1711W        W18558   0.558   9.728  11.922  0.0564 -0.2168 -0.1073
 1712W        W18559   2.694  17.715   3.061  0.2485 -0.0168 -0.1107
 1713W        W18560   1.705   7.294   0.970  0.4568 -0.0633 -0.1200
 1714W        W18561   3.275   7.931   4.457  0.0989  0.0909  0.0881
 1715W        W18562   9.367  13.821   1.993  0.0621  0.0068 -0.0590
 1716W        W18563  18.401   5.515   0.099 -0.0460 -0.0527 -0.2930
 1717W        W18564  13.254   7.533   3.617 -0.0395  0.3231 -0.1844
 1718W        W18565   2.579   3.344  12.623  0.1169 -0.0142 -0.2525
 1719W        W18566   0.844   4.988  15.414  0.0497 -0.0760 -0.2961
 1720W        W18567  14.427   4.045   3.684  0.0849  0.0324 -0.0223
 1721W        W18568  10.917   2.766   0.639 -0.1282 -0.0786  0.1008
 1722W        W18569   1.797   8.708   2.762  0.1138  0.1311 -0.0834
 1723W        W18570   9.357   3.128   5.902  0.1466  0.1848  0.1280
 1724W        W18571  12.553   9.641   2.616 -0.2191  0.4088  0.2323
 1725W        W18572  13.444   5.510   5.217  0.1882  0.1563  0.1334
 1726W        W18573  11.285   3.450   2.867  0.1913 -0.0018 -0.0052
 1727W        W18574  15.797  15.223   1.049  0.0642 -0.2470  0.2591
 1728W        W18575  11.959  15.453  14.230 -0.0566 -0.1505  0.2650
 1729W        W18576   1.203  11.685  15.039  0.0942 -0.1270 -0.0729
 1730W        W18577   8.913  18.095  13.102  0.2549  0.2174 -0.1113
 1731W        W18578  11.368   3.347  15.467 -0.2341  0.0053  0.0277
 1732W        W18579   2.858  15.139   3.057  0.1248 -0.3884 -0.0453
 1733W        W18580  15.084   6.008  14.613 -0.1577 -0.0125 -0.0414
 1734W        W18581  13.157   4.226  13.766  0.0709 -0.0824 -0.0915
 1735W        W18582   3.328   2.063  15.810  0.0796  0.0320 -0.2129
 1736W        W18583   4.155   8.327  14.677  0.3649  0.3495 -0.1310
 1737W        W18584   9.444  14.370  12.636 -0.1069 -0.3790  0.2415
 1738W        W18585  18.364  14.668   5.231 -0.0761 -0.0424 -0.0173
 1739W        W18586  17.800  15.668   1.350 -0.1615  0.1887 -0.0831
 1740W        W18587  18.280  13.431   5.174  0.0428 -0.1156 -0.4377
 1741W        W18588  14.786  15.713  12.120  0.0733 -0.0266  0.0219
 1742W        W18589  13.269   0.227   5.011 -0.0012  0.0065  0.1216
 1743W        W18590   6.606   8.992   4.599  0.3302  0.1405  0.1534
 1744W        W18591  16.618  12.844   1.288  0.0148  0.0344 -0.1283
 1745W        W18592  10.816   6.948   1.684 -0.0994 -0.2186 -0.0179
 1746W        W18593  16.416  17.535  16.179 -0.2472  0.4234  0.1653
 1747W        W18594  17.211  14.038   6.007 -0.1729 -0.3455 -0.2378
 1748W        W18595  13.286  12.276   4.270  0.1185  0.1708  0.2122
 1749W        W18596  14.719   9.707   2.741  0.0175 -0.1582  0.0600
 1750W        W18597   2.878   8.596  14.901 -0.3300  0.0046 -0.2488
 1751W        W18598  10.753   6.180  14.894 -0.0920 -0.0553 -0.3369
 1752W        W18599   1.529   8.866  15.498 -0.0233 -0.5379 -0.1975
 1753W        W18600  10.969  13.437   0.613 -0.0678  0.1732  0.2572
 1754W        W18601   6.134   2.237   0.169 -0.0355  0.1521  0.0755
 1755W        W18602  16.674  17.764   0.605 -0.0950  0.1800  0.0976
 1756W        W18603   6.140   9.792  13.495  0.0537  0.1064  0.3384
 1757W        W18604   9.103  14.853   0.548  0.0776  0.4158  0.1167
 1758W        W18605   1.351   5.471   3.651 -0.0958 -0.0305  0.0750
 1759W        W18606   3.340  11.256  11.863 -0.1949 -0.5713  0.3994
 1760W        W18607  10.819  17.858   4.384  0.3773 -0.0491  0.0901
 1761W        W18608  17.835   2.510  15.032 -0.1637 -0.0562  0.1121
 1762W        W18609   8.194  15.303   5.078 -0.0623 -0.0066 -0.0703
 1763W        W18610  11.448   4.115   0.062  0.1929 -0.1660 -0.3454
 1764W        W18611   0.036   7.392  13.912 -0.0626 -0.0496  0.0530
 1765W        W18612  12.698   6.709  14.394  0.0773  0.0058 -0.0006
 1766W        W18613   1.318   8.389   2.955 -0.1447 -0.0880  0.3032
 1767W        W18614  11.100   7.098  15.402  0.2265 -0.0468  0.0231
 1768W        W18615  17.013  16.021  13.407  0.0088 -0.2747  0.0537
 1769W        W18616  17.041   4.173  14.701 -0.1533 -0.1206  0.1876
 1770W        W18617   0.927   5.619  12.968 -0.1504  0.3130  0.2895
 1771W        W18618  17.061   7.900  12.216 -0.0902  0.0372 -0.2287
 1772W        W18619   0.460   0.580  12.020  0.0795 -0.0762  0.1391
 1773W        W18620   1.680  17.385  14.125  0.0429  0.0604  0.0530
 1774W        W18621  13.754   0.187  14.452 -0.1939  0.0612  0.0321
 1775W        W18622  16.205   9.805   1.324  0.1121  0.3842 -0.1794
 1776W        W18623  12.460  12.510   3.561 -0.0656  0.0582  0.0635
 1777W        W18624  10.592  15.896   0.870 -0.0285 -0.1601  0.0431
 1778W        W18625  17.018  14.379   6.324  0.0184  0.0243  0.2494
 1779W        W18626  14.262   3.209   4.425  0.0707 -0.1193  0.0976
 1780W        W18627  17.319   7.448   0.462  0.2155 -0.4060 -0.1472
 1781W        W18628  13.923  15.680   3.924  0.1683 -0.0377  0.0442
 1782W        W18629  11.789   9.329  12.049 -0.0758 -0.1392 -0.1767
 1783W        W18630   7.916  17.605   5.747 -0.0368 -0.1452  0.1664
 1784W        W18631   7.599   9.836   5.323  0.3090  0.0793  0.0890
 1785W        W18632   2.918   9.940  15.891 -0.1880  0.1322  0.1634
 1786W        W18633  16.891   7.425   5.079  0.0867 -0.2354 -0.2108
 1787W        W18634  17.976   8.100  15.829  0.1560 -0.0396  0.4953
 1788W        W18635  14.717   7.459   2.533  0.0682  0.1371 -0.3285
 1789W        W18636   4.596  13.455   1.146 -0.2474 -0.0421 -0.1205
 1790W        W18637   3.184   2.394  13.408 -0.2334 -0.2683 -0.0317
 1791W        W18638   1.184  13.816  13.567 -0.1833 -0.0697  0.0882
 1792W        W18639  17.489  16.912   1.338 -0.1127  0.1191 -0.1711
 1793W        W18640   2.806   6.513   5.660  0.2298  0.1080  0.2171
 1794W        W18641  10.081  11.171  16.263  0.1870 -0.3118 -0.1183
 1795W        W18642   4.189  18.284  15.167 -0.2146 -0.2076  0.0222
 1796W        W18643  16.650   2.678  14.457  0.1719 -0.2038  0.1736
 1797W        W18644  15.217  11.886  11.453 -0.3497  0.0387 -0.3764
 1798W        W18645  18.301  12.551   0.753 -0.0476  0.0222  0.0842
 1799W        W18646   5.773  14.333   5.271 -0.0974 -0.1036  0.2906
 1800W        W18647  14.085   4.445   4.752 -0.0070  0.2363  0.0461
 1801W        W18648   1.329  12.863  14.145  0.0868 -0.1603  0.2249
 1802W        W18649   8.651  16.248   1.704  0.0262  0.1324 -0.1781
 1803W        W18650   8.208   6.887  13.281  0.3934 -0.0062  0.3922
 1804W        W18651   0.737   1.480   0.419 -0.0441  0.2890 -0.0752
 1805W        W18652   2.905   2.158   0.371 -0.1198 -0.1511 -0.0495
 1806W        W18653   9.506  10.459  12.753 -0.0866 -0.0706 -0.2866
 1807W        W18654   9.890  13.318   4.280 -0.1418  0.1375  0.1273
 1808W        W18655  15.287  15.380  15.703  0.2166  0.0801 -0.0910
 1809W        W18656   5.654   5.638   4.426 -0.1742  0.2000 -0.2831
 1810W        W18657  13.207   3.171   3.526  0.3328  0.1676  0.1532
 1811W        W18658   3.687   8.914   1.937  0.0678 -0.1496 -0.1428
 1812W        W18659  12.298   1.547   4.715 -0.3415 -0.1457 -0.1054
 1813W        W18660  12.392  14.938  13.674  0.1104 -0.0573  0.2972
 1814W        W18661  18.091   4.030   4.221  0.0369 -0.1470  0.4481
 1815W        W18662  16.040  18.134   3.185  0.1933  0.2155  0.0563
 1816W        W18663   9.318  10.915   1.597 -0.3996 -0.0788  0.3118
 1817W        W18664   1.132   9.535  14.440 -0.1754 -0.1156  0.1550
 1818W        W18665   4.362  15.366   1.351  0.2088 -0.1219 -0.2099
 1819W        W18666   9.101   4.800   6.218 -0.5140  0.1929  0.2315
 1820W        W18667  14.637  10.222  12.805 -0.0213 -0.3115 -0.1343
 1821W        W18668  16.909   8.788   1.671  0.1061  0.0132  0.1375
 1822W        W18669  16.496   2.269   5.220 -0.2033  0.2730 -0.3896
 1823W        W18670   3.801  14.127   3.450  0.0614 -0.0121 -0.0360
 1824W        W18671  14.499  11.110  15.903 -0.2477  0.0484 -0.1393
 1825W        W18672   3.139   8.444  15.377  0.2340 -0.2374  0.2608
 1826W        W18673   4.715   7.408   2.518  0.0024  0.1049  0.0454
 1827W        W18674  10.167  10.474  10.530  0.0817 -0.1802 -0.1458
 1828W        W18675  14.324  16.299  15.429 -0.0797 -0.0534 -0.1324
 1829W        W18676   6.605  12.261  15.856 -0.2653  0.2278  0.1256
 1830W        W18677  15.064   0.126   1.631  0.1409 -0.1464 -0.1154
 1831W        W18678  11.818   8.804  14.277  0.3981 -0.0435 -0.1628
 1832W        W18679  12.592  13.874  13.500 -0.1799 -0.0213  0.3050
 1833W        W18680  17.639  17.703   0.789  0.1406 -0.0019 -0.0321
 1834W        W18681   2.567  16.439   5.013  0.0600  0.4897 -0.0780
 1835W        W18682  11.983  18.133   1.568  0.4123  0.2144  0.0626
 1836W        W18683  10.509  18.050   1.717  0.1159 -0.2906  0.1264
 1837W        W18684  16.021  13.364  15.422 -0.2841 -0.0252  0.1825
 1838W        W18685   5.189   1.487  13.738 -0.0186 -0.2692 -0.2095
 1839W        W18686   5.378  18.004  11.535 -0.2202  0.2656  0.0386
 1840W        W18687  17.558   3.019   2.103 -0.1550 -0.0696  0.2793
 1841W        W18688  15.555   2.194   0.735 -0.0680 -0.1171 -0.1852
 1842W        W18689  11.622   3.771  12.760  0.1094 -0.0171 -0.0102
 1843W        W18690  10.556   2.614   3.085 -0.3497  0.0796  0.0453
 1844W        W18691   7.912  16.495   1.914  0.2486 -0.1333 -0.0157
 1845W        W18692   9.408  10.547  16.161  0.2093  0.0027 -0.1592
 1846W        W18693   9.097  15.200   1.462 -0.0191  0.0519 -0.1515
 1847W        W18694   0.978  18.334  14.488 -0.0159  0.1173  0.7038
 1848W        W18695   4.032  12.152  14.509  0.0455 -0.2039  0.0773
 1849W        W18696   2.517  17.900  11.679 -0.1432  0.2827 -0.0803
 1850W        W18697   6.363   5.778  13.584 -0.2559  0.3466  0.1169
 1851W        W18698   2.442  12.501   1.475  0.0703  0.2572  0.3973
 1852W        W18699  13.461   0.985   5.595  0.2026 -0.1242 -0.2074
 1853W        W18700  15.899  14.022   2.639  0.1128 -0.1387 -0.0091
 1854W        W18701   6.950  16.704  12.310 -0.2249  0.1985 -0.3403
 1855W        W18702  15.760  14.739  13.549  0.0321 -0.0409 -0.0972
 1856W        W18703  11.149  13.186  15.578 -0.1288 -0.0229 -0.0895
 1857W        W18704  10.783   1.868   1.128 -0.0598 -0.1935 -0.1744
 1858W        W18705  11.861  16.029  14.817  0.3501  0.1015  0.2052
 1859W        W18706   5.449  17.987   0.824 -0.4435 -0.1568  0.1223
 1860W        W18707   7.738  10.126  15.691 -0.1230  0.2101 -0.1096
 1861W        W18708  16.176   0.236   2.233 -0.1212 -0.2044  0.0093
 1862W        W18709  14.420  16.315  13.581 -0.5118  0.4245  0.2122
 1863W        W18710   3.685  16.926  13.593 -0.3236  0.1253 -0.0874
 1864W        W18711   9.170  16.427   1.681  0.0297  0.0765 -0.1934
 1865W        W18712  10.364   8.127  11.401  0.1586 -0.1700 -0.2460
 1866W        W18713   3.307   8.341  16.243 -0.0900 -0.0501 -0.2141
 1867W        W18714   6.496  17.547  15.151 -0.1721 -0.1263  0.1036
 1868W        W18715   3.123   0.370   3.874 -0.0000 -0.0597 -0.1528
 1869W        W18716  17.515   9.154   4.172  0.1038 -0.0028 -0.1514
 1870W        W18717  10.382   1.200  13.233  0.4427 -0.1390 -0.0798
 1871W        W18718  17.224  10.711  14.006 -0.0171  0.1193 -0.0495
 1872W        W18719   1.116   5.972  11.034  0.2138 -0.3632  0.2350
 1873W        W18720  15.332   3.328   0.521  0.0065 -0.0261  0.0277
 1874W        W18721   0.096  13.137  16.191  0.1428  0.4759 -0.2413
 1875W        W18722  13.426   4.004   1.304 -0.1581  0.1773 -0.2176
 1876W        W18723  10.797   8.925  12.013  0.2747 -0.0806  0.0716
 1877W        W18724   1.428   9.281   5.778  0.3086  0.0231  0.1137
 1878W        W18725   7.201   4.210  15.952 -0.0788 -0.2169 -0.3457
 1879W        W18726  11.925   2.111  11.412  0.2576 -0.0885  0.1886
 1880W        W18727   2.187  13.722   1.170  0.2338 -0.0081  0.0300
 1881W        W18728  12.167   0.655   2.858  0.2624 -0.1513  0.0146
 1882W        W18729  17.453   1.718   3.360  0.4445 -0.1893  0.1554
 1883W        W18730   8.603  12.133   2.073 -0.2284 -0.1159 -0.1156
 1884W        W18731  15.330  15.055   3.592 -0.1199 -0.0610  0.1192
 1885W        W18732   4.928  10.011   5.299  0.1978 -0.0117  0.1458
 1886W        W18733   5.781   7.197   4.740  0.2515  0.1170 -0.0769
 1887W        W18734  10.740   6.844  12.536 -0.2490  0.0637 -0.0043
 1888W        W18735  11.647   3.320   4.388  0.2424  0.0419 -0.3073
 1889W        W18736   4.134   3.650  11.795  0.0913 -0.2378  0.1241
 1890W        W18737   2.490   3.549   5.579 -0.1651 -0.1838  0.3034
 1891W        W18738   6.274   8.489   1.237 -0.1890  0.1473 -0.0370
 1892W        W18739   2.238   2.462  13.818 -0.0681 -0.0884 -0.1408
 1893W        W18740   0.987   6.538   2.823  0.5127 -0.0306  0.1308
 1894W        W18741  18.166   6.378   4.331  0.3086 -0.0778 -0.0776
 1895W        W18742   6.905   3.310  12.185 -0.2959  0.1454 -0.0883
 1896W        W18743   8.287  13.642  12.739 -0.1474 -0.3086  0.0680
 1897W        W18744   6.850   3.718   1.519  0.1523 -0.4916  0.0776
 1898W        W18745  11.191  17.087  14.476 -0.2245 -0.0693 -0.0266
 1899W        W18746   7.576   5.518  13.877  0.5021  0.1560  0.0443
 1900W        W18747  10.793  15.274   0.121  0.0739 -0.0444 -0.0471
 1901W        W18748   9.475   1.564  13.710 -0.3111  0.1768 -0.1252
 1902W        W18749  12.169  11.601   2.712 -0.0705  0.2149 -0.0183
 1903W        W18750   9.462  14.704  13.534 -0.0425 -0.0391 -0.3391
 1904W        W18751  11.356  14.207   3.353  0.0437  0.1011 -0.1471
 1905W        W18752  13.946   0.332   2.599 -0.0876 -0.1471  0.0759
 1906W        W18753  10.521   5.130   4.870 -0.0946  0.0169  0.2880
 1907W        W18754   4.205  10.776   3.482 -0.1188  0.1299 -0.3089
 1908W        W18755   1.319   0.218  12.738  0.0327 -0.1704 -0.2763
 1909W        W18756  15.500  17.389   0.415 -0.1094 -0.0443  0.2109
 1910W        W18757  12.524   3.969  11.610  0.1222 -0.2559  0.1524
 1911W        W18758   0.405   2.720   1.289 -0.1472 -0.1500 -0.3483
 1912W        W18759  17.536   0.359   1.644 -0.0486 -0.1307  0.1746
 1913W        W18760   8.769   6.614  15.170 -0.1357  0.1521  0.0736
 1914W        W18761  15.737   1.696   3.750 -0.1488 -0.0644 -0.0483
 1915W        W18762   8.001  16.139  15.499 -0.0258  0.0789  0.0018
 1916W        W18763   1.779   3.369  15.070 -0.1299 -0.3519  0.1076
 1917W        W18764   7.951  10.620   1.201 -0.1726 -0.3283  0.0574
 1918W        W18765   7.032  12.151  12.222 -0.0242  0.0728 -0.4656
 1919W        W18766   7.921   9.293   1.415  0.2932  0.1034  0.0026
 1920W        W18767  14.364   4.266  11.396  0.0669 -0.0227  0.3058
 1921W        W18768  15.988   4.678  12.946  0.2627 -0.0399  0.0114
 1922W        W18769   6.783   1.211   1.548  0.1952 -0.0274  0.1044
 1923W        W18770   4.449  17.193   3.156  0.0386 -0.3751 -0.4358
 1924W        W18771   9.488   0.436   2.489 -0.0294  0.2914 -0.1162
 1925W        W18772   9.277  10.744   4.491 -0.0207  0.1798  0.0519
 1926W        W18773  17.480  11.081   5.324 -0.5257  0.0241  0.2337
 1927W        W18774   6.822  15.862   2.024 -0.0441 -0.0455  0.2225
 1928W        W18775  17.527   4.367   1.653 -0.3487  0.2096 -0.0766
 1929W        W18776   6.069  13.273   4.273  0.0984 -0.1167  0.1357
 1930W        W18777   5.372   8.892  15.004  0.2226 -0.1358  0.1355
 1931W        W18778   4.176  16.696   3.382  0.0822  0.3820 -0.0508
 1932W        W18779  10.626   5.712   5.884  0.0843 -0.1278  0.3999
 1933W        W18780   6.862   9.000   1.570 -0.1373  0.3094 -0.1131
 1934W        W18781  11.593   9.546  15.058  0.0493 -0.2394 -0.2629
 1935W        W18782   6.536  17.766  11.527 -0.0729  0.0305  0.0984
 1936W        W18783  16.505  15.048  11.998 -0.1888 -0.2671 -0.2733
 1937W        W18784  15.060   4.018   2.042  0.0249 -0.1903 -0.1466
 1938W        W18785   3.623   9.695  12.564  0.1305 -0.0642  0.0390
 1939W        W18786  12.519  16.692  12.473 -0.1085 -0.2369  0.1970
 1940W        W18787   0.194   5.439   0.598 -0.1087 -0.0221  0.0182
 1941W        W18788  14.124   9.468  16.374  0.1941 -0.2211  0.1322
 1942W        W18789   5.917   3.345  12.745  0.0782 -0.0606  0.1806
 1943W        W18790  17.240   7.585   4.707  0.0684  0.1082 -0.2419
 1944W        W18791   7.960   4.496   2.852 -0.1639 -0.1928 -0.1266
 1945W        W18792  16.957  10.144   0.082 -0.0959 -0.3120  0.0422
 1946W        W18793   2.921   2.874  12.086  0.2841 -0.3401  0.1281
 1947W        W18794   4.146  10.410  13.105 -0.0635 -0.0175  0.4022
 1948W        W18795   5.747  12.353   3.276 -0.0841 -0.0539  0.3299
 1949W        W18796  10.773   0.792  14.519 -0.1453 -0.3010  0.0724
 1950W        W18797  16.796   3.678   5.406 -0.0237 -0.4070 -0.1763
 1951W        W18798   8.878   4.365   2.610  0.0675  0.2706  0.1173
 1952W        W18799  10.914  11.005   2.584  0.0133 -0.0832 -0.0571
 1953W        W18800  10.034   1.602   0.506  0.1838 -0.0494  0.1548
 1954W        W18801   5.689  14.237   1.438  0.0181 -0.3543 -0.1262
 1955W        W18802  13.708   9.108   1.453  0.0372  0.2744  0.0119
 1956W        W18803  11.866   0.202   5.202  0.0429  0.2789  0.0275
 1957W        W18804  18.015   4.296  14.627 -0.1284  0.2149 -0.0788
 1958W        W18805  10.187  13.747  11.691 -0.0067 -0.1782  0.3388
 1959W        W18806   2.747  14.927  15.495  0.1048  0.2466 -0.2858
 1960W        W18807  11.280  17.946   4.059 -0.1102  0.1486 -0.0402
 1961W        W18808  10.302  11.110   2.471 -0.0250 -0.0139  0.2499
 1962W        W18809  16.919   4.083  15.664  0.0555 -0.1380  0.2752
 1963W        W18810  13.875   0.879   5.003 -0.3496 -0.0654  0.0976
 1964W        W18811  12.535  17.775   3.809 -0.3923  0.1477  0.1377
 1965W        W18812  10.721   4.583  15.107 -0.2091 -0.2378 -0.6285
 1966W        W18813   1.487  16.995  14.370 -0.0782 -0.2204 -0.2801
 1967W        W18814  14.056   7.008  14.137 -0.0201 -0.0808 -0.0011
 1968W        W18815   3.204   6.258  14.092  0.2139 -0.1577 -0.0865
 1969W        W18816   4.438   1.295  11.931 -0.5815 -0.1724 -0.1564
 1970W        W18817   7.673   4.313  16.266  0.1188 -0.1039  0.4267
 1971W        W18818  13.597   4.053  13.529  0.0786  0.0803 -0.4357
 1972W        W18819   5.629   0.988   1.159 -0.0297  0.0846 -0.0776
 1973W        W18820  13.212   9.409   1.274  0.3446 -0.1326 -0.1920
 1974W        W18821   3.479   5.331  11.560 -0.2110  0.0820  0.0508
 1975W        W18822   0.546  13.154  12.521 -0.1352  0.0041 -0.0056
 1976W        W18823   1.001   3.810   4.414  0.2327  0.1830  0.3092
 1977W        W18824  10.755   9.886  14.780  0.0573 -0.0945  0.0523
 1978W        W18825   5.764   8.519  13.055 -0.0588  0.2662  0.1090
 1979W        W18826   6.998  17.308  15.795 -0.1633  0.2341 -0.0353
 1980W        W18827   4.626   0.648  14.749  0.0699 -0.2329  0.3283
 1981W        W18828  13.858   1.848  15.181 -0.0249  0.2080 -0.1196
 1982W        W18829  13.907  14.705   4.033  0.0432  0.1664 -0.2023
 1983W        W18830  15.060   5.977  12.122  0.1561 -0.3072  0.4046
 1984W        W18831   9.807   7.636   0.370  0.1804  0.0313 -0.0039
 1985W        W18832  14.489   7.111  11.093  0.1494 -0.2093  0.2340
 1986W        W18833  12.276  17.762  13.229 -0.2938 -0.0100 -0.3053
 1987W        W18834  17.868  12.153  12.313 -0.0824  0.0986 -0.2715
 1988W        W18835   5.487   1.678   2.159  0.1912 -0.0086  0.2623
 1989W        W18836   7.366   7.995   5.557  0.2188 -0.2181 -0.1215
 1990W        W18837   2.535   2.212   3.609 -0.1597  0.5097 -0.2320
 1991W        W18838  13.753   5.567  15.234  0.3471 -0.0498  0.0059
 1992W        W18839  11.525   4.083  14.658 -0.0461  0.2373 -0.1039
 1993W        W18840   5.521  10.613   1.774  0.1122 -0.1598 -0.3934
 1994W        W18841   1.487   5.528  12.655  0.0261 -0.3722 -0.3399
 1995W        W18842   3.682  11.364  13.766 -0.0895  0.2700  0.1755
 1996W        W18843   7.754   9.086   0.141  0.1209 -0.2710 -0.4328
 1997W        W18844  17.988  18.317   3.160  0.1474  0.2602 -0.1973
 1998W        W18845   6.604   1.348  11.551 -0.2492  0.0509 -0.1135
 1999W        W18846  15.526   8.384   3.877  0.1048 -0.2297  0.0807
 2000W        W18847   8.494  13.609  15.499 -0.0826  0.1045  0.1426
 2001W        W18848   5.102  16.138   3.175 -0.5030 -0.0210  0.0685
 2002W        W18849  12.570  15.534  12.970  0.0218  0.0778 -0.3504
 2003W        W18850   7.925   7.693   0.304 -0.3916 -0.0076  0.1958
 2004W        W18851   0.496   8.937  13.610 -0.0908  0.0626  0.2716
 2005W        W18852   4.860   8.723  12.321  0.1428  0.0295 -0.1603
 2006W        W18853  14.249  12.894   2.595 -0.0101  0.2217 -0.0770
 2007W        W18854   9.561  15.703   3.372 -0.3273  0.2468  0.0274
 2008W        W18855  15.073  12.227   1.034  0.0708  0.2093 -0.1209
 2009W        W18856  16.026  17.901   1.139 -0.2756  0.3339 -0.0088
 2010W        W18857   4.409  16.405  11.985  0.0032 -0.0821  0.1306
 2011W        W18858  10.529   7.949   4.966 -0.2175 -0.1033 -0.2426
 2012W        W18859  14.743  11.894   3.639 -0.1499  0.1009  0.1062
 2013W        W18860   0.481  10.723  16.069 -0.0122  0.0487 -0.0357
 2014W        W18861   6.982  18.272   1.429  0.0820 -0.0312 -0.1944
 2015W        W18862  14.160   8.522   5.242 -0.1713  0.2977  0.0365
 2016W        W18863  17.658   6.210  12.656  0.0080 -0.0218 -0.3592
 2017W        W18864  15.850   0.884   4.071 -0.2761 -0.3869 -0.0925
 2018W        W18865  16.660  14.727   4.494 -0.0955  0.2419  0.2763
 2019W        W18866  11.647   2.508   1.254  0.1780 -0.3215  0.0977
 2020W        W18867  15.820   4.495  14.259 -0.0415  0.1948 -0.1075
 2021W        W18868   4.888   1.286   0.271 -0.1994  0.0396  0.0055
 2022W        W18869  10.390  15.735   3.523 -0.2131 -0.1530  0.1661
 2023W        W18870  14.874  15.457   2.136 -0.1373  0.2300  0.1763
 2024W        W18871  13.383  17.514   2.518 -0.1845  0.1483 -0.1647
 2025W        W18872   9.410  10.963  13.094  0.0343  0.1273  0.0302
 2026W        W18873  18.322  13.981   4.352  0.0934 -0.0628 -0.2762
 2027W        W18874  13.949  13.456   0.073 -0.0003  0.1033  0.1374
 2028W        W18875   0.662  14.718   3.035  0.2148 -0.3109  0.0191
 2029W        W18876  10.064  14.600  12.144 -0.1624 -0.1589  0.2640
 2030W        W18877   8.523   5.238   4.676 -0.0942  0.2959 -0.2232
 2031W        W18878  11.624  11.451   1.447 -0.2582 -0.0103 -0.2744
 2032W        W18879  13.434  13.225   2.147 -0.5351  0.2666  0.0570
 2033W        W18880  16.551   1.295  10.865  0.3069  0.0979  0.0871
 2034W        W18881   2.529   8.109  14.841 -0.0096  0.4343  0.0615
 2035W        W18882   3.892   4.138   3.381 -0.0400  0.2094 -0.0238
 2036W        W18883   5.969  13.346   5.491  0.2448  0.0597  0.0337
 2037W        W18884  13.447   7.787   4.772 -0.1534 -0.1402  0.3137
 2038W        W18885   9.704   7.329   2.090 -0.0039 -0.1256  0.0099
 2039W        W18886  12.392   5.224  13.428  0.0365 -0.0424  0.3375
 2040W        W18887  14.461   5.212   4.272  0.0746 -0.0114 -0.2831
 2041W        W18888  17.750  13.248   0.541 -0.0103 -0.1042 -0.1208
 2042W        W18889  18.403   0.382   5.620 -0.0876 -0.2412 -0.1394
 2043W        W18890   1.803  16.612  12.142 -0.1283 -0.1425  0.0657
 2044W        W18891   6.123  14.014   4.822 -0.1138 -0.4496 -0.2549
 2045W        W18892  15.515   2.562  13.344  0.1248 -0.0325  0.0066
 2046W        W18893  10.149   4.037   2.379 -0.1273 -0.0070 -0.1676
 2047W        W18894   0.851   9.745   1.552 -0.1511 -0.1117  0.0527
 2048W        W18895   7.121   8.168  15.773  0.1212 -0.2755  0.2816
 2049W        W18896   2.793   2.161  14.629 -0.0189 -0.2105 -0.2078
 2050W        W18897  10.892   1.832   2.700 -0.4748 -0.0427  0.0249
 2051W        W18898   4.351   6.446  16.360  0.0133  0.1614  0.0757
 2052W        W18899  17.561  17.941   2.773  0.1912 -0.1101  0.0358
 2053W        W18900   1.231  18.113  15.953  0.1965 -0.3659 -0.0904
 2054W        W18901   0.008   9.080   5.159 -0.0834 -0.4572 -0.0699
 2055W        W18902   1.454   3.748  12.287  0.0952  0.0476 -0.2713
 2056W        W18903   0.414   4.787   1.233 -0.3852  0.0542  0.1637
 2057W        W18904   2.257   8.825   2.994  0.0769  0.1768 -0.0131
 2058W        W18905  14.797   6.885   1.688  0.0328  0.1581 -0.1848
 2059W        W18906  18.292   7.632   1.632 -0.1204  0.2061 -0.2179
 2060W        W18907   5.650  11.176   2.890  0.0490 -0.1405 -0.1126
 2061W        W18908   8.070   6.129  12.026  0.2400  0.0685 -0.1079
 2062W        W18909  10.220  14.005   2.371  0.3027  0.0391  0.1668
 2063W        W18910   1.415  13.157   4.552 -0.2766 -0.2187  0.1673
 2064W        W18911   4.181   1.694   2.035 -0.1089  0.2383 -0.2413
 2065W        W18912   9.272  14.330   4.125  0.0335 -0.0703 -0.1578
 2066W        W18913   9.118  17.747  12.805 -0.0794  0.0011  0.0509
 2067W        W18914   1.684   4.057  15.192  0.0228 -0.2062 -0.1072
 2068W        W18915   9.675  13.808  12.621 -0.1724 -0.0103 -0.0964
 2069W        W18916  10.677  12.004   5.192  0.3699 -0.3085  0.3360
 2070W        W18917  16.500   9.557   5.024  0.2172  0.1146  0.2233
 2071W        W18918  10.415  16.044   2.206 -0.1169  0.0458  0.4106
 2072W        W18919   3.175   1.367   5.084 -0.2813 -0.1803 -0.1705
 2073W        W18920   9.998  14.916  11.327 -0.0949  0.1070 -0.2286
 2074W        W18921  10.978   4.799  13.661  0.1795  0.1541  0.0578
 2075W        W18922   5.230   0.292   4.921 -0.3393 -0.1330  0.0420
 2076W        W18923  17.061   7.193  15.635  0.1739 -0.0676 -0.1443
 2077W        W18924  12.055  11.547   4.051 -0.0216  0.0050  0.1625
 2078W        W18925   5.034   9.537  14.656 -0.3362  0.0557  0.0040
 2079W        W18926   3.855   6.815   3.279  0.3858 -0.0192  0.0505
 2080W        W18927   5.833   2.874  12.908  0.2661  0.1279  0.3308
 2081W        W18928  10.144  10.539  15.481 -0.1731 -0.0475  0.2098
 2082W        W18929   6.766   9.246   5.358 -0.1615 -0.2071  0.0401
 2083W        W18930   9.163  12.607   5.634 -0.0535  0.2780 -0.0123
 2084W        W18931   3.829  15.684  12.166  0.0542 -0.0690  0.1444
 2085W        W18932  10.855   0.243   4.691  0.3248 -0.0165 -0.1101
 2086W        W18933   7.896   1.374  12.728 -0.2930  0.0709 -0.1308
 2087W        W18934  18.411   1.489  13.121  0.0587 -0.0576 -0.2681
 2088W        W18935   5.694  10.091   0.210  0.1116  0.1081 -0.0211
 2089W        W18936   0.551   4.610  15.505 -0.3195 -0.1002  0.3777
 2090W        W18937   5.834   4.044  12.063 -0.0695 -0.1181 -0.4037
 2091W        W18938  10.580  14.185   2.709  0.2174  0.2046 -0.0113
 2092W        W18939  18.365   4.352  15.854  0.2389 -0.2054 -0.0959
 2093W        W18940   8.973   7.772  14.346 -0.2759 -0.2358  0.0615
 2094W        W18941  11.200   7.494  12.838  0.4153 -0.2277  0.0873
 2095W        W18942   1.374   4.572   3.752 -0.0645  0.2695  0.3210
 2096W        W18943  17.260   1.524  16.358 -0.2999 -0.2847  0.1442
 2097W        W18944  13.278   3.117  15.343 -0.0565 -0.1068 -0.0072
 2098W        W18945   1.918   9.234  11.624  0.2156 -0.0436  0.1283
 2099W        W18946  13.796   0.959  15.116  0.0728 -0.3097  0.1810
 2100W        W18947  18.046   2.406  12.659  0.3483 -0.2898 -0.3259
 2101W        W18948  13.945  14.296   3.302 -0.0843  0.1084  0.1646
 2102W        W18949  17.147   8.700   0.287 -0.1824 -0.0592 -0.1200
 2103W        W18950  10.609   2.147   3.817 -0.1643 -0.2428  0.1960
 2104W        W18951   2.326  15.683  15.486  0.0997  0.0235  0.1068
 2105W        W18952  10.167  14.201   1.615 -0.1359  0.0319  0.0142
 2106W        W18953  14.682  10.589   4.568  0.2455 -0.0661 -0.4040
 2107W        W18954  16.579  14.221  12.052 -0.0510 -0.0813  0.0139
 2108W        W18955   8.189   8.323  15.342  0.1899 -0.0593  0.0156
 2109W        W18956   6.606  11.754  15.133  0.1662  0.0116 -0.1380
 2110W        W18957   4.364  11.268  15.825 -0.2580 -0.3164  0.1094
 2111W        W18958   2.104   4.117  11.103  0.0439  0.0179  0.3215
 2112W        W18959   4.049  11.210   1.125  0.0601 -0.0582  0.0101
 2113W        W18960  18.063  17.707   1.547  0.2550 -0.0635 -0.1005
 2114W        W18961   0.555   4.182  15.129 -0.0395  0.0800  0.2790
 2115W        W18962   8.838   1.881  15.251  0.0848  0.0419 -0.3717
 2116W        W18963   4.414   7.636   0.634 -0.1217  0.1074  0.1577
 2117W        W18964  17.614  11.539   2.048 -0.0413  0.0041 -0.0460
 2118W        W18965   0.831  16.510  13.742 -0.0838  0.0153 -0.1225
 2119W        W18966  17.359   7.702   2.448 -0.0140  0.0565  0.0324
 2120W        W18967  16.610   5.846   3.621  0.0749 -0.1236 -0.1264
 2121W        W18968  12.590   0.798  12.561  0.2485 -0.0156 -0.1867
 2122W        W18969   7.762  16.708   3.259  0.2254  0.2237 -0.0878
 2123W        W18970   1.169   4.974   5.049  0.0825 -0.4860 -0.1229
 2124W        W18971   4.364   2.845  10.070 -0.0478 -0.1385 -0.0445
 2125W        W18972   8.280  14.608  11.942  0.0272 -0.0670  0.1234
 2126W        W18973   9.512  14.674   4.464  0.0669  0.1279  0.0429
 2127W        W18974   1.242   7.458   4.300 -0.3696 -0.3898 -0.2769
 2128W        W18975  10.672  15.899   1.755  0.2422  0.0145  0.0753
 2129W        W18976  17.003   7.572  11.765 -0.2607  0.1356 -0.3468
 2130W        W18977  11.017   5.723   1.760  0.1713  0.0509 -0.0888
 2131W        W18978   4.199  18.375  13.797  0.1108 -0.0117  0.3693
 2132W        W18979   7.875   7.051   0.811  0.3321 -0.0325 -0.1565
 2133W        W18980   4.858  11.461  12.216  0.2168  0.1044  0.0099
 2134W        W18981  12.102   8.056  12.111  0.0317  0.1571 -0.0309
 2135W        W18982   2.275   3.089   3.109 -0.1250  0.1691  0.0177
 2136W        W18983   6.540  11.736   3.539  0.1603 -0.0454  0.1391
 2137W        W18984   3.519  10.869  11.491 -0.4377  0.1130 -0.1019
 2138W        W18985   8.163   6.631   1.693  0.0534  0.1999  0.0662
 2139W        W18986  16.863   1.286   2.391  0.0323  0.2262 -0.1116
 2140W        W18987  10.565  13.814   4.763 -0.1513  0.2859 -0.1030
 2141W        W18988   6.976  17.303   0.013 -0.0756  0.2922 -0.1045
 2142W        W18989   0.168   6.463   4.561  0.0115  0.3385 -0.0955
 2143W        W18990   9.782   7.622  13.386  0.1900  0.1698 -0.2113
 2144W        W18991  14.663  10.736  11.100 -0.0308 -0.0756 -0.2480
 2145W        W18992  12.796  13.431   2.720  0.2721  0.0096 -0.1064
 2146W        W18993  17.001  10.309  11.229 -0.0520 -0.0815  0.0750
 2147W        W18994  14.645   3.516   4.413 -0.2033  0.2294 -0.0514
 2148W        W18995   0.310  17.515   3.959 -0.0521 -0.1240  0.2021
 2149W        W18996   9.538   3.492   0.719 -0.4624  0.1029  0.0381
 2150W        W18997  14.409  10.720  16.234 -0.0315  0.0823 -0.0094
 2151W        W18998  13.435  13.867   1.918 -0.0905 -0.4424 -0.2624
 2152W        W18999  14.148  16.154  14.030  0.2935  0.1431  0.1449
 2153W        W19000  16.017  11.522  12.657 -0.0364  0.1876  0.4917
 2154W        W19001   3.519  16.727   5.162  0.2192 -0.1044  0.1739
 2155W        W19002  17.311   1.097   5.063  0.3241  0.2551 -0.0361
 2156W        W19003  10.017   6.778   0.102 -0.1954  0.2387 -0.0690
 2157W        W19004  11.153  18.105  14.209 -0.2838  0.2134  0.2597
 2158W        W19005  14.437  10.548  14.835 -0.0167 -0.1406  0.0047
 2159W        W19006  10.044  11.436   0.644  0.2326  0.3816 -0.1731
 2160W        W19007   3.118   7.702  13.167  0.0717 -0.0404 -0.1015
 2161W        W19008  16.956  10.559  15.921 -0.2113 -0.0955 -0.0316
 2162W        W19009  10.701  12.759  11.971  0.2851  0.1913  0.3265
 2163W        W19010   9.920   5.757  12.572  0.0333 -0.1213  0.4884
 2164W        W19011   0.726  15.070   5.274 -0.1231  0.0591  0.4552
 2165W        W19012   8.735   6.092   0.574 -0.1810 -0.3041  0.3374
 2166W        W19013   7.091   3.159  16.209 -0.1827 -0.0751 -0.1073
 2167W        W19014   3.065   8.050  13.542 -0.2236  0.2017 -0.0273
 2168W        W19015  12.179   2.174  12.535  0.1061  0.0092  0.2719
 2169W        W19016   5.773  11.816   4.548 -0.2812 -0.3027 -0.3506
 2170W        W19017  12.268   7.330   5.017 -0.3828 -0.0577 -0.1882
 2171W        W19018  13.039   2.963   5.260 -0.0600 -0.0388 -0.1292
 2172W        W19019   9.392   2.888  13.950  0.3554  0.0482 -0.1374
 2173W        W19020   0.136   2.185   4.693 -0.2172  0.0299 -0.1053
 2174W        W19021  13.264  15.597  11.157 -0.3024 -0.0122  0.1558
 2175W        W19022   2.232  12.724  10.902  0.1636 -0.1248  0.0551
 2176W        W19023   8.518  16.070   1.272  0.1474 -0.0727  0.1219
 2177W        W19024   5.316  11.810   1.699 -0.1001 -0.3854 -0.0373
 2178W        W19025  17.501   1.196  12.911 -0.3811 -0.0626 -0.1736
 2179W        W19026   2.033   5.748  13.706 -0.0870 -0.0563 -0.1673
 2180W        W19027   0.599  15.044  16.265 -0.1122 -0.2334  0.1076
 2181W        W19028   7.948  17.607   2.997 -0.1505  0.2937  0.1363
 2182W        W19029   3.503   1.142  14.558  0.0117  0.0748  0.0183
 2183W        W19030   9.728  17.997   5.629 -0.0073 -0.1322 -0.2461
 2184W        W19031  14.249   0.014   4.044 -0.4970 -0.0160  0.1326
 2185W        W19032  11.265   9.641   0.650 -0.1853 -0.1507  0.0604
 2186W        W19033  10.116   6.250   1.390 -0.0596  0.2534  0.4956
 2187W        W19034   4.035   2.416   1.549  0.1379 -0.0059 -0.1524
 2188W        W19035  11.800   2.919  12.511 -0.1089 -0.0180 -0.1552
 2189W        W19036  11.125   6.969   3.279  0.2382 -0.0689  0.1335
 2190W        W19037   6.173  16.950  12.804 -0.1298 -0.1132 -0.0096
 2191W        W19038   8.920  14.753   3.790  0.0359  0.0512  0.3411
 2192W        W19039  13.308   3.774   5.628 -0.0152 -0.1735  0.2896
 2193W        W19040  14.834   3.649   1.770  0.2278 -0.0913 -0.0709
 2194W        W19041   3.443  12.891  14.668  0.1426  0.1233  0.1271
 2195W        W19042  16.961   8.292   4.957 -0.0602 -0.1553 -0.3882
 2196W        W19043  17.453   1.748  11.607 -0.3451 -0.1056  0.2201
 2197W        W19044  12.553   3.962   5.819  0.1235 -0.1628  0.1215
 2198W        W19045   6.995  16.699  11.782  0.1508  0.1106  0.0565
 2199W        W19046  11.168  13.570  14.195 -0.0257 -0.1517 -0.2658
 2200W        W19047   7.814  13.302  12.101  0.4335 -0.0876  0.0160
 2201W        W19048  13.186   6.712  14.590  0.5412 -0.0689 -0.3075
 2202W        W19049   5.279  15.674  12.040  0.2559  0.2199 -0.0602
 2203W        W19050   9.058  13.654   4.779 -0.3190  0.2339  0.1132
 2204W        W19051   3.709   3.021   4.107  0.1630  0.2797  0.1282
 2205W        W19052  17.583   3.890   1.480 -0.2112  0.2803  0.0316
 2206W        W19053  12.021  16.965  13.877 -0.3744  0.1682 -0.1512
 2207W        W19054   2.037   9.929  14.799 -0.0937  0.0412 -0.0763
 2208W        W19055   1.006   3.349   4.662 -0.4062  0.2334  0.0172
 2209W        W19056   3.052  15.744  12.608 -0.1321 -0.0893 -0.1032
 2210W        W19057  13.920   2.704  13.817  0.2022 -0.1896 -0.2896
 2211W        W19058  15.132   7.519   1.174 -0.0145 -0.0911 -0.1753
 2212W        W19059   8.324   4.249   6.195  0.2209 -0.1160 -0.1062
 2213W        W19060   1.784   5.167   1.034 -0.1138 -0.1074 -0.1616
 2214W        W19061   7.039   9.201   5.826 -0.3206 -0.3183 -0.6145
 2215W        W19062   9.561  13.940   5.015 -0.2569 -0.0255 -0.1169
 2216W        W19063  13.384  18.182   1.047  0.0039 -0.1337  0.1199
 2217W        W19064  15.738   2.151   2.707  0.2772  0.1266  0.0157
 2218W        W19065   4.282   0.763   4.781 -0.0875  0.1014 -0.2551
 2219W        W19066   8.752  13.714  14.184  0.0301 -0.3323  0.0622
 2220W        W19067   3.788   4.809   0.089  0.0221 -0.0512  0.0637
 2221W        W19068  10.152  11.408   1.177 -0.0542 -0.0836 -0.0339
 2222W        W19069   1.490  17.300   3.832  0.3421 -0.1727  0.0006
 2223W        W19070   1.720   9.328  12.543  0.0854 -0.0911  0.1012
 2224W        W19071   0.475   3.927  14.733 -0.1717  0.0706 -0.4096
 2225W        W19072  15.593   8.578   1.749  0.3587  0.0073 -0.0980
 2226W        W19073  10.561  16.423   3.316 -0.0125 -0.3839  0.2296
 2227W        W19074   9.288   7.486  14.567  0.1156  0.3363 -0.2767
 2228W        W19075  10.451   9.193   1.807  0.2493 -0.0417  0.0191
 2229W        W19076   8.027   8.644   2.159  0.0170  0.0529 -0.3038
 2230W        W19077   6.195   4.008  14.679 -0.0514  0.1924 -0.0798
 2231W        W19078   2.009   0.643   5.944 -0.1440  0.0590 -0.2271
 2232W        W19079   8.096  10.690   2.732  0.0640 -0.1257 -0.1899
 2233W        W19080   8.127   8.142   3.801 -0.2263 -0.2003 -0.1172
 2234W        W19081  13.246   7.070   0.468  0.1093 -0.1212  0.3129
 2235W        W19082  18.329  18.309  12.549 -0.0562  0.1721  0.1352
 2236W        W19083  12.395  14.255  12.689  0.1618  0.2826 -0.1719
 2237W        W19084  17.341  15.990   3.233  0.3950  0.0321  0.1878
 2238W        W19085  16.146   6.818  15.914  0.0482 -0.1624 -0.1332
 2239W        W19086   7.175  15.164  14.857 -0.1787  0.1608  0.0731
 2240W        W19087  17.832   6.133   5.870 -0.1258  0.0693  0.0217
 2241W        W19088   3.852  13.571   4.261  0.0686  0.0292  0.1163
 2242W        W19089   2.671  17.246  16.045 -0.2444  0.1521 -0.0391
 2243W        W19090   7.479   0.076   3.089 -0.2729  0.2163  0.1887
 2244W        W19091   8.768   5.320  15.833 -0.1883 -0.2706 -0.0689
 2245W        W19092  14.167   1.903  13.640  0.2406 -0.1496 -0.0573
 2246W        W19093  16.454  12.327  12.615  0.1746 -0.0060  0.1306
 2247W        W19094  17.809   2.407   2.272 -0.1751 -0.3598 -0.3767
 2248W        W19095  13.724   2.329  12.232  0.0650 -0.1506 -0.0765
 2249W        W19096   4.448   2.523  11.646 -0.0318 -0.1705  0.2778
 2250W        W19097   6.874   7.062   3.872  0.1328 -0.0272 -0.0820
 2251W        W19098   4.199   2.777   1.887  0.0624 -0.1007 -0.0524
 2252W        W19099   7.591  11.717   0.181 -0.2015  0.0191  0.0795
 2253W        W19100  17.621  18.206  15.723 -0.2605 -0.2042 -0.0461
 2254W        W19101   9.391   3.189   5.420  0.0022 -0.1891  0.2564
 2255W        W19102   9.174  12.031  13.736 -0.0052 -0.2381  0.0200
 2256W        W19103  12.090  14.579  11.789 -0.2137 -0.1188  0.0038
 2257W        W19104   7.858   5.000   5.254 -0.1086 -0.3056 -0.2597
 2258W        W19105   3.285   9.085  11.653  0.0133  0.1755  0.1075
 2259W        W19106   0.470   8.287   0.179  0.0105  0.2165  0.1589
 2260W        W19107  17.190   2.379  15.686  0.0518  0.0236  0.1337
 2261W        W19108  18.293  15.471   4.844  0.1910 -0.0709  0.2905
 2262W        W19109  17.102  11.001   2.205 -0.2731 -0.2071 -0.0558
 2263W        W19110  15.473  12.427  15.532 -0.0670  0.2584 -0.1866
 2264W        W19111  13.136  17.821   2.944  0.3528 -0.0922 -0.0846
 2265W        W19112   8.309   7.874   0.543 -0.0050  0.2054  0.1497
 2266W        W19113   3.941  15.485   5.418 -0.0769 -0.1966  0.2051
 2267W        W19114   2.524   7.299  16.129  0.0999  0.1022  0.0615
 2268W        W19115   2.589  16.717   0.550 -0.0735 -0.1943 -0.2182
 2269W        W19116   3.232  18.086   4.746  0.4029  0.1313 -0.0019
 2270W        W19117   1.979   1.527   1.537  0.0378 -0.1529  0.1705
 2271W        W19118   1.635  15.376  12.274 -0.5755 -0.1523  0.1183
 2272W        W19119   2.365   7.031   0.378 -0.3121 -0.1170  0.1688
 2273W        W19120  12.826   0.071   1.737  0.1766 -0.0248 -0.2999
 2274W        W19121   3.024  16.204  13.527  0.0240 -0.1988  0.3514
 2275W        W19122   9.321  15.833   2.879  0.1758  0.3604  0.1840
 2276W        W19123  16.449  15.157   2.738 -0.2153 -0.0151 -0.2608
 2277W        W19124   4.433   2.834   3.865 -0.1968  0.0176 -0.2357
 2278W        W19125   0.742  14.383   4.764 -0.1198 -0.2015  0.1665
 2279W        W19126   7.852   9.501   2.355  0.1369  0.0460  0.0042
 2280W        W19127   7.993  12.786   3.199 -0.1559  0.2663  0.2093
 2281W        W19128   7.870   3.885   0.979 -0.1905 -0.0617 -0.1850
 2282W        W19129   4.332  17.368  15.641  0.2757  0.0972  0.1279
 2283W        W19130   4.998  18.254   4.989  0.1525 -0.0771  0.2302
 2284W        W19131  15.411  18.045  13.173 -0.2373 -0.3279 -0.1684
 2285W        W19132   0.140   3.163  15.060 -0.3125 -0.2061 -0.2762
 2286W        W19133  15.446   9.557   3.368  0.2546 -0.0227 -0.0544
 2287W        W19134  10.849  16.834   0.529  0.0167 -0.2064 -0.1521
 2288W        W19135  15.872   4.181  13.839 -0.1677  0.0769 -0.0273
 2289W        W19136  12.457  16.618   3.279  0.0278 -0.1038 -0.1430
 2290W        W19137  10.499  10.767   2.094 -0.1494 -0.1201  0.0045
 2291W        W19138   7.940   9.652   3.392 -0.0020  0.3198 -0.0679
 2292W        W19139   3.079  12.819   5.303 -0.4737  0.0119  0.1641
 2293W        W19140  17.753  14.645   3.033  0.1068 -0.5851 -0.0998
 2294W        W19141   9.787   0.116  15.641  0.3138  0.0595  0.1240
 2295W        W19142   5.871   2.480  12.139  0.1050 -0.1648 -0.0599
 2296W        W19143   1.052  14.174  15.526 -0.1604 -0.3179  0.3174
 2297W        W19144  12.136   9.287  15.405  0.3388 -0.0842 -0.2731
 2298W        W19145   4.816   7.534   0.939 -0.1637 -0.1478  0.2078
 2299W        W19146  14.502  13.269   0.189  0.1478  0.2280 -0.0364
 2300W        W19147  17.844   0.550  12.176  0.2718 -0.0781  0.1944
 2301W        W19148   3.639  14.394   5.180  0.1027  0.2855 -0.0203
 2302W        W19149  11.050   2.377   2.359  0.0637 -0.0107  0.2296
 2303W        W19150  18.101  10.381  12.769 -0.5681  0.2135 -0.0978
 2304W        W19151   0.521   7.468   3.080 -0.0658 -0.1841 -0.0667
 2305W        W19152  10.453  14.912  12.766  0.0252 -0.0831  0.0053
 2306W        W19153   9.432  10.436   0.684  0.2622 -0.0214  0.2131
 2307W        W19154   9.404  17.643   2.811 -0.3506 -0.1893  0.2676
 2308W        W19155   2.242  15.395   4.437 -0.0242 -0.0545 -0.1309
 2309W        W19156   5.327   8.657  12.575  0.2976  0.0691  0.0100
 2310W        W19157   2.294   6.639  11.372 -0.2089  0.0981 -0.1749
 2311W        W19158   7.149  17.430   4.345  0.1001  0.0733 -0.1874
 2312W        W19159   9.798  14.130   4.560  0.3774 -0.1736  0.1419
 2313W        W19160   0.933   1.088   0.784  0.0387 -0.1570 -0.2493
 2314W        W19161   3.737  12.128  13.012 -0.1547 -0.1092 -0.0285
 2315W        W19162   7.769  18.066  14.653  0.3869  0.4203  0.0434
 2316W        W19163   4.713  17.487  12.859 -0.1766 -0.1424 -0.1034
 2317W        W19164   2.614   5.553   2.148 -0.0118  0.2353  0.0122
 2318W        W19165   2.944   7.999  14.452 -0.3789  0.1220  0.1555
 2319W        W19166   8.738   1.034  12.105 -0.1176 -0.1615  0.1051
 2320W        W19167   5.506  12.133  12.003  0.2547 -0.1601 -0.2013
 2321W        W19168  16.917  12.478  12.646  0.0927 -0.0504 -0.1127
 2322W        W19169  10.858   0.120  12.642  0.0460  0.2107 -0.3595
 2323W        W19170   7.231   5.613   0.398 -0.0587 -0.2409  0.3783
 2324W        W19171  11.644  14.811  13.520  0.5533 -0.1431  0.3073
 2325W        W19172  16.287   9.395  15.778  0.1841  0.3394 -0.0727
 2326W        W19173   8.656   7.219   4.252 -0.0882  0.1758  0.2180
 2327W        W19174   5.603   9.205   3.676  0.2391  0.0686 -0.1323
 2328W        W19175   0.351   8.342   3.079 -0.1362 -0.1202  0.0899
 2329W        W19176  16.833  17.635  11.917  0.1713 -0.1440  0.2898
 2330W        W19177   6.130   3.363   2.152  0.0486 -0.0301  0.3585
 2331W        W19178  16.862   4.312  11.089 -0.4306  0.1921 -0.2189
 2332W        W19179   5.828   7.922  13.067  0.2391 -0.1022 -0.0374
 2333W        W19180  18.333  16.529  15.517  0.0194 -0.1568  0.4973
 2334W        W19181   7.250  14.244  12.664  0.2926 -0.2639  0.0679
 2335W        W19182   1.215   7.344  14.602  0.0723 -0.0424 -0.2167
 2336W        W19183   3.072  14.242   4.013 -0.0097  0.3462 -0.0180
 2337W        W19184  17.362   8.338  14.793 -0.2670 -0.1673 -0.3156
 2338W        W19185  12.004  16.162   2.815  0.0691 -0.2202  0.2854
 2339W        W19186  13.893  12.555   2.213  0.2354 -0.3566  0.5057
 2340W        W19187   1.624   5.157  16.016  0.0648  0.0715 -0.0794
 2341W        W19188   3.677  11.908  13.663  0.2102  0.1668 -0.2681
 2342W        W19189   7.583   4.101   2.053  0.1746  0.0512  0.2041
 2343W        W19190   2.533   4.123  15.393 -0.1402  0.1794  0.1749
 2344W        W19191   8.676   9.794  15.171  0.1930 -0.1363 -0.0679
 2345W        W19192  12.052   5.713   3.463  0.2100 -0.0738  0.0129
 2346W        W19193   6.736   2.933  11.680  0.3246 -0.1497  0.1647
 2347W        W19194   0.677   5.387  15.687  0.0907 -0.0405 -0.0650
 2348W        W19195  13.298  16.729  14.085  0.1721 -0.1565 -0.3368
 2349W        W19196   0.716  15.341   0.606  0.0881 -0.2358 -0.2639
 2350W        W19197   8.504   2.021   3.836  0.2646  0.1089 -0.0116
 2351W        W19198  10.031  16.524   3.326  0.1538  0.2297  0.1229
 2352W        W19199  16.811  10.422   4.561 -0.0735 -0.0238 -0.1194
 2353W        W19200   1.186   3.767   0.198 -0.1595  0.0726 -0.0651
 2354W        W19201   3.763   5.351   3.479 -0.1223  0.0133  0.3119
 2355W        W19202  10.217  12.394  15.137  0.1369 -0.1103 -0.0829
 2356W        W19203  11.015   3.121   4.614  0.0664  0.1917  0.1670
 2357W        W19204   3.454   4.987  13.234  0.0987  0.0994 -0.3317
 2358W        W19205   1.627   1.062   1.558 -0.0349  0.2244 -0.5307
 2359W        W19206   0.395   2.440   4.303  0.1822  0.0437  0.1295
 2360W        W19207   4.117  13.977   0.249 -0.0372  0.2106 -0.0429
 2361W        W19208  18.359   6.433   3.036 -0.0354  0.0092 -0.1407
 2362W        W19209   9.172   0.581  12.285  0.1723  0.0586  0.0833
 2363W        W19210  14.367  12.407   2.610  0.0610 -0.0484  0.2100
 2364W        W19211  15.947  16.482  15.037 -0.0309 -0.1357 -0.2488
 2365W        W19212  10.592   4.628  13.312  0.0507 -0.0280 -0.0105
 2366W        W19213  12.525   3.514   4.401  0.0003 -0.0811  0.2011
 2367W        W19214  17.146   5.490   0.901 -0.0697 -0.1622 -0.1219
 2368W        W19215   9.721  12.879   6.678  0.1786  0.1123 -0.1170
 2369W        W19216   7.738   5.273  13.025 -0.0900  0.0305 -0.2301
 2370W        W19217   6.317   0.848  14.096  0.1504 -0.3457  0.0766
 2371W        W19218   0.959  18.332  16.304 -0.1295  0.0220 -0.0063
 2372W        W19219   2.823  14.806   2.526  0.0975 -0.0643 -0.2342
 2373W        W19220   6.276   9.503  12.336 -0.2956 -0.0804  0.0744
 2374W        W19221   5.290  16.876  12.221 -0.3376  0.1866 -0.0353
 2375W        W19222  13.315  18.105  16.091  0.0079 -0.1438 -0.0974
 2376W        W19223   0.848  14.829   0.735  0.2313 -0.0216 -0.1299
 2377W        W19224  17.217   4.292  12.441  0.2077 -0.0366 -0.2008
 2378W        W19225  11.169   9.759  15.289 -0.1306  0.2226  0.1824
 2379W        W19226  14.201  10.218   0.069 -0.0863  0.1109  0.0137
 2380W        W19227  15.260   7.320  13.424 -0.1199  0.0343 -0.0900
 2381W        W19228   3.681   3.278  12.197  0.3561 -0.3978  0.1772
 2382W        W19229   4.844  10.419   2.810 -0.0288  0.3936  0.1263
 2383W        W19230  13.468   1.314   6.080 -0.3383  0.0674  0.0430
 2384W        W19231   2.198   7.288   4.759  0.1934  0.0265 -0.0995
 2385W        W19232   1.398  10.528   4.292  0.0206  0.0995 -0.2814
 2386W        W19233   7.994   0.748   3.559 -0.0766 -0.1775 -0.1421
 2387W        W19234  10.414   8.257   2.405  0.0896 -0.1510 -0.0217
 2388W        W19235   1.873  12.033  13.300  0.1957 -0.1789  0.0766
 2389W        W19236   7.352  15.361  12.478 -0.1815  0.3694  0.0086
 2390W        W19237  15.032   5.464   1.662 -0.1268  0.4472 -0.2522
 2391W        W19238   1.549  16.606   4.685  0.0732 -0.4155  0.2302
 2392W        W19239   9.510  17.032  12.354  0.4433  0.0337 -0.3032
 2393W        W19240   8.566  15.794  14.845 -0.2237 -0.1712  0.0165
 2394W        W19241   7.781   8.381   4.984 -0.0874  0.0302 -0.0286
 2395W        W19242   0.254   5.002  15.542 -0.0444 -0.0477  0.0322
 2396W        W19243   8.163   5.532   4.413 -0.0574 -0.0214 -0.1569
 2397W        W19244   2.763   6.865  12.438  0.1000  0.0381 -0.0081
 2398W        W19245  15.536  10.400   0.710  0.1547 -0.0241 -0.0737
 2399W        W19246  12.649   6.346   3.072  0.3078  0.5216  0.1969
 2400W        W19247  14.171   9.098   1.600  0.1806 -0.0905  0.2818
 2401W        W19248  14.163  14.645   4.905 -0.0069  0.0408 -0.0978
 2402W        W19249  13.515  14.396  14.447 -0.0818 -0.0943  0.2105
 2403W        W19250   7.933  10.958  16.046  0.1213 -0.0715 -0.1421
 2404W        W19251   2.238   6.595  10.891 -0.0605 -0.1444 -0.1782
 2405W        W19252   2.724  14.949   0.297 -0.0058 -0.2238  0.2362
 2406W        W19253   7.663   6.493  15.816 -0.1710  0.1859  0.1221
 2407W        W19254   2.885   6.358   2.276 -0.0330 -0.3543  0.1468
 2408W        W19255  14.074   5.484  16.185  0.1045  0.1414 -0.1297
 2409W        W19256   3.335   2.476   3.330 -0.0812  0.5036 -0.1473
 2410W        W19257  14.017  12.122  12.311 -0.0243  0.2197  0.2272
 2411W        W19258  10.429   8.823   4.360  0.0911 -0.1215  0.1415
 2412W        W19259   4.842   3.004   5.034  0.1565 -0.2385 -0.0940
 2413W        W19260  10.424   4.520  11.505 -0.0458 -0.0802  0.0751
 2414W        W19261   2.284   3.078   1.010  0.1219 -0.3588 -0.0389
 2415W        W19262   7.690   4.560   5.451 -0.0038  0.0901  0.0271
 2416W        W19263   1.887   2.746  14.846  0.1589  0.0757 -0.1117
 2417W        W19264   1.654   5.777   1.652  0.2681  0.3242  0.0659
 2418W        W19265   3.153  15.753   5.002  0.0416 -0.0166 -0.4971
 2419W        W19266  10.611  12.995  13.989  0.2160 -0.3341 -0.1628
 2420W        W19267  17.840  17.011  11.650  0.0834  0.1162 -0.1149
 2421W        W19268  16.588   8.654   2.102 -0.0665  0.0503  0.0756
 2422W        W19269   0.944   9.254   4.511  0.0724  0.1646 -0.3636
 2423W        W19270  18.296  15.438   2.198  0.0868 -0.2296  0.1822
 2424W        W19271   8.160  17.376   1.260  0.0541 -0.0753  0.0789
 2425W        W19272  17.678   3.308   1.296 -0.2749  0.1399  0.2314
 2426W        W19273   0.299  18.330   0.521 -0.2053  0.1372 -0.1735
 2427W        W19274  11.830  13.490   0.789 -0.0030  0.3920  0.1326
 2428W        W19275  11.289   6.409   4.222  0.1676  0.0465  0.3097
 2429W        W19276  17.848   0.443  11.669 -0.0016  0.1874  0.0447
 2430W        W19277  16.632   8.831   0.436  0.0676 -0.2458  0.0098
 2431W        W19278   2.213   8.214  14.412 -0.0905 -0.2863 -0.0755
 2432W        W19279   7.467  12.219  15.327  0.0525 -0.2083 -0.0873
 2433W        W19280   7.582  14.163   2.681  0.1848  0.1176  0.1281
 2434W        W19281  12.054  12.614   0.212  0.0987 -0.0272  0.0047
 2435W        W19282  15.728  11.396  15.258 -0.1554 -0.1300  0.0598
 2436W        W19283  10.282   3.082  13.957  0.2359  0.1832 -0.2598
 2437W        W19284   2.908  13.863  14.597 -0.0235 -0.0074  0.0918
 2438W        W19285   4.911  14.592  16.196 -0.0717  0.3118  0.0608
 2439W        W19286   8.480   0.525  14.784 -0.2719  0.1028  0.1171
 2440W        W19287  12.771  13.280   0.657  0.1094  0.0316  0.0524
 2441W        W19288   0.093  14.836  16.312 -0.0490  0.2378  0.2222
 2442W        W19289  17.162   7.900   1.264  0.0369  0.1702  0.1801
 2443W        W19290  16.437   3.483   3.437  0.1935  0.0042 -0.1333
 2444W        W19291  13.434  17.575  13.701  0.0775  0.2403  0.1694
 2445W        W19292  16.409   5.897   1.182 -0.2694 -0.0373  0.2213
 2446W        W19293   7.203  12.386   1.704 -0.0139 -0.0806 -0.2473
 2447W        W19294   5.478  12.248   0.838 -0.2889  0.0074  0.0682
 2448W        W19295  11.272   7.515  14.048 -0.0962  0.2160 -0.2155
 2449W        W19296   1.063  10.336  12.396  0.3175 -0.0215 -0.1837
 2450W        W19297   0.011   5.442   1.391 -0.0914 -0.2057 -0.0906
 2451W        W19298   9.174   4.524  13.392  0.3488 -0.1843 -0.0640
 2452W        W19299   4.135   9.281  14.401 -0.5118 -0.0358  0.0564
 2453W        W19300  12.918   7.318   0.745 -0.0436 -0.3278 -0.0309
 2454W        W19301  17.507   4.947  10.937  0.1011 -0.0910 -0.0902
 2455W        W19302  15.465  17.692   3.267 -0.4175  0.2074  0.0228
 2456W        W19303  15.087  13.135  11.947  0.2961 -0.0273  0.3329
 2457W        W19304  15.259  17.343   2.953 -0.3239 -0.1322  0.1203
 2458W        W19305   5.925   0.051  15.076 -0.1743  0.2353  0.1711
 2459W        W19306   4.512  15.455   2.405  0.0597  0.0234 -0.0552
 2460W        W19307   5.120   2.084   4.892 -0.0420 -0.2084 -0.3590
 2461W        W19308   6.915  10.828  13.911  0.2993  0.2496  0.1268
 2462W        W19309  10.971  13.240  15.074 -0.0828 -0.1402  0.0815
 2463W        W19310  14.119  10.604  11.233  0.0375  0.1213 -0.3132
 2464W        W19311  17.857   2.533   4.140 -0.1028 -0.0178 -0.1431
 2465W        W19312   4.432  15.781   0.942 -0.0856  0.2272  0.0434
 2466W        W19313   1.238   2.461   1.996 -0.0312  0.2789 -0.0760
 2467W        W19314   8.757  18.137  11.583 -0.2716  0.0882 -0.0781
 2468W        W19315   0.747  16.838  16.115 -0.2390  0.2125 -0.0008
 2469W        W19316   6.016  17.935   5.182  0.1393  0.1201  0.0613
 2470W        W19317  10.568   7.147   5.037 -0.0988  0.2552 -0.1302
 2471W        W19318   5.174  17.198  14.894 -0.2253 -0.2991  0.2102
 2472W        W19319   9.198   6.927   0.423  0.0520 -0.0498 -0.1653
 2473W        W19320   9.740  13.168   3.695  0.0618  0.3325  0.0301
 2474W        W19321  14.328  11.863   2.693 -0.0231 -0.2370  0.0507
 2475W        W19322   4.076   3.689  16.181 -0.1512  0.2382  0.2444
 2476W        W19323  10.402   7.418   1.060  0.1457 -0.1095  0.1962
 2477W        W19324  15.494  17.057  11.661  0.1912 -0.2346 -0.1812
 2478W        W19325   1.364   8.981  12.822  0.4200 -0.1183 -0.0022
 2479W        W19326   9.900  17.043  14.910 -0.0860  0.3230 -0.1654
 2480W        W19327   0.653   7.632   4.330 -0.1333  0.0732 -0.1077
 2481W        W19328   6.591  13.368   4.518  0.1369 -0.2103  0.0078
 2482W        W19329   8.210   2.617   6.115  0.0541 -0.0144 -0.0576
 2483W        W19330   0.339   9.185   2.858 -0.1356 -0.0358  0.2398
 2484W        W19331   7.789  11.110   1.388 -0.3887  0.0929 -0.2368
 2485W        W19332   8.180  14.193   0.933 -0.0958 -0.0074  0.0131
 2486W        W19333   9.865   9.611   5.962 -0.0457  0.0782 -0.0098
 2487W        W19334   5.181  16.300  12.973  0.2165  0.0683 -0.0090
 2488W        W19335   1.084   9.794  12.276 -0.1570  0.1010  0.0271
 2489W        W19336   0.568  15.581  14.236 -0.2179  0.0524 -0.0478
 2490W        W19337  17.645   4.438  13.767 -0.3389 -0.0572 -0.0006
 2491W        W19338   1.860   1.196  14.749  0.5306  0.1840 -0.1596
 2492W        W19339   0.165   5.066   3.210 -0.2827  0.2881  0.1136
 2493W        W19340  15.515  17.065   1.345  0.0748  0.1469 -0.3444
 2494W        W19341  16.598   1.911   1.692 -0.0221 -0.2337  0.3884
 2495W        W19342  17.024  16.010   2.250  0.0388 -0.2514  0.1049
 2496W        W19343   4.616  11.038  12.071 -0.0425 -0.2788 -0.0444
 2497W        W19344   7.233   6.260   5.453  0.0516  0.1531 -0.0223
 2498W        W19345   8.938   9.213  14.683  0.1650  0.0517  0.2198
 2499W        W19346   3.147   5.005   1.323  0.0987 -0.3562  0.1308
 2500W        W19347  10.779   4.174  15.334 -0.1323  0.1280  0.0606
 2501W        W19348   7.652   8.827   4.365 -0.0389 -0.0236 -0.0539
 2502W        W19349   4.814   8.043   3.522  0.1869  0.3014  0.0916
 2503W        W19350  15.529   4.956   0.078  0.0657  0.1580 -0.2012
 2504W        W19351   6.479  10.173   0.745  0.2120 -0.0428 -0.1281
 2505W        W19352  14.937   5.558   1.192 -0.2010  0.1936  0.1247
 2506W        W19353   4.059   9.918  13.891  0.0725 -0.0796 -0.1554
 2507W        W19354   8.533  13.636   2.519 -0.3136  0.2156  0.0859
 2508W        W19355  10.644   1.909  12.002 -0.1187 -0.0847 -0.0738
 2509W        W19356   5.235   7.890   0.105 -0.1515 -0.1103  0.1904
 2510W        W19357  13.290  10.247   0.791  0.0584 -0.3863  0.0490
 2511W        W19358   0.712   1.675  15.866  0.1919  0.1776  0.2087
 2512W        W19359   1.700  13.445  15.416  0.1556  0.1248  0.0623
 2513W        W19360   1.324  18.032  15.457 -0.1631  0.2378  0.0764
 2514W        W19361  16.510   7.911  14.035  0.1253  0.0773  0.0645
 2515W        W19362  10.769  13.257  12.189  0.1903 -0.4152 -0.0269
 2516W        W19363   1.826  11.429   0.541  0.2106 -0.4430 -0.0557
 2517W        W19364   3.110  11.585  13.633  0.0112 -0.3193 -0.5062
 2518W        W19365   2.427   1.941   1.971 -0.0362  0.2637  0.0875
 2519W        W19366   2.494  12.492   0.458  0.0973 -0.2160 -0.0580
 2520W        W19367   7.664   6.443   3.780 -0.3335  0.0939 -0.1437
 2521W        W19368  16.940  14.742   4.923 -0.2409  0.2307  0.1411
 2522W        W19369   5.833   7.970  15.092 -0.2629  0.0323  0.4073
 2523W        W19370   9.943  14.712   0.065  0.0871  0.2737  0.0897
 2524W        W19371  10.481  13.839   1.751 -0.2200 -0.0656  0.2211
 2525W        W19372   5.309  13.787   0.152 -0.2887  0.0090  0.2488
 2526W        W19373   4.095  11.769  13.265 -0.1919 -0.0313 -0.0464
 2527W        W19374  11.846   1.716   5.438  0.0133 -0.0377 -0.1618
 2528W        W19375  10.632  11.754  13.790 -0.0526  0.0284 -0.0522
 2529W        W19376   5.979   6.378   3.902  0.2497  0.0032  0.1459
 2530W        W19377  17.190   2.530   3.731 -0.1104  0.3231 -0.0550
 2531W        W19378   6.704  14.431   0.493  0.0498  0.1460  0.0745
 2532W        W19379  14.730  14.515   3.669  0.2850 -0.2259  0.0486
 2533W        W19380   3.598  13.325   2.946  0.3084 -0.1441 -0.2025
 2534W        W19381  13.200  11.674  15.556 -0.5676 -0.0911  0.0403
 2535W        W19382  17.650  15.414   2.075  0.0773  0.0072  0.0818
 2536W        W19383   5.331  11.700  15.803  0.1714 -0.1251  0.1814
 2537W        W19384   3.454  16.024  15.287 -0.1210  0.1728 -0.0557
 2538W        W19385  18.278   1.464  15.324 -0.1462 -0.1843  0.0184
 2539W        W19386  11.330  14.939  11.648 -0.0854 -0.2101  0.2604
 2540W        W19387  17.600   1.135   2.884 -0.0287 -0.0011  0.3278
 2541W        W19388  17.124   1.006   5.522 -0.0538 -0.4832  0.0968
 2542W        W19389  10.020   7.326   4.885  0.0152 -0.1809 -0.0388
 2543W        W19390  12.966  14.921   0.141  0.0984 -0.0786 -0.0506
 2544W        W19391  16.135   0.800  15.030 -0.0998 -0.2026  0.0076
 2545W        W19392  17.108   8.294  13.585 -0.0430 -0.0268 -0.2964
 2546W        W19393   1.252   4.190   2.787  0.0161 -0.1016 -0.1358
 2547W        W19394   0.079  13.446  11.355  0.4188  0.2966  0.2117
 2548W        W19395   5.190   4.793   4.743  0.0103 -0.0803  0.0729
 2549W        W19396   8.393   5.196  12.628  0.0781 -0.3217 -0.2528
 2550W        W19397   2.145  15.233  12.297 -0.2640  0.3705  0.0079
 2551W        W19398   0.242  12.484  11.875  0.0858  0.1260 -0.2671
 2552W        W19399  10.618  10.116   2.725 -0.1872  0.0665 -0.2000
 2553W        W19400   2.219  12.693  15.394 -0.1301  0.2237  0.0979
 2554W        W19401   3.184   9.193   3.384 -0.2908 -0.1497 -0.3581
 2555W        W19402   0.465   1.653  12.022  0.0989  0.4406  0.0727
 2556W        W19403   7.865  12.986   1.511  0.1410 -0.1534  0.0383
 2557W        W19404   2.686  10.055   1.533 -0.0529  0.1975 -0.0164
 2558W        W19405   2.551   5.383  10.958  0.3850  0.1981 -0.0536
 2559W        W19406   5.736  17.432   5.228  0.4451 -0.0137  0.1369
 2560W        W19407   7.061   9.777  11.465  0.2769  0.2153  0.3371
 2561W        W19408  10.124  11.925   2.919  0.0386 -0.3636  0.3584
 2562W        W19409  11.961   5.451  13.029  0.0508  0.1969 -0.0281
 2563W        W19410   0.753  13.947  16.369 -0.3276 -0.0622 -0.0337
 2564W        W19411  16.280   6.169  11.497  0.1926  0.1750  0.0004
 2565W        W19412   5.331  10.612   0.959  0.1537 -0.0867 -0.2686
 2566W        W19413  16.577  11.982   4.148  0.0317 -0.0287 -0.1966
 2567W        W19414  13.210   4.323  15.020  0.1087  0.0076  0.1453
 2568W        W19415  16.165   3.410   4.215 -0.0548 -0.1394 -0.0166
 2569W        W19416   8.143  17.630   4.218 -0.0830 -0.0910  0.1667
 2570W        W19417   8.120  15.922  11.700  0.0001 -0.1615  0.1021
 2571W        W19418  13.276  15.188  16.153  0.1112 -0.0963  0.1048
 2572W        W19419  11.543   4.185  12.511  0.1414  0.2222  0.0871
 2573W        W19420  14.421   7.870  16.322 -0.0156  0.0328  0.3754
 2574W        W19421   6.275   9.362   5.571 -0.1422 -0.1404  0.0383
 2575W        W19422  13.803   7.047   0.745 -0.2474 -0.1930  0.0738
 2576W        W19423  15.754  11.541   0.634 -0.0252 -0.0336  0.3937
 2577W        W19424   9.946  14.704   4.667  0.1406 -0.2962  0.0581
 2578W        W19425   0.177   1.993  10.507  0.1006 -0.0941 -0.0105
 2579W        W19426  12.596   0.051   3.089  0.1280  0.1140  0.3679
 2580W        W19427   6.616   4.611   3.936  0.3573  0.2481  0.4252
 2581W        W19428   2.686   8.021   0.579 -0.1658 -0.0192  0.1261
 2582W        W19429   2.047   7.466  15.266  0.1047 -0.1214 -0.2478
 2583W        W19430   7.401   0.006  14.624  0.1178 -0.0942  0.4736
 2584W        W19431  13.170  15.134   4.469 -0.1765 -0.0429 -0.1600
 2585W        W19432  15.796  16.690  10.473 -0.0210  0.3057  0.0483
 2586W        W19433  10.812   8.683   3.489  0.2145 -0.0074 -0.3188
 2587W        W19434   6.208   5.846   1.509 -0.0614 -0.0120  0.1556
 2588W        W19435   9.569  13.157  14.001  0.5349  0.1741 -0.0050
 2589W        W19436   7.690  15.046   1.476  0.1509 -0.1709  0.1541
 2590W        W19437   0.886   9.200  12.733  0.0171  0.0927  0.1183
 2591W        W19438   2.120   4.338  13.215  0.1720  0.2350 -0.1452
 2592W        W19439   2.270   4.838  13.460  0.0631  0.1766 -0.0141
 2593W        W19440  11.471   7.585  15.994  0.0397 -0.0844  0.0329
 2594W        W19441   7.826  15.083  16.351 -0.1943 -0.0177  0.1171
 2595W        W19442   9.694  14.293  11.941  0.0088 -0.0351 -0.2862
 2596W        W19443   6.719   8.019   4.240  0.0130  0.0817  0.0480
 2597W        W19444   1.211   3.935   5.231  0.1955  0.1650  0.1523
 2598W        W19445  11.224  10.979   2.954 -0.1335 -0.2518 -0.1262
 2599W        W19446   3.514  18.190   2.783 -0.1833 -0.1860  0.0656
 2600W        W19447  15.292   7.365  12.177 -0.4460  0.1797  0.0764
 2601W        W19448   7.649  16.871  15.904  0.2758  0.0965 -0.0245
 2602W        W19449   8.708  15.923   2.187 -0.1605  0.0942 -0.0298
 2603W        W19450  15.955   8.642  13.464 -0.0673  0.1964 -0.3338
 2604W        W19451  12.566   6.763   4.542 -0.1485 -0.0559  0.0476
 2605W        W19452   1.062   0.748  11.493  0.2904  0.0264 -0.0952
 2606W        W19453  14.096  10.060  14.174  0.1275 -0.1081  0.0004
 2607W        W19454   7.956   1.246  11.469 -0.0647 -0.1886  0.0121
 2608W        W19455   4.627   9.009  12.792 -0.1893 -0.0104 -0.1974
 2609W        W19456   2.634  14.576  13.508 -0.1078 -0.0191 -0.0149
 2610W        W19457   9.849   3.146  13.198 -0.1210 -0.0034  0.1334
 2611W        W19458  15.127  14.054  14.435 -0.1410  0.0252  0.2316
 2612W        W19459   8.179   6.791  15.010 -0.0698 -0.1029  0.0687
 2613W        W19460   8.928  16.823   3.890 -0.0843 -0.1830 -0.0392
 2614W        W19461   5.673  15.542  15.957  0.0881  0.1054  0.1765
 2615W        W19462   4.309  11.099   2.831 -0.0145  0.3762  0.3760
 2616W        W19463  14.223  10.978  12.815 -0.2088  0.1544  0.0156
 2617W        W19464  10.205   4.050   0.587 -0.3488  0.0399 -0.0152
 2618W        W19465  15.496  13.348  15.649  0.1095 -0.0129  0.1167
 2619W        W19466   9.958   1.249  15.566 -0.0990  0.1872 -0.3318
 2620W        W19467  10.165  12.107  14.173  0.0013  0.0765 -0.0639
 2621W        W19468   3.199  10.951   3.947  0.0488  0.1386  0.1483
 2622W        W19469   8.647   0.802  13.554 -0.1195 -0.0900  0.1848
 2623W        W19470  17.083  10.101   2.114  0.4026 -0.1629 -0.1291
 2624W        W19471   8.233   5.649  10.875 -0.1850  0.2649 -0.1282
 2625W        W19472  11.727  16.589   2.772 -0.0442  0.1008 -0.1582
 2626W        W19473  11.529  10.419  14.822  0.2345  0.0503  0.0571
 2627W        W19474  18.285  10.435   1.840 -0.0468  0.1324  0.3832
 2628W        W19475  12.070   8.320  13.935 -0.1507  0.1929  0.0020
 2629W        W19476   5.443   4.369  11.885  0.1038  0.0192 -0.0087
 2630W        W19477   3.663   9.338   4.514  0.0125  0.0365 -0.1214
 2631W        W19478  18.419   7.377   2.109  0.2273 -0.0789  0.3891
 2632W        W19479   3.549  16.632  14.625  0.1486  0.5099 -0.0454
 2633W        W19480   0.374  16.841   1.153  0.1138 -0.1504  0.1519
 2634W        W19481  10.835  10.056   3.119  0.1753  0.2759 -0.2328
 2635W        W19482  14.226  18.168   3.081 -0.1053  0.1712 -0.0920
 2636W        W19483   5.638   8.275   3.112 -0.2218  0.0847  0.2636
 2637W        W19484   9.927   8.490  16.372  0.0446 -0.2444 -0.1581
 2638W        W19485   1.591  15.536   0.730  0.1036  0.2179  0.2129
 2639W        W19486   4.354   8.379   3.526  0.0085 -0.2678 -0.2956
 2640W        W19487   8.649  10.750  12.511  0.3142 -0.2494  0.0642
 2641W        W19488  17.825  11.243  13.425 -0.1952  0.0050  0.0716
 2642W        W19489  13.663  13.860  15.009 -0.0299 -0.1752  0.1486
 2643W        W19490  11.188  10.021   6.344  0.2393 -0.3491  0.0633
 2644W        W19491  16.128   5.143  13.579 -0.0484  0.2496  0.1540
 2645W        W19492   9.735  12.538  14.901 -0.0361  0.1090  0.1452
 2646W        W19493   3.448   8.157   1.616 -0.0195  0.0707 -0.2045
 2647W        W19494   0.169   4.467  10.424 -0.1498 -0.0134 -0.3050
 2648W        W19495  16.747  18.154   1.821 -0.2477  0.0965  0.0418
 2649W        W19496   0.023  13.906   2.626  0.0703 -0.0896  0.0323
 2650W        W19497   7.230  11.430  14.803  0.0361 -0.1543 -0.1121
 2651W        W19498  10.215   2.688  13.282  0.1525 -0.0920 -0.1603
 2652W        W19499   6.562  13.825   1.120  0.0911 -0.3313  0.0276
 2653W        W19500   2.441   9.504   0.953 -0.1341 -0.2278 -0.0812
 2654W        W19501   5.952   6.784   2.081  0.1014  0.0659 -0.1323
 2655W        W19502   5.763  14.182  12.690 -0.0751 -0.0575  0.1065
 2656W        W19503   1.631  16.607  13.831  0.0413 -0.1301  0.1503
 2657W        W19504  10.846  15.900  14.400  0.0886 -0.1168 -0.0289
 2658W        W19505   1.450   9.930   5.209  0.1998  0.2303  0.2362
 2659W        W19506   7.357  10.891  12.511  0.0374 -0.1039 -0.2571
 2660W        W19507   0.474  14.595   1.155  0.3290  0.1218 -0.2792
 2661W        W19508  14.286   8.393  11.387 -0.0429  0.2281  0.0520
 2662W        W19509  11.829  14.240   0.893  0.0491 -0.1460  0.1509
 2663W        W19510   3.376  18.253  12.724  0.2686 -0.0614 -0.1209
 2664W        W19511  13.488  15.096  15.414  0.1436  0.1448 -0.2628
 2665W        W19512  12.698  15.369  16.104  0.0196  0.1608  0.0567
 2666W        W19513  12.885   7.183  14.674 -0.0253  0.2245  0.0549
 2667W        W19514   2.833  17.490  13.817  0.0687 -0.1478 -0.0777
 2668W        W19515   6.946   3.159   4.835 -0.1478 -0.1015  0.1282
 2669W        W19516   2.002   5.274  14.726 -0.2345  0.0937  0.2606
 2670W        W19517   2.016  10.202   1.611 -0.2316 -0.1190 -0.0294
 2671W        W19518  18.185   5.084  15.771 -0.0713 -0.1355 -0.0437
 2672W        W19519  11.745  12.416   4.162  0.0933 -0.0064  0.0531
 2673W        W19520  17.670   2.750  15.525 -0.5695 -0.2339 -0.3261
 2674W        W19521  11.014   9.371  12.157  0.2232  0.0454 -0.0157
 2675W        W19522  11.709  15.278  16.009 -0.0639 -0.0052 -0.0520
 2676W        W19523   1.420   0.583  12.423 -0.3199 -0.1219 -0.0077
 2677W        W19524  16.740   2.791   3.724  0.3421  0.0098 -0.1153
 2678W        W19525   9.838   8.141   4.374  0.2674  0.2923  0.0225
 2679W        W19526  12.741   3.784  14.481 -0.1037  0.0878 -0.2299
 2680W        W19527  14.382   8.283   3.106 -0.0332  0.3559  0.0289
 2681W        W19528  17.938  13.230   4.045  0.0258 -0.1389  0.0734
 2682W        W19529   1.533  14.795   4.183  0.1497  0.1589  0.0756
 2683W        W19530   5.776  14.168   3.136  0.1509  0.0376  0.3039
 2684W        W19531   5.034   8.803  13.861  0.3247 -0.2831 -0.1177
 2685W        W19532  15.297   1.994   2.391  0.3911  0.3668 -0.0711
 2686W        W19533   3.753  16.413  10.560 -0.2040 -0.0351  0.1493
 2687W        W19534   8.193  10.186  15.954  0.4571 -0.0900  0.1223
 2688W        W19535   2.771   8.087   4.517  0.0489 -0.1447 -0.2032
 2689W        W19536   8.701   5.844   2.373 -0.0301  0.1235 -0.2401
 2690W        W19537   7.000   4.280  15.107  0.1460 -0.1124 -0.1793
 2691W        W19538  17.212  16.647  15.381  0.4463 -0.1361 -0.0954
 2692W        W19539  13.771   9.626   3.987 -0.2496 -0.0800 -0.1146
 2693W        W19540  17.413  10.264  14.336  0.3325  0.1282  0.3766
 2694W        W19541  12.747   2.577  13.066  0.0756 -0.1665 -0.0827
 2695W        W19542   4.559  11.970  13.476  0.0968 -0.1245  0.0221
 2696W        W19543   1.464   3.788   1.261  0.0171 -0.2304  0.2533
 2697W        W19544  10.033  10.967   5.455  0.1031 -0.1301  0.1211
 2698W        W19545  14.612   1.327   2.359  0.0266 -0.1782  0.0798
 2699W        W19546   5.273   5.056   2.587  0.1322 -0.0982 -0.2080
 2700W        W19547  13.256   6.200  15.445 -0.0419  0.1919 -0.0050
 2701W        W19548   3.220  17.393  11.073 -0.2590  0.0750 -0.0674
 2702W        W19549  11.021   1.939  12.354  0.1585  0.2739  0.2574
 2703W        W19550   2.490   2.209  16.360 -0.0512 -0.0090  0.0600
 2704W        W19551   4.723   2.616   2.584  0.0317  0.1399 -0.0035
 2705W        W19552   6.521   7.373   1.924 -0.2142  0.2109 -0.2066
 2706W        W19553  10.534  12.598  12.804 -0.1878 -0.0674  0.1009
 2707W        W19554  11.095   2.416  15.618 -0.3777 -0.0646 -0.2190
 2708W        W19555   3.954  11.416  15.566  0.1782 -0.0694  0.2205
 2709W        W19556   8.094  17.588   4.786  0.0532 -0.2141  0.0404
 2710W        W19557  13.322   5.824  15.148  0.0364  0.2291  0.0084
 2711W        W19558   9.343   1.120  12.944  0.2120  0.4712 -0.1056
 2712W        W19559  17.217   3.626   3.982  0.3704 -0.0889 -0.3016
 2713W        W19560  15.639   7.124  15.674  0.2822  0.0510  0.0291
 2714W        W19561   6.273  13.932  12.499  0.1754 -0.0019 -0.0889
 2715W        W19562   2.777   4.669   0.107 -0.1388 -0.2584 -0.4989
 2716W        W19563   2.555  10.622   4.567 -0.1131  0.0584 -0.0790
 2717W        W19564  10.953   1.522  16.263 -0.2612 -0.2144  0.3262
 2718W        W19565   9.012  10.057   0.636 -0.0387  0.0544  0.0596
 2719W        W19566   8.565   8.517  14.596  0.1879  0.5161 -0.1467
 2720W        W19567   6.049   9.855   0.901 -0.0676  0.1297  0.0391
 2721W        W19568  11.827   4.938   5.072 -0.0639 -0.1477  0.1023
 2722W        W19569   3.071   2.961   5.040 -0.1215 -0.0111 -0.0664
 2723W        W19570  13.065  14.619   3.592  0.0912 -0.1288 -0.3079
 2724W        W19571   4.352  14.318  15.101 -0.3246  0.0468  0.0096
 2725W        W19572  17.300   8.263  10.987 -0.3346  0.0429 -0.0642
 2726W        W19573   9.500   6.787  12.353  0.1001  0.1302 -0.2829
 2727W        W19574  12.426  17.106   1.052 -0.1947  0.2215 -0.0408
 2728W        W19575   2.889  16.335   0.386 -0.1674  0.1620 -0.0840
 2729W        W19576  10.054  13.156  16.142  0.3902  0.0336  0.1982
 2730W        W19577   7.408   4.976   0.501 -0.1662  0.0662  0.3248
 2731W        W19578   8.384   0.339  12.384 -0.3418  0.3138 -0.3529
 2732W        W19579  15.343  16.915   3.686  0.1201 -0.4908  0.4500
 2733W        W19580   6.521   3.013   0.399 -0.2047 -0.1261  0.1333
 2734W        W19581   8.911   0.072   5.613 -0.1020  0.1011 -0.2086
 2735W        W19582  10.549   1.095  12.773  0.0049  0.3051  0.3994
 2736W        W19583  14.006   4.855   0.072 -0.3209 -0.1472 -0.2584
 2737W        W19584   6.564  15.146   4.096  0.0896 -0.1671 -0.1843
 2738W        W19585   3.284  10.424   4.126 -0.0602 -0.1679 -0.2795
 2739W        W19586  16.300  11.593  13.859 -0.1413 -0.0216 -0.1037
 2740W        W19587  12.694   3.037   3.608  0.3211  0.4074  0.0931
 2741W        W19588  10.830   0.513   2.924 -0.0242 -0.1083 -0.1185
 2742W        W19589   6.001  16.699  13.615 -0.2402 -0.0426  0.0744
 2743W        W19590   4.313   8.428  13.073  0.2842  0.2403  0.1046
 2744W        W19591   8.765  16.931   5.783  0.1863 -0.1926  0.1556
 2745W        W19592  11.199   2.893   3.787 -0.0116 -0.0367 -0.0851
 2746W        W19593  13.074  13.200   1.271 -0.0216  0.2682 -0.1469
 2747W        W19594  15.769  18.325   6.286 -0.2738 -0.1346  0.1253
 2748W        W19595  12.825   1.343  12.323 -0.0431 -0.1260  0.1826
 2749W        W19596  16.696  15.806   1.472 -0.0491  0.2268  0.0618
 2750W        W19597   7.358   0.393  15.465 -0.0413  0.1469 -0.1373
 2751W        W19598  16.402  11.702  15.319  0.1351 -0.1293  0.0512
 2752W        W19599  15.570  13.714   2.864  0.0792  0.1211 -0.2428
 2753W        W19600  13.173  11.078  11.223 -0.0563  0.2789  0.1291
 2754W        W19601   6.146   7.415   0.584  0.1143 -0.0210 -0.0176
 2755W        W19602   5.310  15.933   0.031  0.1683 -0.0143 -0.0916
 2756W        W19603   5.092   5.469   2.313 -0.0529 -0.1648 -0.2729
 2757W        W19604  14.542  11.881   4.852  0.1398 -0.2880 -0.0605
 2758W        W19605   6.801  14.865  14.125  0.1319 -0.1828  0.2031
 2759W        W19606   8.285   4.767  12.972  0.2778  0.0813  0.1067
 2760W        W19607   8.048  14.376  16.318 -0.3947 -0.1481  0.2817
 2761W        W19608  13.224   7.500  16.014  0.1200  0.1179  0.1876
 2762W        W19609  13.618   3.121   4.325 -0.5072  0.3868 -0.0550
 2763W        W19610  16.629  18.367   5.230  0.0215  0.1114 -0.1883
 2764W        W19611   3.941   0.918   5.050  0.3513 -0.1343  0.0076
 2765W        W19612  10.478  12.703   5.635  0.0554 -0.1924 -0.3688
 2766W        W19613  16.867  16.658  16.131 -0.1854 -0.1649 -0.0232
 2767W        W19614   9.821  18.324  14.088 -0.0435 -0.0205 -0.2437
 2768W        W19615  17.293  11.669  15.950  0.2039  0.0898 -0.1223
 2769W        W19616  16.015  17.681  15.937 -0.0242  0.0634  0.0043
 2770W        W19617   2.976  18.211  14.041  0.0107 -0.1065 -0.1646
 2771W        W19618   0.872  15.843  14.968  0.4760 -0.0914  0.2153
 2772W        W19619  15.174   0.578   5.824 -0.3431 -0.0508  0.3848
 2773W        W19620   1.744   9.211  15.129 -0.0060  0.1594  0.0044
 2774W        W19621   2.479   0.106  13.922 -0.0765 -0.2282 -0.0174
 2775W        W19622   5.290  11.265   4.964 -0.0245  0.2533  0.2194
 2776W        W19623  14.846   1.265   0.156  0.0423 -0.1311  0.2280
 2777W        W19624   6.817   5.449   3.634 -0.0258  0.0884  0.0799
 2778W        W19625  13.166  15.904  13.558  0.2942 -0.0747 -0.2404
 2779W        W19626   6.371  17.387  13.047  0.0374 -0.1205  0.1344
 2780W        W19627  16.522   6.389  13.774  0.1733 -0.1220  0.0517
 2781W        W19628  16.451   8.514   4.317  0.2984 -0.0653  0.3872
 2782W        W19629  13.050   7.098   1.514  0.0897  0.0503 -0.3139
 2783W        W19630   4.258   0.434   1.236 -0.0515 -0.2022 -0.2385
 2784W        W19631  10.383  15.100   1.981  0.0467 -0.0225  0.1740
 2785W        W19632   7.328  18.095  15.424  0.1301  0.1261 -0.2912
 2786W        W19633  17.639   8.798   5.022  0.2235 -0.1916  0.1743
 2787W        W19634  16.582  18.322  12.865  0.1388  0.0975 -0.3565
 2788W        W19635  10.806  17.718   0.241  0.0210 -0.0120  0.1149
 2789W        W19636  17.219  14.800  14.630 -0.0933 -0.0355  0.0225
 2790W        W19637   8.752   9.642  16.144  0.0876 -0.2055 -0.1138
 2791W        W19638   7.347  12.930   0.662 -0.0467 -0.2617  0.1135
 2792W        W19639   4.608   5.369  14.985  0.3249  0.0150  0.0986
 2793W        W19640  14.634   5.475  11.002 -0.1787 -0.2882 -0.0047
 2794W        W19641  12.546  18.135   0.956 -0.2776 -0.2943 -0.0265
 2795W        W19642   1.203  10.472   4.806  0.1171  0.0257 -0.0941
 2796W        W19643   1.812   9.745   1.610  0.0044  0.0718  0.0336
 2797W        W19644  17.747   2.409   0.186 -0.0206  0.0330 -0.0032
 2798W        W19645   5.184   0.436  15.630  0.3590  0.1264 -0.3286
 2799W        W19646  18.203  17.075  14.426 -0.0916 -0.2006  0.1590
 2800W        W19647   7.783  15.533  15.410 -0.0735 -0.1509  0.1869
 2801W        W19648   9.852   1.584  14.153  0.1387 -0.0410 -0.3792
 2802W        W19649  12.434   4.576   4.728  0.3346  0.6054 -0.0064
 2803W        W19650  15.431   1.270   4.757 -0.0526 -0.1682  0.3087
 2804W        W19651  15.572   7.690   3.346 -0.0469  0.2120  0.1501
 2805W        W19652   3.601   5.750  16.319 -0.0942  0.2320  0.4160
 2806W        W19653  16.639   6.873  15.817  0.3006  0.0868 -0.2037
 2807W        W19654   5.809  16.780  15.457 -0.0975 -0.1426  0.3077
 2808W        W19655  17.865  16.497   1.201 -0.1767 -0.2071 -0.0769
 2809W        W19656  17.743  13.111  15.871 -0.2551  0.1404 -0.1457
 2810W        W19657   9.949   5.930  15.437  0.0718  0.2465  0.0593
 2811W        W19658  10.096  16.840  13.463 -0.1726  0.2142  0.0046
 2812W        W19659  11.249   1.118   1.056  0.4127  0.2199  0.0629
 2813W        W19660   3.384   7.537  11.735 -0.1320 -0.0680  0.0361
 2814W        W19661   5.095   4.713  14.720  0.2196  0.1097 -0.0742
 2815W        W19662   7.594   5.539  14.832 -0.0600  0.1496 -0.0476
 2816W        W19663   9.173  18.190  15.531  0.0680  0.1512  0.4688
 2817W        W19664  18.416  17.195   3.543  0.3249  0.3329 -0.2207
 2818W        W19665   6.593   7.247   0.882 -0.3954  0.0229  0.1385
 2819W        W19666  12.195  13.394   3.915  0.0679 -0.4374 -0.2336
 2820W        W19667   3.097  16.738  14.420 -0.0473 -0.3005  0.1186
 2821W        W19668   7.609   0.186  16.309 -0.0789  0.0814  0.1887
 2822W        W19669   8.752   5.201   5.895  0.1552 -0.1508  0.2493
 2823W        W19670   5.493  13.624   0.693  0.1859 -0.0199 -0.0888
 2824W        W19671  12.738  11.590   2.833  0.1863 -0.0498  0.2285
 2825W        W19672   4.855   8.931   3.946 -0.1591  0.1360  0.2365
 2826W        W19673  16.737  17.346   3.325  0.1245 -0.1335  0.2679
 2827W        W19674   5.799  15.958   2.056 -0.1259  0.0488  0.2176
 2828W        W19675  11.299   7.471   3.310 -0.2027 -0.2244  0.0283
 2829W        W19676  14.658   1.391   4.533  0.0694 -0.0449  0.0082
 2830W        W19677  10.977  15.859  15.632 -0.3544 -0.1550 -0.1022
 2831W        W19678  10.656   0.639   1.448  0.0581 -0.0351  0.3840
 2832W        W19679   4.769  15.295   4.708  0.2311 -0.0664  0.0148
 2833W        W19680   0.806  15.139  12.814  0.4038  0.0405  0.0084
 2834W        W19681   2.856  13.071   5.684 -0.1433  0.0237  0.0922
 2835W        W19682  11.342   7.606   5.179 -0.0565  0.1352 -0.1426
 2836W        W19683  13.899   0.797   2.479 -0.0195 -0.1991  0.0147
 2837W        W19684  16.998  10.784   4.909  0.3089 -0.2498 -0.1344
 2838W        W19685   8.788  12.844   5.957  0.2437 -0.1525 -0.2591
 2839W        W19686   6.941   2.948   5.688  0.2642 -0.1737 -0.1014
 2840W        W19687  12.716  12.526   3.126  0.0591 -0.0545 -0.3750
 2841W        W19688  17.055   7.997  15.227  0.0306 -0.2488  0.1358
 2842W        W19689   0.182  11.779   0.973 -0.1064 -0.0776  0.1053
 2843W        W19690   7.267   4.750   0.072 -0.1597 -0.0523 -0.0019
 2844W        W19691  13.364   5.980   4.015 -0.2003  0.2439  0.2330
 2845W        W19692  15.582  12.671   2.282 -0.0251 -0.1042  0.1202
 2846W        W19693   2.092  15.700  12.474  0.1147 -0.0509  0.0415
 2847W        W19694  10.373   6.858  16.141 -0.3329 -0.1777 -0.0068
 2848W        W19695   9.191  13.760   0.403 -0.0828  0.1185 -0.2606
 2849W        W19696   8.614   0.324  15.606 -0.1165 -0.1620 -0.0442
 2850W        W19697   0.801  12.978   2.336  0.1769  0.2053  0.0727
 2851W        W19698  10.965   5.668   1.210 -0.3272 -0.3058  0.0350
 2852W        W19699  13.385  12.864  13.240  0.0869  0.0178  0.0445
 2853W        W19700   4.705   6.754  14.638  0.3332 -0.0833  0.0674
 2854W        W19701   7.757   4.810   0.853 -0.1125  0.1102 -0.3333
 2855W        W19702   4.778   1.230   5.282 -0.2801 -0.2194 -0.2148
 2856W        W19703   7.796   6.012  11.604 -0.1093  0.0340 -0.2082
 2857W        W19704   8.813   6.737   4.005 -0.0001  0.2132 -0.0711
 2858W        W19705  15.803  17.791  12.944  0.1741 -0.3518  0.0482
 2859W        W19706  17.777   7.553   0.651  0.0589  0.0607 -0.1185
 2860W        W19707  16.628   3.047   3.186  0.2330 -0.0869  0.0601
 2861W        W19708  16.906  15.124   2.610 -0.1702  0.0156  0.1467
 2862W        W19709   6.445   0.485  15.032 -0.0565  0.1559 -0.1511
 2863W        W19710  11.579   1.039  13.922 -0.6380 -0.1095  0.0072
 2864W        W19711   7.652  10.419   2.797  0.3494 -0.1389 -0.1784
 2865W        W19712   7.676   5.393  15.335  0.0619  0.2290  0.2659
 2866W        W19713  17.677  12.119  13.126 -0.1572  0.1830 -0.0998
 2867W        W19714   8.723   8.374  12.982 -0.0359 -0.0437  0.1629
 2868W        W19715   5.701   2.834  11.872 -0.1554 -0.1506 -0.0391
 2869W        W19716  13.855  16.132   2.996 -0.5123  0.1965  0.0628
 2870W        W19717  15.938  14.211  14.316  0.1451  0.1271 -0.0737
 2871W        W19718   7.479   6.248  11.864 -0.0415 -0.0797 -0.0761
 2872W        W19719   3.949   5.553   3.029  0.2398 -0.0147 -0.3126
 2873W        W19720   5.393   5.130   3.172  0.0570 -0.0531 -0.0740
 2874W        W19721   5.310   7.165   3.929 -0.3866 -0.1955  0.1830
 2875W        W19722  12.067  17.746   0.329 -0.1196  0.0470  0.1913
 2876W        W19723   6.018  17.093  13.868 -0.0811 -0.2609 -0.0953
 2877W        W19724  15.484  17.903   1.995 -0.1757 -0.3409 -0.1187
 2878W        W19725  10.589   3.534  11.570 -0.1153 -0.1013  0.3668
 2879W        W19726   0.762   5.787   1.040 -0.1914 -0.3497  0.1326
 2880W        W19727  16.566  17.877   5.345 -0.2528 -0.2458 -0.0202
 2881W        W19728  10.895  11.801  13.130 -0.1394 -0.2405  0.0320
 2882W        W19729  17.019   9.560  12.013 -0.1714  0.5881 -0.3966
 2883W        W19730   4.802  12.588  14.057  0.1589  0.0130  0.2500
 2884W        W19731  13.629   0.104   5.558 -0.0169 -0.0163 -0.1591
 2885W        W19732  10.318  16.834   1.318 -0.0407 -0.0005  0.2629
 2886W        W19733  13.962   4.902  15.108 -0.0201  0.1699 -0.0974
 2887W        W19734  12.873   4.223  11.914 -0.1679  0.1380  0.1227
 2888W        W19735  10.223   3.213  11.344  0.3713  0.0942  0.2186
 2889W        W19736   8.459  12.281  15.786 -0.1946 -0.3473 -0.1464
 2890W        W19737   9.075   8.601   2.919 -0.1211 -0.1975  0.1052
 2891W        W19738   3.838   1.546  14.076 -0.2992 -0.0207  0.1295
 2892W        W19739   7.460  18.059   0.392 -0.0313  0.0624 -0.1153
 2893W        W19740   9.255  17.694   2.100 -0.5060 -0.0626  0.1034
 2894W        W19741  11.542  16.156  14.035  0.1656  0.2357 -0.1092
 2895W        W19742   1.766   8.327  14.875 -0.3826  0.0958  0.1279
 2896W        W19743  15.563  14.110  11.954 -0.0880 -0.0829 -0.3003
 2897W        W19744   3.907   1.980   0.207  0.2668 -0.3586  0.1434
 2898W        W19745  12.314   1.202   3.848  0.0733  0.0851  0.1590
 2899W        W19746  11.599  11.672   0.651  0.0369  0.2942  0.2719
 2900W        W19747   7.843  10.641   4.168  0.0509 -0.3242  0.1292
 2901W        W19748   6.356  10.267   3.184 -0.0312 -0.0422 -0.0804
 2902W        W19749   5.537  10.053  14.125  0.0800  0.0410 -0.0362
 2903W        W19750  15.612   0.072  16.280  0.3066  0.1202  0.0508
 2904W        W19751  11.101   2.008  14.561  0.2674 -0.2566  0.2122
 2905W        W19752  10.753  17.137  14.198  0.0430 -0.0683 -0.2569
 2906W        W19753   3.762   9.640  15.280  0.4233  0.2632 -0.2436
 2907W        W19754  17.548  14.571   3.566  0.0802 -0.0497 -0.1018
 2908W        W19755   8.592  15.193  13.207 -0.1364  0.3491  0.2052
 2909W        W19756   2.694   9.987   2.491  0.2430  0.2168  0.0598
 2910W        W19757  17.033  11.034   3.224 -0.0555  0.2054 -0.0415
 2911W        W19758  13.073   2.823  13.463 -0.0226  0.1867 -0.2027
 2912W        W19759  15.159   9.123   3.132  0.2019 -0.4438  0.2174
 2913W        W19760   3.855  17.591   2.139 -0.2313  0.0364 -0.4223
 2914W        W19761   7.333  13.166  11.760 -0.1998 -0.2956  0.2846
 2915W        W19762   7.456   1.558   1.203  0.3158 -0.3190  0.0304
 2916W        W19763   9.500   4.736   1.282  0.0647  0.1003 -0.0360
 2917W        W19764   8.698   9.011   5.050  0.3684  0.2886  0.3728
 2918W        W19765   1.332  11.439   0.400  0.0283  0.0788  0.2433
 2919W        W19766  14.366   5.704   1.178  0.0317 -0.2264 -0.0375
 2920W        W19767   4.124   9.339  13.888 -0.2379  0.1168  0.1662
 2921W        W19768   1.595   4.260  11.147 -0.1858  0.2894 -0.0588
 2922W        W19769   2.243  16.582   5.339  0.2159  0.1616 -0.2633
 2923W        W19770  12.573   9.402  10.168 -0.0282 -0.2366 -0.3035
 2924W        W19771  10.108  15.057  12.366  0.0930 -0.1949  0.0331
 2925W        W19772   0.918   9.365   5.063 -0.2937 -0.0026 -0.0418
 2926W        W19773  10.757  14.618   4.936  0.0644  0.1382  0.0249
 2927W        W19774  11.171  17.998   5.242 -0.2168  0.2708 -0.0179
 2928W        W19775   1.812  15.651  15.597  0.0177  0.1927  0.3892
 2929W        W19776  10.782   6.479   1.881  0.0206  0.1361 -0.1432
 2930W        W19777  10.055  15.539  15.434 -0.2708 -0.1999 -0.0121
 2931W        W19778   7.684   3.627   1.943 -0.0389  0.2082  0.1183
 2932W        W19779   1.976   9.116  13.536  0.0841  0.1860 -0.1154
 2933W        W19780   2.862   5.825  12.496  0.0322  0.1457  0.0940
 2934W        W19781   7.832   8.549  11.730  0.0391  0.1115 -0.1175
 2935W        W19782   3.793   6.640  13.430  0.2455 -0.4110 -0.0930
 2936W        W19783  12.353   0.976  14.647 -0.1995  0.0256  0.0839
 2937W        W19784   4.868   4.557   4.991 -0.0023  0.2428 -0.0234
 2938W        W19785  17.412  11.311   0.737 -0.1104 -0.0001  0.0293
 2939W        W19786   4.714  13.366  13.725 -0.4727  0.2609 -0.0307
 2940W        W19787   6.579   9.924  12.395 -0.2963  0.3053  0.0959
 2941W        W19788   5.227  13.133   4.314  0.1014 -0.4043  0.2680
 2942W        W19789   6.386   5.762   2.607  0.2884  0.2763 -0.0839
 2943W        W19790  17.132   9.478  12.910  0.3442 -0.0587 -0.0046
 2944W        W19791   3.144  12.953   2.437 -0.1320 -0.2004 -0.1348
 2945W        W19792   8.985   8.304   4.377  0.1810 -0.1373 -0.1425
 2946W        W19793  16.750   3.119   0.299  0.0908 -0.0214  0.0521
 2947W        W19794   5.688   9.037   1.015  0.0012 -0.0342 -0.1650
 2948W        W19795  17.985   7.850  13.130  0.3058 -0.1555  0.2531
 2949W        W19796   5.790  13.922   2.692 -0.2320 -0.0585 -0.2347
 2950W        W19797  17.493   2.173  11.975  0.0683  0.2628 -0.0416
 2951W        W19798  10.094   3.434  12.749 -0.1197  0.3720 -0.2766
 2952W        W19799   9.173   6.914   4.281  0.2192 -0.1157 -0.1114
 2953W        W19800  17.625  15.998   0.577 -0.0069  0.0411 -0.0956
 2954W        W19801  10.446   0.762  13.075 -0.0052  0.0731  0.1257
 2955W        W19802   7.112  14.838  13.727 -0.2066  0.1634 -0.0435
 2956W        W19803  11.545  18.125   3.515  0.4489  0.1169  0.2061
 2957W        W19804  12.478   4.081   4.509  0.0009  0.0041  0.1668
 2958W        W19805  11.979   3.252   1.775  0.2600  0.0229 -0.0821
 2959W        W19806   8.724  14.800   3.331  0.1942  0.2550 -0.0274
 2960W        W19807   7.781  16.898  15.311 -0.0126  0.1914  0.1324
 2961W        W19808   7.147  10.015  12.442  0.2675  0.0705 -0.0932
 2962W        W19809  15.821   0.040  14.648 -0.0082 -0.0309  0.0046
 2963W        W19810  12.821   3.250   3.063 -0.0357  0.4833  0.0277
 2964W        W19811   4.105   9.071   6.070 -0.1607 -0.5305  0.1285
 2965W        W19812  14.069  17.854   1.983  0.0626 -0.5697 -0.0570
 2966W        W19813  15.465   5.942   1.105 -0.0529 -0.0531  0.4763
 2967W        W19814   8.134   0.847   3.112  0.2517 -0.3348  0.1562
 2968W        W19815   2.993  14.037   0.659 -0.1133  0.0087 -0.1333
 2969W        W19816   2.881   9.909  11.976  0.1268 -0.0891  0.0435
 2970W        W19817  16.195  17.042   2.640 -0.0599  0.1966 -0.1214
 2971W        W19818   1.167  16.814  11.354  0.1835  0.1548  0.2900
 2972W        W19819   1.105   4.129  12.440 -0.4225 -0.1818 -0.3195
 2973W        W19820  14.053   0.485   1.150 -0.1310  0.0832  0.1774
 2974W        W19821  17.170   2.505   1.442  0.0078  0.3067 -0.0108
 2975W        W19822  16.839  11.660  12.696 -0.0736 -0.0926  0.2041
 2976W        W19823   9.408   2.979  14.548  0.3175  0.1404  0.0285
 2977W        W19824   2.962   7.352  15.149 -0.2069  0.2179 -0.2671
 2978W        W19825  17.650  16.019   4.158  0.0961  0.2416  0.1263
 2979W        W19826   0.868  15.678   2.160 -0.0647 -0.0190 -0.0622
 2980W        W19827  11.023   9.755   4.904  0.3176  0.3334 -0.0421
 2981W        W19828  12.109  12.806  12.280 -0.3346  0.0463  0.0777
 2982W        W19829  18.046   3.445  11.096 -0.1910 -0.0387  0.1714
 2983W        W19830  18.062  13.156  12.944 -0.0946 -0.2134  0.2110
 2984W        W19831   9.624  16.541   4.705  0.1713 -0.4515  0.1595
 2985W        W19832  12.641   7.697   0.341  0.0017  0.2279  0.0976
 2986W        W19833   6.193  10.118  16.366  0.1063 -0.0058 -0.2553
 2987W        W19834  10.044   9.028  12.455 -0.2715 -0.4546 -0.5252
 2988W        W19835  14.667  11.393   1.345 -0.1200 -0.0266  0.0363
 2989W        W19836   7.865  16.302  11.387  0.1510 -0.0528 -0.1034
 2990W        W19837  15.099   3.746  11.053 -0.1945  0.2219 -0.0967
 2991W        W19838   3.391   1.831  11.241 -0.2785  0.2319 -0.2567
 2992W        W19839  14.556   3.276  14.106 -0.1061 -0.0813 -0.1269
 2993W        W19840   1.135   2.732  12.699  0.1518  0.2867 -0.1234
 2994W        W19841  18.218  11.973   5.177 -0.0474 -0.3690 -0.1681
 2995W        W19842   3.720  14.060   2.947 -0.2033 -0.2761 -0.4438
 2996W        W19843  16.175   5.896   0.737  0.0083 -0.1737  0.1118
 2997W        W19844  17.188   0.164   3.008  0.1904  0.1406 -0.0031
 2998W        W19845   7.844  10.647  13.650  0.1031 -0.1093  0.0380
 2999W        W19846   5.507   5.322  12.567  0.2020  0.3609  0.0980
 3000W        W19847   2.317  11.354   1.696  0.2003 -0.1230  0.3262
 3001W        W19848   3.625   8.722  14.064  0.1314 -0.0199  0.2159
 3002W        W19849   2.097   0.824  13.052 -0.1863  0.2551  0.0764
 3003W        W19850  16.342  10.077   5.788  0.1314  0.0375  0.2542
 3004W        W19851   5.949  16.405  13.118 -0.4434 -0.1134 -0.1254
 3005W        W19852   0.652   5.049   3.791  0.1980 -0.1740  0.0864
 3006W        W19853   8.889   4.311   4.437 -0.1552  0.1058 -0.0387
 3007W        W19854  17.398  14.422  15.916  0.0339 -0.3220 -0.3192
 3008W        W19855   6.279   8.779  13.042 -0.0899 -0.0064  0.0688
 3009W        W19856  17.928  13.580  14.442  0.0270 -0.1421  0.2128
 3010W        W19857   1.922   2.117   0.746  0.0269  0.0555  0.0380
 3011W        W19858   8.727   5.946  16.007 -0.0312  0.1892  0.3718
 3012W        W19859  17.882  14.878   3.544  0.1786  0.0675  0.0207
 3013W        W19860   8.104  11.804  13.120 -0.0570  0.1636  0.0740
 3014W        W19861   4.902   5.421  13.405 -0.3238  0.1773  0.1101
 3015W        W19862  13.581  13.356  13.099 -0.2203  0.1027  0.4212
 3016W        W19863   3.202  15.588   1.606 -0.2769  0.0299 -0.4151
 3017W        W19864  16.342  16.569   3.994 -0.1506 -0.0879  0.3745
 3018W        W19865   7.527  17.322  15.154  0.2897 -0.0865  0.2681
 3019W        W19866  15.300  11.466  12.233 -0.2271 -0.0830 -0.2367
 3020W        W19867   9.881   2.122  10.717 -0.2439  0.1690  0.0849
 3021W        W19868   5.966   4.778  10.252  0.1179  0.2200 -0.0810
 3022W        W19869  11.968  11.683  10.412 -0.3577 -0.3469 -0.1028
 3023W        W19870  11.379   8.335   2.175 -0.1865 -0.0121 -0.4924
 3024W        W19871   4.922  13.971  16.131  0.1427  0.1636 -0.2928
 3025W        W19872  15.724  14.997  15.890 -0.1388 -0.1648  0.0083
 3026W        W19873  13.076  15.995  15.545 -0.0267  0.4312 -0.1642
 3027W        W19874   8.250   5.334   2.258 -0.0795 -0.0118 -0.1426
 3028W        W19875  12.372  12.441   2.778  0.1363 -0.0067 -0.0062
 3029W        W19876   8.429   2.568   0.488 -0.0014 -0.1402 -0.1247
 3030W        W19877  17.611   6.165  13.263  0.1311 -0.3250 -0.1319
 3031W        W19878   6.750  15.148  15.056  0.0941  0.1510 -0.0656
 3032W        W19879   9.923   7.534  14.585 -0.2269  0.3264  0.2810
 3033W        W19880  13.635  15.278  14.591 -0.2013 -0.1771  0.3187
 3034W        W19881   3.285  15.573   2.480  0.1876  0.3997  0.0267
 3035W        W19882   9.644  10.150   1.923  0.0387 -0.3712  0.0118
 3036W        W19883  14.061  13.010   4.502  0.0037  0.0690  0.2407
 3037W        W19884   4.890  12.356   5.513  0.0851 -0.0883 -0.0884
 3038W        W19885   5.335  13.395   1.666  0.1894  0.1631 -0.0315
 3039W        W19886   6.249   5.477  11.376  0.2231  0.0123  0.0462
 3040W        W19887  12.402  12.083   1.351  0.2712  0.1773 -0.3263
 3041W        W19888  15.244   7.936  15.270  0.1209  0.1306 -0.1317
 3042W        W19889  14.386  16.917   4.234 -0.0199 -0.2172  0.1278
 3043W        W19890   5.911   8.843  11.847  0.3385  0.1506  0.2578
 3044W        W19891   6.923  13.137   0.479 -0.2875  0.2465  0.1690
 3045W        W19892   8.245  13.401  12.305 -0.4067  0.1545  0.0255
 3046W        W19893  11.767  10.681  12.563 -0.0855 -0.0002 -0.0765
 3047W        W19894   5.040  12.225  12.156  0.0895 -0.0659 -0.0181
 3048W        W19895   8.438   2.791  15.940  0.0453  0.1088 -0.0855
 3049W        W19896   9.365  15.858  15.449  0.1100 -0.1884  0.0460
 3050W        W19897   0.741  15.280   3.790  0.1133  0.0137 -0.3286
 3051W        W19898  14.432  16.333   5.183  0.0275 -0.1577  0.4572
 3052W        W19899  15.376  12.114   2.354 -0.3464  0.2830  0.2910
 3053W        W19900   8.901   5.036   1.838 -0.0165  0.1301  0.2032
 3054W        W19901   2.907  16.371  16.203  0.2254 -0.2485  0.0049
 3055W        W19902   9.556   4.337   5.374  0.1297  0.1626  0.0882
 3056W        W19903  10.974   8.461  13.256 -0.3149 -0.3867  0.1593
 3057W        W19904  14.134  15.411   3.469 -0.3641 -0.1804 -0.1761
 3058W        W19905  11.657  13.836   4.920 -0.1992 -0.0219  0.1859
 3059W        W19906   8.314   2.227  12.144  0.0870  0.2506 -0.0192
 3060W        W19907  14.562  16.514  11.189 -0.0018 -0.0178  0.0841
 3061W        W19908  10.733   6.705  13.097 -0.1301  0.2778  0.2125
 3062W        W19909   3.763   7.990  14.858  0.0443  0.2836 -0.1045
 3063W        W19910   4.744   0.384  11.770  0.1015 -0.1091 -0.1192
 3064W        W19911  16.267   5.348   0.893 -0.0956  0.2326 -0.0947
 3065W        W19912   7.320   4.974  12.301 -0.1943 -0.0562 -0.0339
 3066W        W19913   8.177   3.164  13.096  0.3399  0.1165  0.5158
 3067W        W19914   1.877   6.515  14.613 -0.0409 -0.2110  0.0971
 3068W        W19915  16.193  12.352  14.669 -0.0625  0.2512  0.0345
 3069W        W19916   6.890   4.751   5.618  0.3437 -0.0912 -0.1597
 3070W        W19917  12.816  15.944   4.763 -0.3026  0.0841 -0.0714
 3071W        W19918  17.856  15.890  13.960  0.2831 -0.0933  0.0411
 3072W        W19919  16.612   5.078  13.358 -0.0347  0.1461  0.3294
 3073W        W19920  17.427  17.367  12.030 -0.0957  0.0556 -0.0857
 3074W        W19921   0.115   9.978   3.247  0.3141 -0.1001 -0.2450
 3075W        W19922  11.635   8.272  14.817  0.2972 -0.1472 -0.0669
 3076W        W19923  17.859  11.503   0.018 -0.1517  0.3389 -0.0950
 3077W        W19924  16.436   4.826   3.675  0.0467  0.1996  0.5471
 3078W        W19925  13.885  10.438   3.554  0.0773  0.0405  0.0771
 3079W        W19926   6.270  12.036   1.268  0.0580  0.1200  0.3126
 3080W        W19927   7.145  18.216   2.826 -0.0549  0.0236 -0.0459
 3081W        W19928   7.418  13.594  13.043  0.1544 -0.1439  0.1641
 3082W        W19929  17.236   4.520  14.392 -0.1994 -0.1126 -0.0245
 3083W        W19930   5.796   0.733   2.192  0.1238 -0.1501  0.0562
 3084W        W19931   8.388  11.813   2.741  0.2227  0.3459 -0.2967
 3085W        W19932   9.414  14.232   5.412 -0.3120 -0.1717  0.1215
 3086W        W19933   0.148  10.887  12.303 -0.0229  0.0191 -0.0445
 3087W        W19934   8.299   6.865   4.098  0.1409 -0.2228 -0.1897
 3088W        W19935   6.405  11.359   0.112  0.0229  0.0921 -0.3015
 3089W        W19936   6.487   3.740   4.109  0.2336  0.2544 -0.1782
 3090W        W19937  10.458   9.349  12.930  0.0109  0.2445 -0.1253
 3091W        W19938   6.320   2.958  12.776 -0.1173  0.0784  0.1937
 3092W        W19939   6.829  11.910  15.553  0.0217 -0.1470 -0.2526
 3093W        W19940  15.083   8.618   3.360  0.2619  0.0782  0.2828
 3094W        W19941   9.590   1.782   1.949  0.2304  0.2189  0.0584
 3095W        W19942   6.517  16.656  15.911  0.2001  0.2670 -0.2056
 3096W        W19943   9.757  14.878  15.541  0.1444  0.0130  0.2971
 3097W        W19944  15.695  12.813   2.955 -0.2154  0.0167  0.2285
 3098W        W19945  14.307  14.666  14.282 -0.0741  0.1072  0.0897
 3099W        W19946  16.592   5.242  11.701  0.1412 -0.2762  0.0011
 3100W        W19947  16.168   3.332   1.185 -0.0504  0.1346 -0.1444
 3101W        W19948  13.574  13.490  11.619  0.2015  0.2713 -0.0663
 3102W        W19949   4.740  15.530  13.775  0.0969  0.0596 -0.0786
 3103W        W19950  15.356  14.297   0.534 -0.0527  0.0073  0.2393
 3104W        W19951  16.135   9.250   2.854 -0.0743 -0.3050 -0.0310
 3105W        W19952  14.449  11.229   0.879 -0.3703  0.2084 -0.2261
 3106W        W19953   6.324  13.169  11.371  0.1240  0.0205 -0.1754
 3107W        W19954   1.805   4.327  14.701  0.3742 -0.2300 -0.2189
 3108W        W19955   0.440  14.677  12.073 -0.0114  0.0900  0.1954
 3109W        W19956  17.816  14.547   0.917 -0.1015 -0.0378  0.0587
 3110W        W19957  16.296  13.706   1.659  0.0945  0.3083 -0.0727
 3111W        W19958   6.016   9.550  14.960 -0.2551  0.3000  0.2286
 3112W        W19959   7.511  16.660   2.201 -0.1714 -0.0997 -0.0627
 3113W        W19960  10.580  12.030  12.716 -0.0691  0.1892  0.0073
 3114W        W19961   4.198  17.168   5.444 -0.1382 -0.0852  0.0123
 3115W        W19962  10.281  12.345   0.906 -0.0304 -0.3344  0.2555
 3116W        W19963   2.438   0.602  12.360  0.0884 -0.0220  0.1295
 3117W        W19964   1.564  16.137   4.868 -0.1693 -0.1619 -0.0092
 3118W        W19965   0.649   3.139  15.347 -0.2602 -0.1492  0.1108
 3119W        W19966  18.201   2.905  12.270  0.2215 -0.0089  0.1991
 3120W        W19967  13.240   2.172  14.457 -0.3471 -0.0274  0.1958
 3121W        W19968   1.218   0.670   0.939 -0.2725 -0.1146 -0.5252
 3122W        W19969   3.117   2.525   1.451  0.5074 -0.0076  0.2576
 3123W        W19970  12.187  10.862   1.819  0.1394 -0.1463  0.0042
 3124W        W19971  18.238  15.849   4.455  0.0590  0.0385 -0.3558
 3125W        W19972  16.129  10.273   2.343 -0.0322  0.3705 -0.1919
 3126W        W19973   6.532  10.651   2.899  0.4203  0.1889  0.3558
 3127W        W19974   9.120  12.821   1.925  0.2044 -0.0856  0.1132
 3128W        W19975   3.462   3.811   1.997  0.2095 -0.0969 -0.2506
 3129W        W19976  16.198   9.777  13.641 -0.1454 -0.3972  0.0109
 3130W        W19977   6.659   9.210  10.718  0.1230  0.1992 -0.0205
 3131W        W19978  16.065   1.134   6.022 -0.2470 -0.1080 -0.0032
 3132W        W19979  13.437   0.160  15.629  0.5410 -0.2139  0.2650
 3133W        W19980   7.873  11.609   3.882 -0.0956  0.0543  0.0184
 3134W        W19981   6.224   5.469  11.842  0.5571  0.0661  0.1278
 3135W        W19982   5.835   9.339   3.196 -0.2302 -0.2292 -0.0319
 3136W        W19983   2.331  16.280   0.797 -0.0025  0.3296 -0.0045
 3137W        W19984  12.163   5.816   4.197  0.0842  0.0294  0.0257
 3138W        W19985   8.988  10.362  12.688  0.2089  0.1000  0.2511
 3139W        W19986  15.352   3.567   1.793 -0.0741  0.2646 -0.2321
 3140W        W19987   3.592   3.696  13.181 -0.2174 -0.1875 -0.0864
 3141W        W19988   3.091   0.010  13.185 -0.1150 -0.0434  0.0756
 3142W        W19989  17.881  14.505  16.071  0.0337  0.1863 -0.1179
 3143W        W19990   7.015   9.257   3.968  0.0656 -0.1728 -0.2544
 3144W        W19991   9.611   2.533  12.590 -0.0266 -0.1305  0.1697
 3145W        W19992   1.264   8.770   3.275  0.0154  0.1496 -0.0822
 3146W        W19993   3.544   8.843   3.288 -0.3198  0.1154 -0.0195
 3147W        W19994  14.216  14.528  12.507  0.1478 -0.0586  0.1311
 3148W        W19995   3.855  16.178   0.085 -0.0420 -0.0328  0.0886
 3149W        W19996  17.634   1.721  10.189 -0.2582  0.0170  0.3549
 3150W        W19997  14.391   4.580   3.636  0.1235 -0.0852 -0.0212
 3151W        W19998   3.950   5.393  13.599  0.0577 -0.1040  0.1445
 3152W        W19999  10.461   2.846  11.714  0.1907 -0.0134  0.0138
 3153W        W20000   4.156   1.265  11.520 -0.0592 -0.1963 -0.2061
 3154W        W20001   2.375  17.715  16.062  0.0142 -0.0162 -0.0179
 3155W        W20002  16.025  18.183  15.023 -0.2129  0.0472 -0.2514
 3156W        W20003   8.224   9.265  13.009  0.2227  0.0110  0.1360
 3157W        W20004   3.201  13.794   5.722 -0.0543 -0.0437 -0.2591
 3158W        W20005   2.056  14.243   3.806 -0.1546  0.0723 -0.0698
 3159W        W20006   7.468   3.884   1.311  0.0289  0.2580 -0.2979
 3160W        W20007  14.406   9.518  13.929 -0.1861 -0.2540  0.2119
 3161W        W20008  18.204  10.489  14.697 -0.2241 -0.2125  0.2115
 3162W        W20009   2.500  10.280   4.963  0.0141 -0.2793 -0.3015
 3163W        W20010  17.523   9.712   3.444 -0.1384 -0.1720  0.0252
 3164W        W20011   5.794   4.561   3.777 -0.1738 -0.1742  0.2619
 3165W        W20012   8.223   4.965   1.086  0.4240  0.2525  0.0887
 3166W        W20013   9.028  11.205   2.501 -0.0114 -0.0753 -0.0273
 3167W        W20014  17.384  17.857   1.762  0.0906  0.0826 -0.1089
 3168W        W20015  13.232  18.228   4.250 -0.0513  0.3349  0.1779
 3169W        W20016   3.441  18.084  13.239 -0.0113 -0.2277  0.1556
 3170W        W20017  17.343  15.189   3.260  0.3092  0.0818  0.0161
 3171W        W20018  10.629  11.527   5.249 -0.1980  0.0689  0.0791
 3172W        W20019   8.461  18.022   2.994 -0.1724  0.0661  0.1395
 3173W        W20020   4.689   7.335  12.432 -0.2202 -0.0986  0.4108
 3174W        W20021   5.748  11.928   0.393 -0.0012  0.2058  0.1111
 3175W        W20022  14.615  11.931  13.804 -0.0479  0.4731 -0.1282
 3176W        W20023   5.024   0.043   2.298  0.0117  0.4944 -0.0397
 3177W        W20024   9.979  17.547   4.966  0.2432  0.2538  0.1359
 3178W        W20025   7.186  17.108   4.687  0.0547 -0.0151 -0.2346
 3179W        W20026  13.973  10.717  14.062 -0.1014 -0.0554 -0.0820
 3180W        W20027   6.187   0.819  13.605  0.0359  0.0124 -0.2527
 3181W        W20028   6.512   3.142  14.475 -0.1774  0.0348 -0.2506
 3182W        W20029  15.890  11.051   1.281  0.2671 -0.1289 -0.1529
 3183W        W20030   6.959  16.853   1.636 -0.1617 -0.0490  0.2321
 3184W        W20031  16.844  13.642  13.191  0.1009 -0.1957 -0.0776
 3185W        W20032   2.674  13.810  11.642 -0.4153 -0.1359  0.0457
 3186W        W20033   4.707   2.789  11.976  0.0581  0.0667 -0.2911
 3187W        W20034   7.622  13.322  15.528 -0.1616  0.3278  0.2873
 3188W        W20035   2.572   4.581  10.651  0.1031 -0.3066 -0.0639
 3189W        W20036  12.128   8.360  14.886  0.2191 -0.2041 -0.0985
 3190W        W20037   3.247   3.436   3.366  0.0280 -0.0896  0.0912
 3191W        W20038  18.216  16.861   0.483  0.4157  0.1851  0.3182
 3192W        W20039  13.464  11.017  16.338  0.0630 -0.0673 -0.0894
 3193W        W20040  14.645   9.465   0.998 -0.0338 -0.1516  0.0928
 3194W        W20041  10.336  17.545  14.474 -0.2927  0.0291  0.4624
 3195W        W20042   1.023  13.834  14.365  0.4690 -0.0975  0.2605
 3196W        W20043  11.604  14.581  12.613  0.1042  0.0773  0.1058
 3197W        W20044  11.252  14.766   5.020  0.0555  0.0060  0.0970
 3198W        W20045  15.345  12.874   4.237  0.2439  0.0560  0.0670
 3199W        W20046   8.717  13.941   3.149 -0.2034  0.0599 -0.0364
 3200W        W20047  13.979   0.669   3.061  0.1517 -0.1448 -0.0379
 3201W        W20048   0.627   7.315   4.800 -0.2904  0.0586 -0.1020
 3202W        W20049  17.314  13.075  11.877  0.1179 -0.2208 -0.0671
 3203W        W20050  15.311  15.071   4.194 -0.0831 -0.0890  0.1527
 3204W        W20051   2.668  15.900  13.796 -0.2235  0.3320 -0.0092
 3205W        W20052   9.712   2.253   2.891  0.0911  0.0651  0.0321
 3206W        W20053   8.026  14.989  11.707  0.0023  0.1151  0.5229
 3207W        W20054  12.663   9.188  11.672  0.1969  0.0335  0.0294
 3208W        W20055   8.609   7.898  12.935  0.0549 -0.2100  0.1071
 3209W        W20056  13.354  16.584   0.778  0.3744  0.0861  0.1882
 3210W        W20057   9.270   6.299   1.691 -0.0669 -0.0260 -0.1634
 3211W        W20058  17.536   7.806  12.894  0.1037  0.1537 -0.1650
 3212W        W20059  12.454  14.858   6.235 -0.3089  0.0033 -0.0707
 3213W        W20060   6.252   3.769  13.462  0.1845 -0.0323 -0.0036
 3214W        W20061   0.085   3.966  11.877  0.2551  0.2638 -0.0243
 3215W        W20062   0.860  16.407   5.101  0.0585 -0.0935  0.0228
 3216W        W20063   9.283  11.996   4.127  0.1854  0.3804  0.2413
 3217W        W20064   9.464   5.042   6.026  0.1831 -0.3277  0.1744
 3218W        W20065   8.248   9.117   5.445 -0.1841  0.0682  0.1010
 3219W        W20066   7.897   0.513   0.194  0.3756  0.0866 -0.0706
 3220W        W20067  12.256   0.124  13.653 -0.1962 -0.0648 -0.1861
 3221W        W20068   2.340   5.953  14.164 -0.0566  0.1585 -0.2922
 3222W        W20069  10.672   3.859   2.312 -0.2811  0.0059  0.0213
 3223W        W20070   3.738   8.841  14.820 -0.0178 -0.0386  0.2066
 3224W        W20071  11.139   1.147   4.552 -0.3560  0.3025 -0.4413
 3225W        W20072   0.682  14.255   0.418  0.2836 -0.0700  0.0773
 3226W        W20073   5.913   3.719   1.290  0.2585 -0.1885 -0.2805
 3227W        W20074   6.248  16.616   4.803 -0.2692 -0.2527  0.3863
 3228W        W20075  10.154   7.347  13.216 -0.0113 -0.2175 -0.2043
 3229W        W20076   4.145   8.763   2.271 -0.0263 -0.2913 -0.1250
 3230W        W20077  14.903  11.390   3.872  0.1762 -0.0744 -0.0730
 3231W        W20078   8.945  11.557   5.814  0.0311  0.1824 -0.1377
 3232W        W20079   8.545   2.961   6.307 -0.0486 -0.3784 -0.3045
 3233W        W20080   3.895  15.513   2.746  0.4585  0.1444 -0.0570
 3234W        W20081  15.470   4.538  13.630  0.2741  0.1851  0.2724
 3235W        W20082   1.886  14.707   3.856 -0.2342 -0.1015 -0.2816
 3236W        W20083  14.507   1.382   1.479  0.0185 -0.0431 -0.0112
 3237W        W20084   4.216  15.595  15.141 -0.0006  0.1780  0.3148
 3238W        W20085  14.755  17.721  15.759  0.1771  0.4533  0.2431
 3239W        W20086   7.431  11.869  12.260  0.0762  0.1156 -0.0436
 3240W        W20087  15.796  11.527   3.799  0.1853 -0.1311 -0.1599
 3241W        W20088  16.653  17.558   4.339 -0.0848 -0.0051  0.1385
 3242W        W20089  15.175   2.837  11.347  0.0596 -0.1934 -0.0275
 3243W        W20090  12.597  17.643  13.583  0.1706 -0.0956 -0.3346
 3244W        W20091   2.976   2.024  13.681 -0.2417 -0.0128  0.0847
 3245W        W20092  12.895  12.038  14.273 -0.4586  0.1288 -0.3543
 3246W        W20093  16.193  13.517   5.201  0.0663  0.1222 -0.0485
 3247W        W20094  13.444   1.405  13.526 -0.0055  0.2398 -0.0709
 3248W        W20095   3.458   4.741   2.916 -0.0164 -0.0387  0.2555
 3249W        W20096  12.745  11.134   3.926  0.3186 -0.2329  0.2145
 3250W        W20097  12.257   6.158  11.107 -0.0610 -0.0383  0.1720
 3251W        W20098   6.571   1.788  13.903 -0.1143 -0.2034  0.2615
 3252W        W20099  17.619   2.653   1.782  0.0089 -0.2914  0.2469
 3253W        W20100   6.605   3.429   5.779 -0.0218  0.0024  0.0563
 3254W        W20101  18.137   1.954   3.938  0.0823  0.0976  0.1274
 3255W        W20102   7.366  15.086   3.063  0.0440 -0.1122 -0.3679
 3256W        W20103  10.017   5.362  15.311 -0.0658  0.1725  0.0113
 3257W        W20104  17.557   9.257  15.120 -0.0319  0.2669  0.3147
 3258W        W20105   8.773  17.698  15.511  0.3595  0.0102 -0.1571
 3259W        W20106   9.171   7.384   4.140 -0.2420  0.1963  0.1581
 3260W        W20107   8.757  17.018  14.214  0.2238  0.2268  0.3076
 3261W        W20108  15.982  10.587   1.546 -0.3709  0.2246  0.1542
 3262W        W20109  12.716   3.731  13.546  0.0636  0.2336 -0.0511
 3263W        W20110  12.289  14.527   2.124  0.2469  0.0382 -0.1386
 3264W        W20111  12.422  17.301   2.528 -0.1441  0.2084  0.0061
 3265W        W20112   4.177   3.181   2.552  0.1961 -0.1116 -0.1371
 3266W        W20113  18.290   1.327   2.264  0.0688  0.0788 -0.4188
 3267W        W20114   8.677   4.952  12.223  0.0298 -0.2001  0.3059
 3268W        W20115   1.962  12.535   4.119 -0.2195  0.1081 -0.0366
 3269W        W20116   5.060  12.775   1.071 -0.0375  0.1796  0.2271
 3270W        W20117  16.596   6.976   2.528  0.1632 -0.0329 -0.0294
 3271W        W20118  16.514   8.964  15.856  0.3088  0.2583  0.0685
 3272W        W20119   0.460   6.748  14.417 -0.1119  0.1008  0.0827
 3273W        W20120   1.890  15.120  15.755 -0.3134 -0.2817 -0.1559
 3274W        W20121  13.580   8.850   3.592 -0.0260 -0.0764 -0.0766
 3275W        W20122   5.949  15.487  14.740  0.1168  0.0727 -0.3128
 3276W        W20123   5.020   8.677   0.706 -0.2997  0.0727 -0.1419
 3277W        W20124   1.519  11.734  16.320  0.2463 -0.1092 -0.1239
 3278W        W20125   6.777   7.054  13.781  0.0371 -0.0274  0.1478
 3279W        W20126   7.324  16.039   0.767 -0.0733  0.1394 -0.1297
 3280W        W20127  12.708  11.795  13.152 -0.0501  0.0061 -0.0332
 3281W        W20128  15.228  17.639   0.755  0.1418  0.0854  0.1491
 3282W        W20129   8.866   5.939  12.492  0.2861  0.3363  0.1993
 3283W        W20130  18.138   2.453   3.725 -0.1760 -0.2465 -0.0054
 3284W        W20131  18.029   7.076   2.276 -0.2878 -0.3398  0.2495
 3285W        W20132   9.279  11.881   5.248  0.1343  0.0706  0.1278
 3286W        W20133   8.772  14.306  13.064 -0.0799  0.2984  0.3414
 3287W        W20134   7.187   8.267  12.023 -0.0443  0.0859  0.3738
 3288W        W20135   5.996  14.968  11.152  0.2002  0.3119 -0.1024
 3289W        W20136  14.529  11.569   0.500  0.2531 -0.2262 -0.1790
 3290W        W20137  10.927  16.383  15.637 -0.1776 -0.0765 -0.1146
 3291W        W20138   3.361  11.094  13.458 -0.1646  0.3117 -0.0293
 3292W        W20139  17.749   8.141  15.134 -0.3216  0.0529 -0.2573
 3293W        W20140  13.328  17.482  10.522 -0.0599 -0.0824  0.1630
 3294W        W20141   6.362  13.786  15.264  0.1044  0.0948 -0.1012
 3295W        W20142   8.880  10.060  13.165 -0.2335  0.1269  0.3152
 3296W        W20143  13.085  12.365   2.068  0.1093 -0.0511 -0.0197
 3297W        W20144   2.032  16.195   1.609  0.1296  0.0004  0.1038
 3298W        W20145  10.856  10.859   3.308 -0.0894  0.1187  0.1026
 3299W        W20146   8.111  10.599   5.231 -0.1343  0.1107 -0.0849
 3300W        W20147   6.943   1.058  13.903  0.1354 -0.0456  0.0203
 3301W        W20148  16.458  11.828   1.383 -0.0723 -0.0667 -0.1699
 3302W        W20149  17.780  10.447  11.230 -0.0189  0.1535 -0.1193
 3303W        W20150   7.481   0.837   0.593  0.0247  0.0253  0.0108
 3304W        W20151   3.663  14.394  15.836 -0.0588 -0.3316 -0.3911
 3305W        W20152  17.269  12.207   5.043  0.1175  0.0266  0.1494
 3306W        W20153   8.397   1.980   2.813  0.0269  0.1207  0.1390
 3307W        W20154  17.590   5.000   2.020 -0.0325  0.0507 -0.2023
 3308W        W20155   2.527   2.881   2.277  0.0527  0.2208  0.2735
 3309W        W20156  10.900  15.847   2.185 -0.0417 -0.0814 -0.1955
 3310W        W20157  11.742   8.385   4.264  0.0718  0.0773 -0.3179
 3311W        W20158   4.703   4.843  16.367  0.1414  0.0359 -0.2445
 3312W        W20159   1.636  14.019   2.282  0.0624  0.0123  0.0532
 3313W        W20160  17.322  13.349  15.800  0.0046  0.1963 -0.1956
 3314W        W20161  12.665  11.344   4.854  0.2438 -0.3816  0.3674
 3315W        W20162   7.383   6.874   0.571 -0.0944  0.1455  0.0153
 3316W        W20163  15.698   4.766  12.375  0.2560 -0.1943  0.1919
 3317W        W20164   4.318  12.919  11.109  0.1114 -0.1489 -0.0800
 3318W        W20165  13.428  14.392   0.360 -0.1146 -0.0625  0.3734
 3319W        W20166  15.535  10.307   5.001  0.0342  0.2989  0.0450
 3320W        W20167  11.007   7.958   5.134  0.0853  0.0017  0.1605
 3321W        W20168  13.583  11.651  11.952 -0.0211  0.0351 -0.0565
 3322W        W20169   6.312   6.426   1.393 -0.1456  0.0344 -0.0616
 3323W        W20170   7.508   9.958   1.344 -0.2473  0.0553 -0.0309
 3324W        W20171  13.530  11.053  11.872 -0.0190 -0.1578  0.0300
 3325W        W20172  12.946   9.034   4.207 -0.1845  0.4236  0.1232
 3326W        W20173   7.930   7.379   4.786  0.1154 -0.3805  0.1010
 3327W        W20174  12.232  15.143  15.202  0.3231 -0.2144  0.1764
 3328W        W20175   6.812   3.789  15.149 -0.0747 -0.0653 -0.0794
 3329W        W20176   3.156   5.602   5.040 -0.0376 -0.0066 -0.0827
 3330W        W20177   4.825   3.006   4.190  0.0418  0.0240  0.0045
 3331W        W20178   4.299   6.975  13.854  0.1313  0.1167 -0.1631
 3332W        W20179  11.879  14.354  15.872 -0.1477  0.0946  0.1582
 3333W        W20180  16.888  10.387   5.286 -0.0862 -0.0349 -0.1219
 3334W        W20181   6.962   1.290   4.309  0.0998  0.1462 -0.1452
 3335W        W20182   5.788  17.344   3.298  0.0654 -0.4186 -0.0658
 3336W        W20183   9.804   4.784  16.237  0.0883 -0.0276 -0.0246
 3337W        W20184  10.767  14.777   2.115 -0.4703  0.0338  0.2263
 3338W        W20185   0.259   2.584  13.119 -0.0157  0.2814 -0.1374
 3339W        W20186   1.949  17.770   0.172  0.0234  0.0320  0.1132
 3340W        W20187  11.158  10.314   0.125  0.0307  0.0969 -0.0269
 3341W        W20188   5.266  11.975  11.521  0.0478  0.0973  0.0755
 3342W        W20189   2.661  12.749   3.405  0.1650 -0.0698 -0.5977
 3343W        W20190   3.643  16.778  15.931 -0.2729  0.2323 -0.3738
 3344W        W20191   1.618   4.581  10.260 -0.1380 -0.1641  0.2005
 3345W        W20192  17.274   5.637  10.978  0.1525 -0.2561 -0.0949
 3346W        W20193  13.433   2.426   3.820 -0.0970 -0.1597 -0.2998
 3347W        W20194  17.607  15.700  14.416 -0.0613  0.0294 -0.0631
 3348W        W20195   5.054   6.989   2.526 -0.0701  0.0414 -0.1084
 3349W        W20196   8.184  16.883  14.475  0.0534 -0.0163 -0.0980
 3350W        W20197   2.375  12.014   2.964 -0.0805  0.1514 -0.1954
 3351W        W20198   0.912  10.190  11.069 -0.2196  0.0896  0.2165
 3352W        W20199   0.929   8.800  13.858 -0.0119  0.0301  0.2351
 3353W        W20200   1.273   3.663  12.784 -0.0617  0.2018  0.1227
 3354W        W20201  12.376   7.853  13.915  0.0911 -0.2521  0.0759
 3355W        W20202  13.099  12.488   0.662  0.1158  0.3714  0.1398
 3356W        W20203   4.978  11.556   1.483 -0.0923  0.1097 -0.1259
 3357W        W20204  17.690   9.206   4.713  0.1580 -0.2203  0.0965
 3358W        W20205  14.660  12.592  14.666  0.2936 -0.2186  0.0327
 3359W        W20206  18.305   7.932   2.573 -0.0718  0.5074  0.2092
 3360W        W20207  12.042   1.768   0.883 -0.0615  0.1590 -0.1776
 3361W        W20208   2.710   3.621   4.710 -0.1427 -0.0874 -0.0806
 3362W        W20209  16.119   6.469   4.990 -0.0403  0.0098  0.2733
 3363W        W20210  17.495  15.372   1.625  0.1446 -0.3506  0.1490
 3364W        W20211  14.984  15.120   1.548  0.0002 -0.0896 -0.0005
 3365W        W20212  15.727   0.626  14.815  0.0641 -0.0037  0.1959
 3366W        W20213  10.661   4.432   2.170  0.0821  0.2520  0.0079
 3367W        W20214  11.912  15.173  14.670 -0.2843 -0.2959  0.0022
 3368W        W20215   8.295   4.973  14.387  0.3095  0.0371  0.2869
 3369W        W20216   9.531   8.609  14.355 -0.0574  0.0112 -0.0690
 3370W        W20217   5.382   4.678   2.299 -0.0442  0.0740  0.2408
 3371W        W20218   9.282  12.681  15.767 -0.1189  0.1639 -0.1067
 3372W        W20219  17.448  12.889  13.236 -0.0939 -0.0571  0.5275
 3373W        W20220   9.577   7.213   4.601  0.0146 -0.1654 -0.1180
 3374W        W20221   7.921   8.887  12.226 -0.0302 -0.2775 -0.1812
 3375W        W20222   1.697   7.766  16.369  0.1512  0.1552 -0.2323
 3376W        W20223   0.621  12.009   0.662  0.2761 -0.2862 -0.2799
 3377W        W20224   5.510  16.604  13.242  0.1457  0.1756 -0.0782
 3378W        W20225   7.114  13.321  12.691 -0.1263  0.1006 -0.2981
 3379W        W20226   5.017   9.126   4.384 -0.2244  0.3986  0.1087
 3380W        W20227  11.697   4.299  15.899  0.3393 -0.0686  0.0597
 3381W        W20228  16.269  11.461  14.410  0.2767 -0.3420  0.2241
 3382W        W20229   3.702   1.150   4.340 -0.2663  0.2328  0.0553
 3383W        W20230  13.013  15.627   2.659  0.3966 -0.1229 -0.1767
 3384W        W20231   6.713   9.181  12.174  0.1177 -0.2657 -0.1760
 3385W        W20232   1.779  15.502  14.254 -0.1131  0.1502  0.0206
 3386W        W20233  16.541   8.944   2.993  0.1093 -0.0616  0.2478
 3387W        W20234  14.142   2.866   3.583 -0.2431 -0.0848 -0.2533
 3388W        W20235  12.660   2.171   3.749 -0.1236  0.0710  0.0169
 3389W        W20236   3.883   4.586   1.007  0.1584 -0.1522 -0.0939
 3390W        W20237  14.750   5.586  12.865 -0.0963 -0.0937 -0.1371
 3391W        W20238  10.185  10.894  11.603 -0.2380 -0.0099  0.1086
 3392W        W20239   5.496   1.766  14.042  0.0913  0.4983 -0.0247
 3393W        W20240  17.551   9.857  15.759  0.3497  0.1548  0.1702
 3394W        W20241   9.057  15.800   5.172  0.1221  0.3519  0.2289
 3395W        W20242  10.714   9.068  13.813 -0.1939 -0.1092 -0.1010
 3396W        W20243   3.592   4.529  11.598  0.0828  0.0496 -0.2287
 3397W        W20244  15.073  16.802  11.676  0.2575  0.0807 -0.0235
 3398W        W20245   2.239  17.333  13.930  0.2375  0.0464 -0.2416
 3399W        W20246   1.594  13.424  14.402  0.0338  0.1267 -0.0563
 3400W        W20247  18.057  10.505   2.333  0.2661 -0.1229 -0.0760
 3401W        W20248  16.598   6.724  12.148 -0.1118  0.3061 -0.2568
 3402W        W20249   2.098   9.890   0.082 -0.0603 -0.1336  0.1974
 3403W        W20250   0.164  17.991   2.902 -0.1492  0.1299  0.1441
 3404W        W20251  17.491   7.252  10.684 -0.1033  0.2520 -0.1954
 3405W        W20252  15.668   8.161   2.210 -0.2054  0.1208  0.2030
 3406W        W20253   9.505   4.153  13.794  0.3171 -0.0629  0.3342
 3407W        W20254  12.787   8.817   1.416 -0.2246 -0.0434  0.0582
 3408W        W20255  15.442  10.130  16.128  0.1214  0.1304 -0.0313
 3409W        W20256   1.523  11.999   6.116 -0.2811  0.0478 -0.3429
 3410W        W20257  18.370  15.754   3.474 -0.0199 -0.0354  0.0377
 3411W        W20258  10.977  16.176  11.779 -0.1646  0.0431 -0.3685
 3412W        W20259  18.037   5.301   3.929 -0.3101  0.0530 -0.1436
 3413W        W20260  11.000   1.510  11.937 -0.1717  0.0690  0.0890
 3414W        W20261  16.724  14.849   0.303 -0.1844  0.0182 -0.1905
 3415W        W20262   8.876   1.386  14.478  0.1007  0.4471  0.0446
 3416W        W20263  13.902  13.761  16.101  0.2141  0.1821  0.1506
 3417W        W20264  17.332  17.626   2.506 -0.4280 -0.4156  0.3715
 3418W        W20265  13.375   2.612   5.397  0.0682 -0.0485 -0.3554
 3419W        W20266  10.469   7.302  13.828 -0.3610 -0.2767  0.2737
 3420W        W20267   5.096   3.861  13.229 -0.0283 -0.0085  0.0032
 3421W        W20268   2.151   6.404  15.874 -0.1693 -0.0495  0.2615
 3422W        W20269  14.823  11.361  15.374 -0.0899 -0.1161 -0.0969
 3423W        W20270   1.468   5.539   2.265 -0.1250 -0.0743 -0.0926
 3424W        W20271   7.133   8.330  16.305 -0.1028  0.1508  0.1269
 3425W        W20272  14.086   0.226  13.350 -0.0244  0.0979 -0.3090
 3426W        W20273   9.493  13.525  16.045 -0.0711 -0.0354 -0.2446
 3427W        W20274   3.973  13.284  12.224 -0.0447  0.2239 -0.0610
 3428W        W20275   8.411  15.572   0.613  0.0449  0.1273  0.0671
 3429W        W20276   8.049   2.623   5.664  0.3274  0.0074 -0.2948
 3430W        W20277  13.138  13.670   3.801  0.2580  0.1424  0.1837
 3431W        W20278   4.678   5.154   0.450 -0.0288 -0.0349  0.1161
 3432W        W20279   6.669  17.640   0.534  0.1922  0.0255 -0.2149
 3433W        W20280   0.366  17.015   0.078  0.1871 -0.0384 -0.0021
 3434W        W20281  15.965  10.722  15.903 -0.0132  0.2849  0.3108
 3435W        W20282  13.418   0.753   2.621 -0.0141 -0.0163  0.1793
 3436W        W20283   1.124   9.712  13.481 -0.1695  0.0874  0.1535
 3437W        W20284  10.088   3.372  13.625  0.1200 -0.0486 -0.2510
 3438W        W20285   7.203   7.883   4.121 -0.0666 -0.0438 -0.0115
 3439W        W20286   8.882  16.152  12.144  0.0315 -0.1535  0.1788
 3440W        W20287  16.557   9.890   0.030 -0.0896  0.1609  0.4033
 3441W        W20288   1.796   3.538   5.088 -0.1806  0.0415  0.0189
 3442W        W20289  16.475   0.363  12.847  0.0359  0.1065 -0.0202
 3443W        W20290   4.555   9.496  14.609  0.3381 -0.0322  0.0816
 3444W        W20291   2.749  11.676  14.587 -0.0432 -0.0627  0.1091
 3445W        W20292   0.863  15.842   2.649  0.0289  0.2165 -0.0211
 3446W        W20293  17.008  13.393   5.142  0.2075 -0.1861 -0.0102
 3447W        W20294   3.674   4.838  14.812  0.2310  0.0072  0.0681
 3448W        W20295  14.282   7.134  14.969  0.0615 -0.1822  0.1559
 3449W        W20296   9.122   9.572  12.305 -0.1337  0.0348 -0.0771
 3450W        W20297  17.174   3.426   0.995  0.2322  0.0365  0.1135
 3451W        W20298   3.848   0.120  12.074  0.0922  0.0243  0.1118
 3452W        W20299  14.686   8.491  12.985 -0.0468 -0.3382  0.3405
 3453W        W20300  12.537   6.513   3.934 -0.2123  0.3045 -0.2687
 3454W        W20301   3.919   7.606   0.254 -0.0215  0.2287  0.3518
 3455W        W20302   2.275   3.398  11.221  0.0009 -0.1707  0.1394
 3456W        W20303   0.511   7.281  13.906 -0.1322  0.1967  0.0444
 3457W        W20304  16.510  12.628   1.859  0.1092  0.1399 -0.3460
 3458W        W20305   7.442  11.021  12.004 -0.2828  0.0038 -0.1058
 3459W        W20306   5.357  12.008   3.599 -0.0979 -0.1072 -0.1608
 3460W        W20307   0.206  18.298   4.754  0.2229  0.1252  0.0247
 3461W        W20308  10.794   7.482   0.785 -0.1642 -0.1006 -0.1991
 3462W        W20309   0.221  13.377   0.704 -0.0677 -0.1434 -0.2120
 3463W        W20310  15.260  12.907  14.058  0.0195 -0.2441 -0.0141
 3464W        W20311  17.206   8.787   1.285 -0.0468  0.1726  0.0561
 3465W        W20312   6.639   2.588  12.009  0.1254  0.5202  0.1155
 3466W        W20313   1.936   0.885  15.148 -0.0161 -0.0598 -0.2360
 3467W        W20314  10.601   5.828  11.820 -0.0164 -0.2332 -0.0737
 3468W        W20315  10.570   7.616   2.227  0.0178 -0.1391  0.0931
 3469W        W20316  10.208   1.662   4.515  0.0712 -0.1994 -0.1059
 3470W        W20317   2.336   5.282   5.477 -0.2001 -0.3266  0.0111
 3471W        W20318  15.169   4.904  12.773  0.0156  0.4356  0.0849
 3472W        W20319   9.443   3.871  15.763 -0.0863  0.2048  0.0376
 3473W        W20320  16.818  10.749   3.632 -0.1925  0.1936 -0.1964
 3474W        W20321   2.650  14.504   5.233  0.1717  0.1222  0.1473
 3475W        W20322   9.778  13.558   4.752 -0.2050 -0.0983  0.0379
 3476W        W20323  17.152   5.443   4.706 -0.3713 -0.1197 -0.0640
 3477W        W20324   8.852  18.360   3.263  0.1723  0.2789  0.1916
 3478W        W20325   9.508   4.393   3.762 -0.0752 -0.0642  0.1034
 3479W        W20326   4.835   2.137  13.401  0.3620  0.0790  0.1792
 3480W        W20327  16.873  17.467   1.010  0.0490  0.2979 -0.1595
 3481W        W20328  11.594  16.540   3.759 -0.0269 -0.0225 -0.1068
 3482W        W20329  10.835   5.043  13.184 -0.2541 -0.4279 -0.1688
 3483W        W20330   9.958   5.434   1.907  0.3342  0.2192  0.1233
 3484W        W20331   2.688  18.328  10.148 -0.2853  0.2565 -0.1116
 3485W        W20332  10.451  14.390  15.795 -0.0818  0.2477  0.5347
 3486W        W20333   3.332   0.965   4.594  0.0819  0.0819 -0.0992
 3487W        W20334  15.701   5.790   3.405 -0.1830  0.1853 -0.0017
 3488W        W20335  15.884   3.166  11.705 -0.3004 -0.0636 -0.0741
 3489W        W20336  17.699  14.095  15.597  0.0368 -0.2758  0.2297
 3490W        W20337   2.888   8.988   2.051 -0.2425 -0.0493 -0.0102
 3491W        W20338   9.744   6.656  15.714  0.0287 -0.6164 -0.0203
 3492W        W20339  15.032  14.111  10.710  0.1483  0.2135 -0.3464
 3493W        W20340   5.808   2.948   4.252 -0.1639  0.0964 -0.4184
 3494W        W20341   4.817  11.114  13.640  0.0120 -0.2957 -0.2805
 3495W        W20342  12.382   0.524   4.631 -0.2748  0.0841 -0.2631
 3496W        W20343   3.231   8.501  13.804  0.1697  0.2106  0.0272
 3497W        W20344  17.391  17.653  16.134  0.1448 -0.1363  0.0038
 3498W        W20345  18.224  12.611   2.895 -0.0063  0.0184  0.0459
 3499W        W20346  13.794   8.640   4.939 -0.1097  0.1211 -0.1121
 3500W        W20347   0.329  18.199   2.464 -0.0384 -0.1354 -0.3317
 3501W        W20348   7.586   2.933  14.854 -0.2438 -0.1254  0.1797
 3502W        W20349  15.781  17.351  14.687 -0.0808 -0.0747 -0.0156
 3503W        W20350   4.301   2.738   1.333 -0.2055 -0.2941  0.3512
 3504W        W20351  17.254   4.969  14.911 -0.2416  0.1575 -0.1212
 3505W        W20352  11.316  12.902   3.411  0.0046 -0.2679 -0.0851
 3506W        W20353   8.983   1.849  13.486 -0.0008  0.0272 -0.0295
 3507W        W20354  16.459  10.969   4.433  0.1791  0.0402 -0.2030
 3508W        W20355  11.433  17.548  12.946  0.1554 -0.1837  0.0645
 3509W        W20356   7.799  14.000   1.849 -0.0152  0.0632 -0.0488
 3510W        W20357   9.553   4.212  12.242 -0.2082  0.0146  0.2358
 3511W        W20358   7.048   9.098  13.502 -0.4636  0.1321  0.0123
 3512W        W20359  17.123  14.738   3.507  0.1345 -0.1461 -0.2579
 3513W        W20360  12.842   9.559   5.830  0.2242  0.1004 -0.2110
 3514W        W20361   6.053  14.547  11.852  0.0065  0.1696  0.2722
 3515W        W20362  16.362   7.073   1.744  0.0612  0.1479 -0.1265
 3516W        W20363  13.275   4.532   3.020  0.0887  0.1946 -0.0687
 3517W        W20364  13.800  17.386  16.098  0.2892 -0.3274  0.0113
 3518W        W20365   4.449  14.139  12.343 -0.2962 -0.1257  0.0368
 3519W        W20366   9.072   9.205   3.960  0.1419 -0.0893 -0.1108
 3520W        W20367  12.201  10.375   2.085  0.0268 -0.0744  0.2125
 3521W        W20368  11.209  17.094   3.391  0.2106 -0.2709 -0.2075
 3522W        W20369   3.756   4.354   4.788 -0.0946  0.1828 -0.2291
 3523W        W20370  17.746   5.838  11.029 -0.0499 -0.0424  0.1876
 3524W        W20371  15.248   5.200  11.266 -0.4300 -0.1671  0.3712
 3525W        W20372   7.565   5.899   1.545  0.1781  0.1802  0.1765
 3526W        W20373  13.399   8.107   0.783 -0.0718  0.0657 -0.1063
 3527W        W20374  11.256  14.809   3.144 -0.0769 -0.2300 -0.0001
 3528W        W20375  11.979  15.222   5.044 -0.5106 -0.4628  0.0580
 3529W        W20376  14.191  17.735   0.745 -0.1721 -0.1409  0.1475
 3530W        W20377  11.992  11.929   1.076 -0.3597  0.0279  0.2453
 3531W        W20378   5.761  17.140   4.808  0.0062  0.3507  0.0825
 3532W        W20379   5.156   9.104   4.862  0.2534  0.3509  0.1869
 3533W        W20380   2.551   4.596  14.343  0.0898  0.0900  0.1924
 3534W        W20381  16.058  16.475   2.342  0.0449  0.1523  0.1994
 3535W        W20382  11.328   8.606  12.860  0.2283  0.1077 -0.1606
 3536W        W20383  12.901   4.485  13.082 -0.0491 -0.2093 -0.3340
 3537W        W20384   0.986  13.375  15.903  0.1433  0.2143 -0.0153
 3538W        W20385  18.407  16.492   1.413 -0.0447  0.0245  0.0007
 3539W        W20386   7.473   7.102  12.172  0.5071 -0.3096  0.2411
 3540W        W20387   9.068   3.536   5.243  0.0883 -0.2977 -0.2395
 3541W        W20388  12.592  10.543   6.118  0.1324 -0.2404  0.0745
 3542W        W20389   2.528   7.724  11.752  0.1348 -0.0687  0.2566
 3543W        W20390  13.501  16.106   2.127  0.0689  0.0914 -0.0324
 3544W        W20391   8.745  14.620   5.840 -0.1173 -0.1952  0.2196
 3545W        W20392   5.220  11.576  11.838 -0.3595 -0.1806 -0.1797
 3546W        W20393  13.519  14.508  13.595  0.0295 -0.1696  0.3123
 3547W        W20394   3.412  13.772   4.301 -0.1396  0.2256 -0.2022
 3548W        W20395  15.692  13.997  16.151  0.0593 -0.0300 -0.0471
 3549W        W20396   5.571  17.138  15.851 -0.0884 -0.2711 -0.1078
 3550W        W20397   5.412   7.852  14.358  0.0169  0.0740  0.0240
 3551W        W20398  10.623   2.810  11.100  0.1588 -0.0735  0.1554
 3552W        W20399  18.320   6.845  12.266 -0.0972 -0.1081  0.3850
 3553W        W20400  13.939   9.977  14.626 -0.3243 -0.1857  0.0168
 3554W        W20401  18.258   4.619   4.141  0.3461  0.0794  0.2456
 3555W        W20402   2.253   0.234   1.875 -0.2520  0.0914  0.0533
 3556W        W20403  12.665  14.735   2.833 -0.1082 -0.0554  0.2777
 3557W        W20404  13.337  12.750   4.182 -0.2676 -0.3006  0.0459
 3558W        W20405  13.295  10.768   0.757  0.2725  0.0288 -0.0617
 3559W        W20406   3.411  10.341  13.029  0.2377 -0.1299  0.1587
 3560W        W20407   9.664  16.082  11.511  0.0637  0.2351 -0.0454
 3561W        W20408  14.587  17.759   5.111 -0.3786 -0.1934 -0.1459
 3562W        W20409  18.256  12.256   2.519 -0.1457  0.1885 -0.1561
 3563W        W20410  16.062  10.965  14.420  0.2977  0.0304  0.2283
 3564W        W20411   7.860  15.857   0.042  0.0742  0.2599 -0.1564
 3565W        W20412   1.629   4.455   4.708 -0.2511  0.3041  0.0274
 3566W        W20413  11.824  13.181   2.330 -0.0536  0.0153  0.1403
 3567W        W20414   1.633  16.390   3.398  0.2015  0.0757  0.1138
 3568W        W20415   1.260   5.733   2.748  0.0503 -0.0716 -0.3191
 3569W        W20416   6.875  14.495   2.108 -0.2804  0.0360 -0.2946
 3570W        W20417   2.079   8.401   1.707  0.0950 -0.1098 -0.1373
 3571W        W20418   4.079   6.851  12.881  0.2378  0.0021  0.1899
 3572W        W20419   2.832   2.132   4.008 -0.3023 -0.1501  0.2054
 3573W        W20420  15.614  11.965   3.933  0.2112  0.2844  0.0248
 3574W        W20421   7.743  12.632   5.872 -0.1471 -0.1440  0.1135
 3575W        W20422  10.150  13.885   3.532 -0.1399 -0.0033 -0.2499
 3576W        W20423   9.626  11.467  14.978 -0.0038  0.1102 -0.0217
 3577W        W20424   3.731   7.976   1.077 -0.0855  0.0946 -0.4544
 3578W        W20425  13.941  15.257   1.205  0.1311 -0.1910  0.0091
 3579W        W20426  13.543  14.268   4.934  0.1960 -0.0981 -0.3458
 3580W        W20427   5.453   3.311   0.625 -0.2359  0.0275 -0.4847
 3581W        W20428   5.523   7.082  13.819 -0.0044  0.0596 -0.1573
 3582W        W20429   7.095   0.079  12.202  0.1017  0.0597  0.1613
 3583W        W20430  15.762   9.929   3.640 -0.0590  0.0935  0.4061
 3584W        W20431   3.961  18.084  11.928  0.0837 -0.1085  0.2411
 3585W        W20432   9.602  11.134   1.947  0.0419 -0.0940  0.1332
 3586W        W20433  14.998  10.176   3.981 -0.0236  0.1712 -0.2789
 3587W        W20434   1.462  11.564  12.683  0.1329  0.1289  0.1136
 3588W        W20435   0.431   2.390  11.700 -0.2942 -0.4344 -0.1543
 3589W        W20436   5.782  10.285   0.867 -0.1971  0.0563 -0.1003
 3590W        W20437   1.532   9.352  13.508 -0.1507 -0.1302  0.2236
 3591W        W20438   4.816   3.955   3.217 -0.2014  0.2019 -0.1609
 3592W        W20439   3.643  16.740   0.618 -0.0931 -0.2365 -0.1145
 3593W        W20440  17.976  10.829  12.627 -0.1452  0.0629 -0.3914
 3594W        W20441  15.878   4.755  11.839 -0.3899  0.3618 -0.0831
 3595W        W20442   1.347  15.863   4.046  0.0358 -0.2065  0.3384
 3596W        W20443  12.629   6.300   0.288  0.1726  0.0453 -0.3413
 3597W        W20444  14.345   5.721   2.779  0.2002  0.2176 -0.0854
 3598W        W20445  15.541   2.434  13.834  0.2627 -0.0060 -0.1704
 3599W        W20446   1.387   3.148   2.646 -0.1638 -0.0465  0.0364
 3600W        W20447   8.662   9.599   0.813 -0.1288  0.1306  0.0354
 3601W        W20448   1.698   7.081   3.096 -0.3221 -0.3479  0.0451
 3602W        W20449   8.460  13.558   2.014 -0.2040  0.2497 -0.1169
 3603W        W20450  13.393   8.801  11.898 -0.0463  0.1552 -0.1209
 3604W        W20451  14.106  10.612   4.970  0.0785  0.2007 -0.0409
 3605W        W20452   1.215   1.914   2.758  0.0864  0.0713  0.3456
 3606W        W20453   5.179  17.772   6.330 -0.4301  0.1165  0.1559
 3607W        W20454   7.535  16.713   1.645  0.2335 -0.0282  0.0443
 3608W        W20455  16.436   7.584   1.682 -0.2579  0.1260 -0.0770
 3609W        W20456  12.893  16.867   3.760  0.1490  0.1588 -0.1353
 3610W        W20457   0.101   4.487   3.350  0.0128 -0.0354  0.2326
 3611W        W20458   3.109   2.623  15.919  0.0378 -0.3069  0.1473
 3612W        W20459   9.898   1.778   2.986  0.1955 -0.0273 -0.0555
 3613W        W20460   4.604   1.643  15.682  0.2707  0.0969 -0.0495
 3614W        W20461  16.565   4.795  12.393 -0.1513  0.2371 -0.0603
 3615W        W20462   6.004   5.430   1.832  0.0520 -0.1377 -0.3154
 3616W        W20463   6.427   3.601  14.017 -0.1133 -0.1526  0.0883
 3617W        W20464   3.580  11.936   5.105 -0.2686  0.2051 -0.1794
 3618W        W20465   8.628   4.956   3.868  0.1021 -0.1376 -0.1561
 3619W        W20466  11.658  12.276   2.367 -0.2888 -0.3120  0.0418
 3620W        W20467   8.614  12.830   1.883  0.2637 -0.0895  0.0147
 3621W        W20468   9.398   0.991   4.423 -0.2631  0.1020  0.0241
 3622W        W20469  11.806   6.470  13.930  0.1076  0.2838  0.1788
 3623W        W20470   0.447  12.919   0.109 -0.0516 -0.0562 -0.1505
 3624W        W20471  16.290  17.334  15.381 -0.2458  0.0620 -0.1028
 3625W        W20472   3.535   5.497  11.053  0.1172  0.0388  0.0672
 3626W        W20473   2.696   4.477   3.844 -0.1463  0.0757 -0.0094
 3627W        W20474   9.199  13.218   2.437 -0.0501 -0.0005  0.0555
 3628W        W20475  10.389  13.947   3.098  0.1016 -0.0826  0.3667
 3629W        W20476  10.843   2.949  13.160 -0.1203  0.0845  0.1195
 3630W        W20477   6.122   0.999   0.699 -0.4882  0.1015 -0.2211
 3631W        W20478   6.556  18.324   2.584 -0.2681  0.2952  0.0151
 3632W        W20479   8.624   8.435   0.271 -0.0025  0.1366 -0.4064
 3633W        W20480   1.564   5.151   4.083  0.2019 -0.1225 -0.3275
 3634W        W20481   4.109  12.150  15.507  0.0572 -0.2089  0.2120
 3635W        W20482  17.828   3.277  15.497  0.1327 -0.2168 -0.0442
 3636W        W20483   0.727   4.479  11.095 -0.2364 -0.0773 -0.0607
 3637W        W20484  14.914   4.522  12.924 -0.0371 -0.5053  0.2689
 3638W        W20485   3.344   1.392  12.444 -0.0039 -0.1105  0.0902
 3639W        W20486  15.022  16.275   2.346  0.4491 -0.1477  0.1156
 3640W        W20487   3.515   2.749   2.336 -0.1404  0.0154 -0.0738
 3641W        W20488   7.478  15.919   3.612  0.1186 -0.0367  0.1704
 3642W        W20489   8.407  14.010  14.916 -0.1719  0.0857  0.0322
 3643W        W20490   7.195  18.045   2.380  0.2024 -0.0910 -0.2899
 3644W        W20491   3.483   3.494  12.644  0.0340 -0.2117  0.0989
 3645W        W20492   5.714   9.510  16.314 -0.0768  0.0034  0.0670
 3646W        W20493   5.475   5.068  14.589  0.2158 -0.4031  0.0023
 3647W        W20494   0.909  15.078  15.486 -0.1315 -0.1335 -0.0160
 3648W        W20495   5.729   0.626  11.510 -0.2694 -0.0889  0.1749
 3649W        W20496  10.732   4.715  14.449  0.0102  0.1052  0.0939
 3650W        W20497   0.653  15.714   3.174 -0.2948 -0.0352  0.1576
 3651W        W20498   6.529   7.858   3.791 -0.0282  0.0603  0.0047
 3652W        W20499  12.750  10.787  14.561  0.3689  0.1261  0.2093
 3653W        W20500   9.022   9.891  15.604  0.0137  0.2221 -0.0977
 3654W        W20501   5.984   5.010   0.601 -0.0389  0.2037 -0.1819
 3655W        W20502  15.356  16.240   1.185 -0.1684  0.0027  0.0021
 3656W        W20503  13.401  16.522  15.586  0.1062  0.1462 -0.1399
 3657W        W20504   8.601  15.339   0.058 -0.0024 -0.0961 -0.3181
 3658W        W20505   7.241   5.152  16.183 -0.0612  0.1558  0.0014
 3659W        W20506  14.805   0.717   2.259 -0.1859  0.2833  0.0499
 3660W        W20507   1.858  11.179   2.329 -0.1626  0.2264  0.0935
 3661W        W20508  13.887   6.600  13.830 -0.2175 -0.0838  0.0233
 3662W        W20509   8.331   4.950  15.676  0.1890  0.1508  0.0130
 3663W        W20510  11.211  14.765   0.672  0.1007 -0.2524 -0.1562
 3664W        W20511   4.283   8.917  12.458 -0.1474  0.1101 -0.2364
 3665W        W20512   8.113   7.141   2.726 -0.0972  0.4470  0.0407
 3666W        W20513  12.021  11.480   6.267 -0.1679  0.1264 -0.2336
 3667W        W20514  10.298  14.428  12.578  0.0551  0.1864 -0.0121
 3668W        W20515   4.534  14.207   0.084 -0.3438  0.0860 -0.0935
 3669W        W20516   5.116  11.927   6.386  0.2961 -0.0345 -0.0040
 3670W        W20517  17.608   5.041   5.560  0.0919  0.0238  0.1188
 3671W        W20518  16.352  14.495   1.997 -0.2098 -0.0139  0.0227
 3672W        W20519   6.582  15.087   5.160 -0.0102 -0.1445  0.0059
 3673W        W20520  12.384  15.742   2.767 -0.3215  0.0200 -0.0325
 3674W        W20521  16.471   7.618   3.655  0.1133  0.1947  0.2079
 3675W        W20522  17.489   4.705  15.601  0.2477 -0.0898 -0.2240
 3676W        W20523  12.708  13.192   0.115 -0.1982  0.0102  0.1491
 3677W        W20524   7.558   0.026   4.378 -0.1595  0.1052 -0.4410
 3678W        W20525   5.107  11.532  14.786 -0.2925 -0.3625  0.2003
 3679W        W20526  15.412   3.976  12.437 -0.0071 -0.0088  0.1438
 3680W        W20527  14.403   4.409  12.009 -0.1912  0.1643  0.1540
 3681W        W20528  17.108  17.406   1.924 -0.4125 -0.2527  0.4101
 3682W        W20529   9.170  15.938   1.872  0.0236 -0.1439 -0.0872
 3683W        W20530   1.242  17.790   1.712 -0.3159  0.0099  0.0523
 3684W        W20531  11.151   2.382   5.601  0.1512  0.1212 -0.0466
 3685W        W20532   8.238  15.554   2.926 -0.1131 -0.1248  0.2130
 3686W        W20533  16.672   2.399  14.035 -0.0013 -0.5305 -0.0539
 3687W        W20534   4.116   1.238   4.633 -0.1609  0.2046  0.1990
 3688W        W20535   8.307   8.693  13.097 -0.1356 -0.0910  0.2063
 3689W        W20536   0.072   3.621   2.907 -0.0781 -0.1003 -0.1044
 3690W        W20537   3.269  18.353   3.286  0.2759  0.0691  0.0268
 3691W        W20538   8.180  10.983   0.963 -0.1662 -0.3211 -0.1811
 3692W        W20539  15.579   2.734   3.420  0.1182  0.0411  0.1750
 3693W        W20540  17.208   0.478   2.006 -0.0534 -0.0094  0.3272
 3694W        W20541   2.714   0.090   0.304 -0.1068  0.0034  0.0983
 3695W        W20542  10.030  14.105  13.615 -0.2482  0.3196 -0.0050
 3696W        W20543   1.467  17.627   5.019  0.0091  0.0674 -0.0739
 3697W        W20544   2.245   5.002  10.930  0.1441  0.1059 -0.1093
 3698W        W20545  17.615  17.419  13.634  0.0880  0.3100 -0.0808
 3699W        W20546  17.367   2.277   1.995 -0.3473 -0.0260  0.0560
 3700W        W20547   4.556  12.702  16.056  0.0995 -0.2037 -0.0413
 3701W        W20548   8.613  14.963   1.036  0.0145  0.2339  0.0952
 3702W        W20549  10.448  14.987  11.741  0.1175  0.2146  0.0825
 3703W        W20550  13.734  15.675   0.893  0.0099  0.4438  0.3099
 3704W        W20551   1.007   0.034   3.888 -0.0099  0.2417  0.1991
 3705W        W20552   0.383   7.217   0.864 -0.0129 -0.0096 -0.2358
 3706W        W20553  12.062  12.221   3.321  0.0958 -0.3563  0.0930
 3707W        W20554  13.836   6.955  15.177  0.0328  0.0912 -0.1933
 3708W        W20555   0.144   6.569  13.487  0.2361  0.2539 -0.0008
 3709W        W20556  10.724   8.535  11.412 -0.0478  0.0449 -0.0454
 3710W        W20557  11.651   3.847   0.772  0.2264  0.2709 -0.0189
 3711W        W20558   5.259   2.104   2.009 -0.1597  0.2102  0.1841
 3712W        W20559   4.255  18.279  12.876  0.2850 -0.4986  0.2729
 3713W        W20560   4.011   9.061   3.980 -0.0199 -0.3955  0.0601
 3714W        W20561   9.688   0.352   2.929 -0.1854 -0.2148 -0.0803
 3715W        W20562  14.240   5.512  12.917  0.2863  0.0504 -0.2658
 3716W        W20563   6.038   3.460   4.216 -0.2073  0.0641 -0.2767
 3717W        W20564  16.221   1.929   4.851 -0.0253  0.1233 -0.1135
 3718W        W20565   9.385  14.189  13.145 -0.3735  0.1305  0.1895
 3719W        W20566  11.967  18.155   3.831  0.0542  0.1692 -0.1449
 3720W        W20567   9.962   9.061  13.005  0.0119  0.2654  0.0804
 3721W        W20568   5.833  14.499  15.716  0.1143  0.1203 -0.1155
 3722W        W20569  11.703   7.347   1.319 -0.0457 -0.1255  0.1883
 3723W        W20570   0.144  13.396  12.840  0.1472  0.1895 -0.0188
 3724W        W20571   1.950   1.483   4.838  0.3903  0.1037 -0.2160
 3725W        W20572  11.251  16.169  12.983 -0.0404 -0.1042 -0.2578
 3726W        W20573  13.305   5.484   4.038  0.1982  0.0464  0.1782
 3727W        W20574  15.334  14.492  13.728 -0.0354 -0.0863  0.0504
 3728W        W20575   3.012   7.278   0.472  0.1573  0.3679 -0.0962
 3729W        W20576   3.592  12.066   2.659  0.0319  0.4076  0.3376
 3730W        W20577   5.825  11.849  15.907 -0.3963  0.1909 -0.2385
 3731W        W20578  13.024   6.784   0.132 -0.1989  0.0812 -0.1337
 3732W        W20579  16.191  16.626  15.518  0.1850  0.2950 -0.1606
 3733W        W20580  16.546   9.864   3.319 -0.0528 -0.1242 -0.0950
 3734W        W20581   6.106   9.969   3.974  0.0908 -0.0869  0.1862
 3735W        W20582  10.743  13.167   1.603 -0.1570  0.0144 -0.0693
 3736W        W20583   5.825   9.299  13.663 -0.0288  0.1984  0.1589
 3737W        W20584  13.495   5.632   1.735 -0.1862  0.4603 -0.1364
 3738W        W20585  14.664   7.463   1.628  0.0400 -0.0133 -0.0375
 3739W        W20586   7.689   8.308   1.536  0.4002 -0.1806 -0.1189
 3740W        W20587   6.158  15.163   2.362  0.1980  0.1076 -0.2405
 3741W        W20588  17.375  10.321  13.230  0.0374 -0.2582  0.0974
 3742W        W20589   7.242   3.550   2.203  0.1131  0.4054  0.0013
 3743W        W20590   1.876  16.672  12.892 -0.0419 -0.4447 -0.2589
 3744W        W20591   6.743  16.258   0.926 -0.0460  0.2982  0.1153
 3745W        W20592   6.816   8.008  15.395  0.3704 -0.0085 -0.2841
 3746W        W20593  11.677   2.827   0.389  0.0523  0.0194  0.1045
 3747W        W20594   9.391   8.689   1.853 -0.3116  0.4139  0.0430
 3748W        W20595   8.427  17.535   0.362 -0.0641  0.3998 -0.1171
 3749W        W20596  17.312   8.713  13.516 -0.1408 -0.2364  0.0098
 3750W        W20597   7.712  15.598  13.602  0.2798 -0.0174  0.0305
 3751W        W20598  16.638  11.233  14.644 -0.0388  0.1169  0.1758
 3752W        W20599   7.543   6.560   5.726  0.3693 -0.1853 -0.0947
 3753W        W20600   4.429  12.422   1.857 -0.2354  0.3611 -0.0334
 3754W        W20601  11.036   9.771   3.548 -0.2471  0.3400  0.0581
 3755W        W20602   8.230  12.886  13.276  0.0277  0.1880  0.1348
 3756W        W20603  12.361   5.215  10.936 -0.1918 -0.0144 -0.0290
 3757W        W20604  14.940  14.088   0.903 -0.4224  0.1085  0.0735
 3758W        W20605   5.671   4.998   0.963  0.1914 -0.0409 -0.1120
 3759W        W20606   2.498   1.752   3.802 -0.1052  0.0260 -0.0812
 3760W        W20607  13.001   6.607  15.721  0.2059  0.3096 -0.0752
 3761W        W20608   3.936  15.507   1.063  0.2425  0.1325 -0.1901
 3762W        W20609   2.784   1.376   2.273 -0.3711 -0.2649 -0.2942
 3763W        W20610  15.500   9.363   4.501  0.1564  0.1290  0.1102
 3764W        W20611  14.914   7.079   3.955  0.1295  0.2115  0.3931
 3765W        W20612   4.502   9.255   6.505 -0.1863  0.0415  0.2093
 3766W        W20613   3.871  17.285  11.795  0.2215  0.2580 -0.0306
 3767W        W20614  17.208   4.149   0.318  0.0741 -0.0920 -0.0102
 3768W        W20615  11.577  18.391   4.057  0.1602  0.0590 -0.0056
 3769W        W20616   6.903   8.926   4.986  0.2631  0.2146  0.2329
 3770W        W20617   3.011  16.207  14.068 -0.2053 -0.0838  0.1576
 3771W        W20618   4.252   7.036  15.705 -0.2623  0.1954 -0.4279
 3772W        W20619  13.693   4.792   3.857 -0.0228 -0.1327  0.1031
 3773W        W20620  13.879   1.067  16.072  0.3142  0.1936  0.2733
 3774W        W20621   2.229   3.724  15.274  0.2735  0.0780  0.2284
 3775W        W20622  10.092   7.985   0.176 -0.0246 -0.2755  0.0308
 3776W        W20623   6.203   7.859   4.161  0.0215 -0.1396  0.0521
 3777W        W20624  15.080  11.771   3.248  0.2381 -0.0210  0.0640
 3778W        W20625  13.028  16.032  12.133  0.1222 -0.2126  0.0218
 3779W        W20626   0.868   8.905  15.822  0.3553  0.1769  0.0197
 3780W        W20627   6.445  13.835   1.992 -0.0916  0.0316 -0.1764
 3781W        W20628  13.504   0.304   2.796 -0.3231 -0.2488 -0.1624
 3782W        W20629  12.681   3.945  13.134  0.2053 -0.3581 -0.0707
 3783W        W20630   2.308   8.395  15.275  0.2136  0.1899  0.1194
 3784W        W20631  12.989  13.090  13.061 -0.2111 -0.3728  0.0106
 3785W        W20632   3.980  14.475   3.149 -0.0298 -0.2014 -0.0928
 3786W        W20633  17.848  11.403  12.060 -0.0335 -0.1115  0.1973
 3787W        W20634   8.167   5.306  16.110  0.0620  0.1443  0.0816
 3788W        W20635  17.758   4.524   4.333 -0.2131  0.1844  0.2401
 3789W        W20636   4.112   5.080  14.977 -0.0135  0.1102  0.1154
 3790W        W20637  14.677   1.600   1.962 -0.3781 -0.2896  0.3089
 3791W        W20638   9.147  12.410   2.783  0.1942  0.0978 -0.0208
 3792W        W20639   7.367   9.003   1.592 -0.0256 -0.1712 -0.0762
 3793W        W20640  13.044  17.620  13.380 -0.0943 -0.1270 -0.0103
 3794W        W20641   5.658   1.345  13.671 -0.1197  0.0894 -0.0415
 3795W        W20642  16.868  13.450   0.148 -0.0539 -0.1027  0.0498
 3796W        W20643   6.728  12.792  13.757 -0.0632  0.0005 -0.1615
 3797W        W20644  12.288   2.790   2.129  0.1074  0.2686 -0.0239
 3798W        W20645  13.977  14.356   1.156  0.1524 -0.1208 -0.1165
 3799W        W20646   5.513  12.122   6.701  0.1920  0.1397 -0.0456
 3800W        W20647   6.498   5.158   4.824  0.2067  0.2241 -0.3706
 3801W        W20648   6.246   5.292  16.078 -0.1088 -0.1398  0.1992
 3802W        W20649  18.094  11.846   0.321  0.0092  0.1699  0.0132
 3803W        W20650   0.222  16.213  15.848  0.0388 -0.2601  0.2942
 3804W        W20651   5.054  16.076  14.648  0.0067 -0.5185 -0.2549
 3805W        W20652   5.133   6.607   3.964 -0.1452  0.3515  0.4564
 3806W        W20653  12.608  14.809   1.190  0.1691 -0.3031  0.0904
 3807W        W20654   1.498   9.715  11.582 -0.1086  0.0603 -0.0104
 3808W        W20655   5.704   5.947   0.835  0.1921 -0.0247 -0.1467
 3809W        W20656  15.507   1.032   1.923  0.1195  0.1568  0.1588
 3810W        W20657  18.258  17.295   2.569 -0.1619  0.2143 -0.1037
 3811W        W20658   9.241  15.549   5.640  0.0643  0.1969 -0.1634
 3812W        W20659  18.188   3.676  11.626  0.2259  0.1455 -0.0333
 3813W        W20660   8.180   2.122   4.275  0.0274  0.2204 -0.4214
 3814W        W20661  17.753  17.158   4.881 -0.0332  0.1970  0.3700
 3815W        W20662  17.864  15.484   4.353  0.0532 -0.1921  0.1051
 3816W        W20663   6.986   6.860  16.232  0.1190  0.2863  0.2282
 3817W        W20664   6.510  14.814  15.546  0.1865 -0.1887 -0.2938
 3818W        W20665   7.896  12.856   4.180  0.0123 -0.1247  0.2162
 3819W        W20666  16.708   7.123   2.984  0.1422  0.1132 -0.2235
 3820W        W20667  15.805  15.314  13.570  0.0526 -0.4352 -0.1414
 3821W        W20668   0.055   0.841   1.122  0.0828 -0.0112  0.0592
 3822W        W20669   2.989   8.782  10.444 -0.0058 -0.0624  0.3758
 3823W        W20670   7.989   1.804   3.801  0.0643 -0.1534  0.0482
 3824W        W20671  16.276   4.080  15.733 -0.1876 -0.0774  0.0849
 3825W        W20672   3.347   4.170  15.538 -0.0078  0.1046  0.3259
 3826W        W20673   7.360   1.785   0.025  0.1684 -0.4424  0.1109
 3827W        W20674   2.216  15.832   0.489  0.0689  0.2004 -0.0296
 3828W        W20675   9.459   6.247  11.347  0.1516  0.5063 -0.1157
 3829W        W20676  11.878  13.762   1.647 -0.0246  0.3017 -0.0186
 3830W        W20677   9.441  11.258  12.672 -0.1034 -0.2804  0.0504
 3831W        W20678   6.672  10.796   0.030  0.1614  0.2163  0.5369
 3832W        W20679   6.440   0.606   3.831 -0.0033  0.2273 -0.0491
 3833W        W20680   1.727  13.247  14.910  0.1455 -0.1849  0.1095
 3834W        W20681  16.820   0.248   4.850  0.2244 -0.1853  0.1371
 3835W        W20682   7.767   2.281   3.117  0.1240  0.0237 -0.2941
 3836W        W20683  13.533  12.813  13.710 -0.1644  0.0343  0.0235
 3837W        W20684   7.082   2.270  12.802  0.0502  0.0489  0.0614
 3838W        W20685  10.159  16.889  11.985 -0.1856  0.1905  0.0863
 3839W        W20686   4.306   1.816  14.025 -0.2723 -0.0845 -0.0089
 3840W        W20687  13.286  12.145  14.659  0.0727  0.1228 -0.0071
 3841W        W20688   8.331   3.286  13.694 -0.0867  0.0590  0.1231
 3842W        W20689   4.313  11.138  11.658 -0.0871  0.0354  0.0269
 3843W        W20690   0.988   7.138  13.017  0.0521 -0.1459  0.1440
 3844W        W20691  13.527   1.105  14.313 -0.0817  0.1798  0.1626
 3845W        W20692  12.519   8.667   5.202  0.2214 -0.2139 -0.4114
 3846W        W20693   5.886   7.771   4.601  0.3552 -0.1323  0.1122
 3847W        W20694  10.268   3.648   2.656 -0.0714  0.0858  0.1056
 3848W        W20695  13.888   7.747   1.642 -0.1244  0.1891  0.0653
 3849W        W20696  15.453   0.562   1.576  0.2715  0.1554 -0.0759
 3850W        W20697   0.993  10.854  12.187  0.1433 -0.1920  0.0407
 3851W        W20698   4.864   6.575   1.342 -0.0606  0.2389 -0.0687
 3852W        W20699  14.494  17.915   1.261  0.3102 -0.1928 -0.0778
 3853W        W20700   8.540   0.065  12.835  0.0200 -0.1913 -0.0730
 3854W        W20701  16.646  11.369  12.324 -0.0184  0.0949 -0.3096
 3855W        W20702   4.557   8.709  13.749 -0.0929 -0.2593  0.0280
 3856W        W20703   1.115   7.897  15.540 -0.1272  0.1987 -0.1424
 3857W        W20704   4.282   7.787   1.200  0.0520  0.3680  0.0210
 3858W        W20705   1.387  14.719  12.049 -0.0220  0.1914 -0.1609
 3859W        W20706   0.510  17.012   3.645 -0.2082  0.0105  0.2189
 3860W        W20707   8.697  12.739  13.053  0.1517 -0.1229 -0.1691
 3861W        W20708  16.556  14.134  14.794 -0.1729 -0.0772  0.1055
 3862W        W20709   7.765  15.850   4.292 -0.3437 -0.1007 -0.2359
 3863W        W20710  17.001   3.836   4.451  0.1845 -0.1777 -0.0287
 3864W        W20711   4.776  13.705   5.962  0.0932 -0.2747  0.1814
 3865W        W20712  16.610   6.838  16.332 -0.1153  0.0053  0.4098
 3866W        W20713  14.039   8.584   3.151  0.0975  0.0338 -0.1363
 3867W        W20714  11.606   0.301   2.375  0.0921  0.3888  0.1640
 3868W        W20715   0.589   7.964   3.353 -0.1685 -0.0801 -0.0587
 3869W        W20716  14.047  15.436  13.764 -0.0321  0.1932 -0.0387
 3870W        W20717   3.222   9.706   5.230  0.1856  0.0447 -0.0145
 3871W        W20718  15.716   8.994  12.013 -0.4355 -0.0784  0.1398
 3872W        W20719  10.740  10.694  15.387 -0.3883 -0.0150  0.1857
 3873W        W20720   5.761  14.375   2.340  0.0010 -0.2193  0.2785
 3874W        W20721   5.588   0.106   0.698 -0.1394  0.0144 -0.0500
 3875W        W20722  15.280  15.221  12.583  0.1025  0.0600 -0.1106
 3876W        W20723  13.682   3.680  15.200 -0.0040  0.0923  0.1474
 3877W        W20724  10.345  14.193   5.703 -0.1054  0.0551  0.3181
 3878W        W20725  17.914  13.394   2.235 -0.0031  0.1316 -0.0654
 3879W        W20726  17.033   8.630  13.953 -0.1146  0.1932  0.0244
 3880W        W20727   3.596  12.107   4.652 -0.0183  0.0626 -0.0567
 3881W        W20728   0.128   5.977   4.251  0.5739  0.0975  0.2916
 3882W        W20729   2.467   9.469  15.781  0.3129 -0.3955 -0.1034
 3883W        W20730   0.595  11.027  11.346  0.1335 -0.0673  0.1112
 3884W        W20731   9.638  15.168   4.311 -0.0502 -0.1180  0.0306
 3885W        W20732  10.523  10.952   1.335  0.1735 -0.2010  0.4563
 3886W        W20733   8.074  13.213   4.529  0.5157  0.1319  0.1271
 3887W        W20734  14.113   6.521  10.999  0.0857 -0.1049  0.1114
 3888W        W20735  11.347   4.719  12.357  0.3769 -0.0359  0.4104
 3889W        W20736   5.678   1.222  13.179 -0.3740  0.1620 -0.3143
 3890W        W20737   5.986   3.355  15.234  0.1236 -0.3182  0.3601
 3891W        W20738   2.970  10.465   4.941 -0.2946  0.0229 -0.4414
 3892W        W20739  18.368   4.526   5.791  0.2233  0.1833 -0.0044
 3893W        W20740  14.869   4.728   4.502  0.0092 -0.0222 -0.1839
 3894W        W20741  13.616   2.743  16.079 -0.3152 -0.2132 -0.0238
 3895W        W20742   2.425   0.966  13.498  0.2721  0.3416  0.0606
 3896W        W20743  12.945   9.260   4.673 -0.2323  0.0757 -0.1453
 3897W        W20744  11.635  12.784   3.077 -0.0081  0.0033  0.3945
 3898W        W20745   7.862   7.032   0.205 -0.0875 -0.1546 -0.4191
 3899W        W20746   7.685  10.836   3.697 -0.2007 -0.0778  0.1169
 3900W        W20747   5.998  10.334  10.611  0.2393  0.3435 -0.0486
 3901W        W20748  17.257   7.867   0.756  0.0740  0.0127  0.0011
 3902W        W20749  15.735  16.065   1.523 -0.0059 -0.2676 -0.2364
 3903W        W20750  12.569   5.267   2.699 -0.0135 -0.2862 -0.0326
 3904W        W20751   2.516   5.008   0.399  0.2482  0.0345  0.1546
 3905W        W20752  16.112   7.317  13.207 -0.1426  0.0639  0.2164
 3906W        W20753   8.245  15.091  15.679 -0.0211 -0.0050 -0.1009
 3907W        W20754  11.308   1.967  15.959  0.0042  0.0332  0.1146
 3908W        W20755   7.768   0.921   4.467  0.0729 -0.0720 -0.1615
 3909W        W20756   4.572   7.684   5.597 -0.0458  0.1575  0.0026
 3910W        W20757   6.827  16.021   5.816 -0.0507  0.2029  0.1845
 3911W        W20758   5.935  13.049  14.781 -0.1638  0.2507  0.1258
 3912W        W20759  12.785   7.758   3.034 -0.0555  0.2138  0.0889
 3913W        W20760   3.029   8.868   4.221 -0.0369  0.0569  0.0642
 3914W        W20761   1.349  16.934   1.352 -0.2592 -0.1946 -0.0755
 3915W        W20762   6.822   6.679  15.789 -0.0066  0.0412  0.0407
 3916W        W20763   9.569  12.787  14.334  0.1613  0.2873  0.0781
 3917W        W20764   3.342   3.254  13.080 -0.2163 -0.1911  0.0349
 3918W        W20765   2.826   9.585   4.124 -0.0438 -0.2515 -0.1860
 3919W        W20766   9.318   0.364   5.682  0.2482  0.3113  0.1177
 3920W        W20767   3.388   8.736   5.016  0.2438 -0.4000 -0.0691
 3921W        W20768  14.297  12.476  16.162 -0.0958 -0.0962  0.1543
 3922W        W20769   0.292  14.816   3.386  0.0330  0.0517  0.2546
 3923W        W20770   4.961  18.372  13.046 -0.1086 -0.3992 -0.1087
 3924W        W20771   5.237  14.251  15.817  0.0287  0.0337 -0.2159
 3925W        W20772   4.558  12.107   4.231 -0.0462  0.0337 -0.0402
 3926W        W20773  13.018  10.605  11.391 -0.1824 -0.1322 -0.2392
 3927W        W20774  11.964  17.915   2.488  0.0792  0.1545  0.1034
 3928W        W20775  12.151  17.910   1.172  0.1734  0.1451 -0.2550
 3929W        W20776   1.859  11.179   1.417  0.2073 -0.0180 -0.1620
 3930W        W20777   4.122  15.088  14.018  0.3551  0.0073  0.2336
 3931W        W20778  11.547  10.395  15.496  0.0366  0.0997  0.1825
 3932W        W20779  18.306   5.439  10.938 -0.0430  0.0400 -0.1845
 3933W        W20780   9.911  14.313   0.725  0.2249 -0.0742 -0.0134
 3934W        W20781  17.105   7.492   2.026 -0.1899 -0.2474  0.0608
 3935W        W20782  14.858   1.715  15.167  0.1758  0.0170 -0.0374
 3936W        W20783   2.200  12.489  12.095  0.4150 -0.0226 -0.1744
 3937W        W20784  15.481   5.190   1.075 -0.0350  0.0290 -0.2678
 3938W        W20785   8.706   6.477   2.385 -0.1947 -0.1031  0.1242
 3939W        W20786   1.969  10.132   5.050  0.0148 -0.3356 -0.0614
 3940W        W20787   8.835   3.276  14.546 -0.2374 -0.0984 -0.1095
 3941W        W20788   3.314  16.572   3.587  0.3604  0.0778 -0.2058
 3942W        W20789  11.864   9.589  12.471  0.1669 -0.1434  0.2832
 3943W        W20790  10.629  11.487   1.466 -0.3114 -0.3000 -0.1882
 3944W        W20791   4.974  16.620   1.882  0.1031  0.1332 -0.0306
 3945W        W20792   9.708   9.566   3.568  0.2509 -0.0098  0.4616
 3946W        W20793   6.171   4.179   1.577 -0.1220  0.0660  0.3327
 3947W        W20794   0.672   3.500  14.488 -0.2519  0.0368  0.3233
 3948W        W20795   9.462   2.364   4.392 -0.1628 -0.0354  0.1438
 3949W        W20796   6.806  14.313   2.948  0.0331  0.2233 -0.1338
 3950W        W20797  12.889  13.535   1.605  0.3508 -0.1252 -0.6017
 3951W        W20798   1.472  12.379  14.232 -0.0738 -0.1661  0.0116
 3952W        W20799   5.758   3.220  16.118  0.0191  0.2445 -0.1856
 3953W        W20800   3.423   2.394   2.776 -0.1195  0.2501  0.3448
 3954W        W20801  14.696   5.079  12.075  0.2058 -0.5595  0.0489
 3955W        W20802  13.695  13.969   5.927 -0.1366  0.1266 -0.0002
 3956W        W20803  16.114   7.306   2.240 -0.0689 -0.2374  0.1196
 3957W        W20804   5.704   6.313  16.266 -0.1147 -0.2032  0.1243
 3958W        W20805  13.411  14.724   5.328 -0.1920 -0.0299 -0.3465
 3959W        W20806   3.875  12.812  15.879  0.2151 -0.0371 -0.0032
 3960W        W20807  15.337   5.583   0.314  0.2207 -0.4548  0.1496
 3961W        W20808   6.567  16.934  12.004 -0.0525 -0.1673  0.1273
 3962W        W20809   6.402  16.896   3.024 -0.2373 -0.0512 -0.0906
 3963W        W20810   0.150  11.534  11.670 -0.1070  0.1319 -0.2852
 3964W        W20811   4.502   4.522  15.966  0.5223 -0.1993 -0.0465
 3965W        W20812   3.768  15.369  15.216 -0.0816  0.0436 -0.2155
 3966W        W20813   2.349  17.930  12.664 -0.0955 -0.0066  0.0373
 3967W        W20814   2.241   2.375   1.710  0.3016 -0.3760 -0.1375
 3968W        W20815   9.250  16.274   5.090 -0.0522 -0.0510  0.1399
 3969W        W20816  10.564  17.965  14.302 -0.1452  0.0647  0.0230
 3970W        W20817  14.380   4.208   2.727  0.1990  0.0454  0.1473
 3971W        W20818   1.543   5.922   3.090  0.0549 -0.3515  0.0935
 3972W        W20819   9.395  18.334   5.361 -0.0942 -0.1046 -0.0031
 3973W        W20820  17.019  17.255   2.592  0.4120  0.0271  0.1592
 3974W        W20821  12.965  18.392  11.783  0.1705 -0.0957  0.2196
 3975W        W20822  12.252  16.897   5.490  0.3898  0.2027  0.1922
 3976W        W20823  17.698   5.065  16.065  0.1946 -0.0461  0.1179
 3977W        W20824  13.489  18.287   3.051  0.1766 -0.1536  0.1966
 3978W        W20825   7.781  15.412   2.738 -0.2084  0.0560  0.1880
 3979W        W20826   4.458   9.462  12.547  0.2005 -0.0508 -0.3089
 3980W        W20827   6.273  14.291  15.545 -0.1249 -0.2198 -0.0037
 3981W        W20828  15.384  16.418   4.155 -0.2707 -0.0959  0.0352
 3982W        W20829   1.134  16.444   1.329  0.3470 -0.0723  0.2955
 3983W        W20830   4.543  12.497  14.670 -0.2713  0.0456 -0.0621
 3984W        W20831   8.725  15.036   4.777 -0.0485 -0.0232 -0.0601
 3985W        W20832  11.066  13.674   4.687 -0.1546  0.2327 -0.0577
 3986W        W20833   0.849   9.378  10.941 -0.0063 -0.0399  0.1201
 3987W        W20834   4.212   3.633  12.968  0.1996 -0.1392  0.0211
 3988W        W20835  16.800  12.550  12.127  0.1583 -0.2368  0.0947
 3989W        W20836  10.587  13.004   2.091  0.2015  0.2253  0.2514
 3990W        W20837  17.014  11.151  12.775 -0.1104 -0.2412  0.1479
 3991W        W20838  17.964   3.801  10.654  0.0398 -0.0489  0.1837
 3992W        W20839   4.997   2.264  12.162  0.1802 -0.0873 -0.4232
 3993W        W20840   2.482  14.412   3.141  0.5743 -0.0132  0.3209
 3994W        W20841  16.673   0.867  14.817 -0.3442  0.1096 -0.4172
 3995W        W20842  18.122   1.206  13.676  0.1577 -0.3868 -0.0585
 3996W        W20843   6.954   0.018   0.822 -0.3102  0.1754  0.1463
 3997W        W20844   9.538  17.901   4.623  0.0587  0.1028 -0.3219
 3998W        W20845  12.923  16.087   2.862  0.0328  0.0231  0.1041
 3999W        W20846  11.516   7.366  13.236 -0.0387  0.0711  0.0729
 4000W        W20847  10.075   5.166   3.303 -0.0680  0.2561 -0.1550
 4001W        W20848   1.490  17.815  13.157  0.0153  0.0272  0.2297
 4002W        W20849   5.970   3.260  11.727 -0.3360  0.0536 -0.1776
 4003W        W20850   4.707  12.914   4.283 -0.3355  0.2170 -0.0078
 4004W        W20851  18.371  12.913  12.183  0.1496 -0.0529  0.1718
 4005W        W20852  16.447   2.945   4.947 -0.0502 -0.2022  0.0267
 4006W        W20853   7.167  10.591  12.120  0.1137  0.0330  0.1162
 4007W        W20854  13.208   1.400  13.969 -0.0293  0.0814 -0.1288
 4008W        W20855  11.517  14.092  15.156 -0.0402 -0.0811  0.1901
 4009W        W20856  13.753  13.767  11.229  0.0451 -0.2167 -0.1397
 4010W        W20857   9.187   9.965   1.878 -0.0749  0.0786 -0.1621
 4011W        W20858  13.260  12.811   4.924 -0.2335 -0.0706  0.1257
 4012W        W20859   0.202   0.034  15.985  0.0137  0.0617 -0.1713
 4013W        W20860   2.176   5.215   0.110 -0.0932 -0.2981  0.2015
 4014W        W20861   3.937   9.593  11.539  0.0860  0.1617  0.4736
 4015W        W20862   3.326  11.680   4.436 -0.0333 -0.1462  0.1282
 4016W        W20863   2.067   7.609  11.971 -0.0844  0.1134  0.2367
 4017W        W20864   5.139   4.476  13.931  0.0991  0.1171 -0.2578
 4018W        W20865   0.853  17.987   3.574  0.1252 -0.0162  0.3656
 4019W        W20866  14.490   6.688  12.369 -0.0992  0.1533  0.2081
 4020W        W20867  14.227  13.515   5.211  0.2420 -0.1324 -0.4448
 4021W        W20868   6.016  16.961   0.807  0.0022 -0.0831 -0.1889
 4022W        W20869  16.537   7.058  12.529  0.1438 -0.0122 -0.0232
 4023W        W20870  17.757   0.723   3.875 -0.0686 -0.1759 -0.2318
 4024W        W20871  12.785   2.159   3.237  0.0778  0.0655 -0.1112
 4025W        W20872   8.723  16.709  14.633 -0.0323 -0.0930  0.4011
 4026W        W20873   5.640   4.087   5.050 -0.0362 -0.3425 -0.1154
 4027W        W20874   6.513  11.443  15.548  0.1502 -0.1689 -0.1104
 4028W        W20875   0.320   5.725  14.333 -0.2055  0.3457  0.1457
 4029W        W20876  11.505  15.883   2.296  0.0418 -0.3230 -0.1412
 4030W        W20877  17.070   1.682  13.482 -0.5012 -0.3034  0.0810
 4031W        W20878  10.468  11.816  13.363  0.3274  0.2029  0.1139
 4032W        W20879  15.424  12.114  13.807 -0.1646  0.0845 -0.3609
 4033W        W20880  17.977  12.761   4.710  0.1379 -0.1640 -0.3362
 4034W        W20881  14.223  14.488  15.714  0.1702  0.0312  0.0829
 4035W        W20882  17.973  15.244   1.638  0.0425 -0.1161  0.0089
 4036W        W20883   2.942  13.179  16.031  0.2258 -0.0132 -0.2437
 4037W        W20884   6.727   3.054  13.361  0.0322  0.1311  0.0682
 4038W        W20885   6.575   4.980   4.395  0.0110  0.1189 -0.1579
 4039W        W20886   2.820   8.905  12.017  0.0827 -0.2673  0.0260
 4040W        W20887  15.882   4.248  13.312  0.0511  0.0484 -0.3351
 4041W        W20888   2.102   6.724   3.308 -0.2554 -0.2578 -0.2605
 4042W        W20889  12.420  16.548  13.700 -0.0215  0.0347 -0.2455
 4043W        W20890   3.460   4.669  12.854 -0.0634  0.1409  0.1482
 4044W        W20891   2.392   9.907  16.046  0.1503 -0.0484 -0.0324
 4045W        W20892  10.359  14.258   0.816  0.0330  0.3028 -0.1906
 4046W        W20893   1.679   1.892  12.982 -0.1059 -0.1242  0.0483
 4047W        W20894   3.335   6.769   2.434 -0.0509 -0.1416 -0.2294
 4048W        W20895   0.672   9.885   3.493 -0.1517 -0.0359 -0.0103
 4049W        W20896  10.097  18.074   4.610  0.1406 -0.1216  0.1016
 4050W        W20897   2.847   9.979  13.778  0.0895 -0.0172  0.2019
 4051W        W20898   2.488  14.333  15.881  0.0504  0.1156 -0.0710
 4052W        W20899   1.020  11.691   0.683 -0.2062 -0.4151 -0.1084
 4053W        W20900   5.533  14.024   4.051  0.2526  0.1353 -0.3476
 4054W        W20901   8.525   1.865  13.694 -0.0153  0.2262  0.2480
 4055W        W20902   6.448  12.934   5.078  0.1261 -0.1633  0.3893
 4056W        W20903   0.740  17.048  15.647  0.2137  0.3180  0.0092
 4057W        W20904  16.824  11.659  14.201  0.0037 -0.1551 -0.0841
 4058W        W20905   4.611  10.032  12.483  0.0961  0.2299 -0.0192
 4059W        W20906  17.655   3.005   0.817  0.3153  0.2586  0.0685
 4060W        W20907  10.299  11.898   3.365  0.0555 -0.2703 -0.2719
 4061W        W20908  12.165   9.440   4.428 -0.1851 -0.3994 -0.0133
 4062W        W20909   9.205  17.247  11.872 -0.1500  0.0434 -0.2677
 4063W        W20910  10.242   9.605   5.525 -0.1415 -0.3895 -0.0725
 4064W        W20911  17.694  11.934   1.311  0.1284 -0.2052  0.2328
 4065W        W20912   7.488  12.343  12.115 -0.0875  0.1531 -0.0590
 4066W        W20913   0.520   8.858  14.725  0.1209  0.0137 -0.0849
 4067W        W20914   8.562   0.032   0.344 -0.0569  0.2887  0.2295
 4068W        W20915  15.798   8.591  15.121 -0.0594 -0.1218  0.2744
 4069W        W20916   5.235   5.365   4.001  0.0086  0.0496  0.1176
 4070W        W20917   7.822  13.863   5.338 -0.0973 -0.0860  0.1635
 4071W        W20918  17.752   2.952  14.387  0.2363  0.2447 -0.0785
 4072W        W20919  18.211  12.897   3.794  0.0937  0.1560 -0.1015
 4073W        W20920  13.940  16.015   4.823  0.3029  0.2459 -0.0275
 4074W        W20921  10.395   0.032   4.891  0.0852 -0.0844 -0.2628
 4075W        W20922  12.593   9.132  13.849  0.1631 -0.0750 -0.1243
 4076W        W20923   8.600  11.063  15.294  0.0846  0.3346 -0.3115
 4077W        W20924   8.729   9.282   1.568 -0.0006  0.0738  0.2542
 4078W        W20925  15.578  12.825  13.146  0.0492  0.2383  0.1150
 4079W        W20926   4.469   8.495   4.027  0.1926 -0.1344  0.2697
 4080W        W20927   1.190  17.608   3.494 -0.1688 -0.2067  0.0186
 4081W        W20928  15.798   3.004   1.106 -0.1357 -0.2051 -0.0206
 4082W        W20929   2.283   1.507   3.413 -0.2883  0.0979 -0.0674
 4083W        W20930  12.552   1.052   5.849  0.1716  0.2866  0.0833
 4084W        W20931   6.581   1.206   2.048 -0.0056 -0.0715 -0.0567
 4085W        W20932  17.547  18.168   0.598 -0.0545  0.1785  0.0981
 4086W        W20933   2.800   8.723   1.625 -0.1256  0.0535 -0.1609
 4087W        W20934  10.300  10.448  11.386 -0.2294 -0.2392  0.4146
 4088W        W20935  14.632  11.023   4.820  0.3266 -0.0924  0.0153
 4089W        W20936   0.251   1.511   0.193 -0.0922  0.3426  0.0125
 4090W        W20937   5.933  16.075  14.859 -0.2622  0.0744  0.2864
 4091W        W20938   4.482   6.299  11.520  0.0101  0.3416  0.3147
 4092W        W20939   0.953  15.249  14.093  0.2097 -0.5400 -0.3188
 4093W        W20940  15.843   3.060   2.480 -0.4308 -0.1358 -0.1524
 4094W        W20941  13.943  11.646   1.903  0.2229 -0.1324 -0.1546
 4095W        W20942  14.759  13.062  12.402 -0.0134  0.4306 -0.2739
 4096W        W20943   7.970   1.917  12.859  0.0134  0.4229 -0.1182
 4097W        W20944   1.523   7.176   1.959 -0.2011 -0.2146 -0.1148
 4098W        W20945  16.770  13.015  11.957 -0.4439 -0.0207 -0.0596
 4099W        W20946   9.541  16.092   4.721 -0.3215  0.0774  0.1507
 4100W        W20947   1.172   4.683   4.651  0.2584  0.1003  0.1981
 4101W        W20948   1.290  11.851   5.555  0.1421 -0.0837  0.0675
 4102W        W20949  13.179   3.661   3.455 -0.0389 -0.0804 -0.1082
 4103W        W20950  16.882   8.829  16.217  0.1366 -0.0520 -0.1395
 4104W        W20951   0.638   3.249  12.722 -0.1936  0.0926 -0.1055
 4105W        W20952   7.495   3.946  13.271 -0.0705 -0.1277 -0.2474
 4106W        W20953  17.227  16.456   3.594  0.1319  0.0947  0.1724
 4107W        W20954  11.441   7.863   1.957  0.0463  0.0795 -0.3620
 4108W        W20955   7.093  13.489   4.611  0.1477  0.1625 -0.0391
 4109W        W20956   5.808   1.980  12.420 -0.0181  0.0216 -0.3084
 4110W        W20957  14.293  15.908  13.109 -0.1624  0.2023  0.0469
 4111W        W20958   8.914   9.633  12.887 -0.2163  0.3202 -0.1603
 4112W        W20959  18.157   3.631   2.562 -0.2292 -0.1272  0.1775
 4113W        W20960   5.894   9.099  14.851 -0.0327 -0.0393  0.2506
 4114W        W20961   5.316  15.541   5.517 -0.1401  0.4337  0.2433
 4115W        W20962   8.988   2.052  12.531  0.2337 -0.3831  0.0988
 4116W        W20963  12.147   9.781   2.078  0.0227 -0.0413 -0.1521
 4117W        W20964   8.503  14.608   3.913  0.2416 -0.0428 -0.0371
 4118W        W20965  10.500   5.057  15.071  0.2227 -0.1088  0.1234
 4119W        W20966   2.852  10.189  16.314  0.0178 -0.2042 -0.2316
 4120W        W20967   9.547   1.526   0.988  0.1060  0.0383 -0.1251
 4121W        W20968  17.967   3.889   4.733 -0.0394  0.4001  0.1755
 4122W        W20969  11.107  14.045   2.792 -0.2057 -0.1423  0.1932
 4123W        W20970   9.008   7.424  11.727 -0.0256  0.1502  0.3479
 4124W        W20971   7.064   4.553  13.401  0.0172  0.1545 -0.3419
 4125W        W20972   9.126   8.865  15.683 -0.3666  0.0898  0.1240
 4126W        W20973  17.956  11.741   3.746  0.0446 -0.0312  0.3703
 4127W        W20974  13.605  15.267  12.086  0.0726  0.0436  0.0962
 4128W        W20975  17.489  18.345  13.842 -0.0946  0.0369  0.0226
 4129W        W20976  13.956   4.200  15.723 -0.3733  0.0133  0.0302
 4130W        W20977  13.522  13.410   3.031 -0.1473  0.1406 -0.0093
 4131W        W20978   7.064   9.169  12.870 -0.0529  0.1343  0.1727
 4132W        W20979  13.177  16.797  13.228  0.1042 -0.1300 -0.1149
 4133W        W20980   5.788  10.428   4.494 -0.0145 -0.1892 -0.2123
 4134W        W20981  16.352   2.913  10.869 -0.1638 -0.1209  0.1365
 4135W        W20982   2.058   7.078  12.175  0.1009  0.2266  0.0909
 4136W        W20983  14.567   0.802  12.083 -0.4871 -0.0465 -0.1526
 4137W        W20984  14.733   2.869  14.296 -0.0854 -0.1703  0.1142
 4138W        W20985  15.052   5.432  12.070  0.1159 -0.1344  0.0135
 4139W        W20986   5.505   2.248  11.934  0.1500 -0.0279  0.2463
 4140W        W20987  14.520  11.216   0.172  0.2212  0.1049 -0.2535
 4141W        W20988   2.706   4.169  14.142  0.2034  0.3859  0.1674
 4142W        W20989   8.493   8.464   4.567  0.1422 -0.0721  0.2521
 4143W        W20990   9.337   6.017   4.047 -0.0823  0.0721  0.2617
 4144W        W20991   6.235  18.063   4.298 -0.4384  0.2963  0.4249
 4145W        W20992   2.638  12.788   1.023 -0.0512  0.1041 -0.2075
 4146W        W20993   9.330  17.809   1.047 -0.1114 -0.1609 -0.0452
 4147W        W20994   8.826   3.023  15.053 -0.0676  0.0503 -0.0239
 4148W        W20995   2.400   4.654   0.767  0.3803 -0.0081  0.0107
 4149W        W20996   7.102   2.571  15.022  0.0442  0.0930  0.0143
 4150W        W20997   1.316  13.678  14.772 -0.0555  0.1274  0.0176
 4151W        W20998   6.688   7.669   3.360 -0.1137 -0.4141 -0.1021
 4152W        W20999   7.771   5.365   0.327 -0.4775 -0.2558 -0.1041
 4153W        W21000  13.076   8.908   5.563 -0.3550  0.0237  0.0471
 4154W        W21001   3.637   7.459  12.358 -0.1375 -0.0126 -0.0240
 4155W        W21002   2.830  15.800   2.312  0.3083  0.0052 -0.2176
 4156W        W21003   4.214   7.255   2.524 -0.3557 -0.2966  0.0084
 4157W        W21004   5.903   0.805   1.551 -0.0260  0.2313  0.2361
 4158W        W21005  17.272   9.579   3.841 -0.0768  0.2379 -0.1024
 4159W        W21006   0.656   4.754  12.707 -0.4332 -0.0411  0.0013
 4160W        W21007   8.525   6.120   5.098  0.0402 -0.1556  0.0514
 4161W        W21008   7.186  16.952  15.060 -0.0077  0.0869 -0.2005
 4162W        W21009   8.835  11.751  12.622  0.2220 -0.1695  0.2483
 4163W        W21010   1.913  11.515  14.337  0.0919  0.2955  0.0257
 4164W        W21011  14.273   1.729  12.542  0.3385 -0.2156  0.3310
 4165W        W21012  10.230   0.747  15.538 -0.4489 -0.1743  0.1157
 4166W        W21013   9.515   3.325   3.943  0.1572 -0.1747 -0.0566
 4167W        W21014   7.101   9.770   2.669 -0.0338  0.0122 -0.3281
 4168W        W21015   9.763   2.242  15.116 -0.2268 -0.1779  0.1202
 4169W        W21016  18.079  15.904  13.501 -0.0534 -0.2446  0.0364
 4170W        W21017  18.078  12.295   1.605  0.3637 -0.0721 -0.0869
 4171W        W21018   4.775  15.839   5.261  0.2549 -0.1443 -0.3219
 4172W        W21019   6.807   8.059   2.771  0.3023  0.2410  0.0077
 4173W        W21020  16.489  16.843  12.267 -0.3981 -0.1444  0.1795
 4174W        W21021   2.016  10.615   4.962  0.3724  0.0973 -0.2248
 4175W        W21022  16.373   3.468  15.050 -0.0789  0.1925  0.2157
 4176W        W21023  16.834  11.577  14.982  0.0470 -0.1777  0.2661
 4177W        W21024   8.680  12.234  13.029  0.0206  0.5078  0.0847
 4178W        W21025   3.303  17.060   3.756 -0.0451 -0.0084  0.0580
 4179W        W21026  15.858   8.572   5.073 -0.1007 -0.1069  0.0002
 4180W        W21027   1.096  15.419   5.348 -0.3878 -0.2350 -0.3133
 4181W        W21028   2.085   5.668  16.127 -0.1095 -0.2700 -0.2013
 4182W        W21029  14.264  18.074  13.855 -0.1069 -0.3172 -0.0468
 4183W        W21030  12.602   4.798  11.101  0.0910 -0.1843 -0.4144
 4184W        W21031  12.729  10.046   5.084 -0.0533  0.1015 -0.2622
 4185W        W21032   8.524   1.809  16.092 -0.1093  0.2148 -0.0092
 4186W        W21033   8.624   3.747  14.688  0.0390  0.2016 -0.1346
 4187W        W21034  17.979   8.955  14.141  0.4955 -0.2405  0.0666
 4188W        W21035   9.468  12.059   5.675 -0.1695  0.1673  0.3112
 4189W        W21036  16.347   6.652  13.315 -0.1040  0.0219  0.2435
 4190W        W21037   1.127   2.935   5.142  0.1060  0.0103  0.0105
 4191W        W21038   7.562  14.400  16.057  0.0364 -0.0180  0.3141
 4192W        W21039  12.537  11.048   1.098  0.0628  0.1121 -0.3265
 4193W        W21040  17.646  16.596   4.885  0.1470  0.0529  0.1774
 4194W        W21041  17.218   4.390   4.619  0.1793 -0.2697 -0.0266
 4195W        W21042   6.360   9.134   5.042 -0.0613  0.1466  0.0614
 4196W        W21043  10.349  17.602   0.377  0.2950  0.2032 -0.0933
 4197W        W21044  13.992  11.338  14.945 -0.0085 -0.0214 -0.2559
 4198W        W21045  10.536  10.542  11.828 -0.0225  0.0466 -0.0098
 4199W        W21046   4.934   8.552  14.999  0.0705  0.1328  0.2206
 4200W        W21047   8.927   2.197   1.534  0.2777  0.2502 -0.2057
 4201W        W21048  12.808   9.455  13.161 -0.0171  0.0253  0.1099
 4202W        W21049   3.172   7.084  11.497 -0.2619  0.0844 -0.3473
 4203W        W21050   7.588   0.413  11.727  0.0840  0.0437 -0.3912
 4204W        W21051   7.004   6.628  15.291  0.0293  0.0808  0.0365
 4205W        W21052  12.827  14.147  12.349 -0.5093 -0.1549  0.1509
 4206W        W21053  14.407  14.542   3.286  0.2471  0.3744 -0.3307
 4207W        W21054   2.012  17.866   2.745  0.0174 -0.1388  0.4324
 4208W        W21055  10.136   0.040   1.998 -0.0630  0.1358  0.2553
 4209W        W21056   6.760   2.964   4.282 -0.1327  0.1914  0.0926
 4210W        W21057   6.249  16.605   3.819  0.1593  0.1141  0.0014
 4211W        W21058  16.527  17.375  12.395 -0.0094  0.0827 -0.2573
 4212W        W21059   1.134   4.120  15.144  0.0976 -0.3031 -0.1056
 4213W        W21060   8.706  12.090   0.842  0.0627 -0.1953 -0.3074
 4214W        W21061   5.981  11.576  16.290  0.1350 -0.0507  0.0858
 4215W        W21062   9.779   5.370  13.353 -0.1650 -0.1480 -0.0516
 4216W        W21063  18.045   0.716  16.335 -0.0174  0.3019 -0.1046
 4217W        W21064   9.399   3.707  15.204 -0.2251  0.3198 -0.1854
 4218W        W21065  12.010   1.399  11.505 -0.0200 -0.0432  0.1475
 4219W        W21066  11.291  15.960   1.822 -0.0652  0.1696  0.0184
 4220W        W21067  11.369   4.989   0.135  0.0137 -0.1516 -0.0304
 4221W        W21068   3.735   2.091  14.820 -0.1815 -0.1977 -0.1258
 4222W        W21069  14.908   9.236   2.737  0.2667  0.1066  0.4154
 4223W        W21070   2.082   5.291   0.620 -0.0885 -0.1685 -0.1058
 4224W        W21071   3.847   0.189   4.435 -0.2071 -0.0831  0.2368
 4225W        W21072   0.725  16.835  11.872 -0.3240  0.0019  0.1370
 4226W        W21073   6.898   8.678  11.974 -0.3991  0.0973 -0.1630
 4227W        W21074  12.199   7.534   0.068 -0.1356 -0.1528 -0.0270
 4228W        W21075   0.590  12.119   1.348 -0.0224  0.0502 -0.1123
 4229W        W21076   5.560  16.575   3.919  0.1077 -0.2334  0.3761
 4230W        W21077   4.486  12.967  11.552  0.2070 -0.1608 -0.0217
 4231W        W21078  11.147   8.832   3.848 -0.2376  0.2208  0.1168
 4232W        W21079  17.437   3.477  13.423 -0.1072  0.0738 -0.0658
 4233W        W21080  11.437   2.131   2.128  0.2398 -0.0189 -0.2261
 4234W        W21081   9.641  18.004  15.487 -0.0414 -0.1589 -0.1209
 4235W        W21082   5.221  11.713  14.036  0.2412 -0.3189  0.2451
 4236W        W21083   0.158  15.444  12.819  0.2476 -0.1295 -0.1165
 4237W        W21084  12.480   6.981   2.245  0.0049 -0.3096  0.1715
 4238W        W21085   0.187   7.560  15.559  0.0731  0.2138 -0.0494
 4239W        W21086   0.002  13.567  15.907 -0.1060 -0.1550 -0.0383
 4240W        W21087   7.583  13.937  15.341 -0.0955  0.0205 -0.2134
 4241W        W21088   9.330  11.744  12.785 -0.0008 -0.1505  0.1593
 4242W        W21089  13.049  18.347   4.668  0.0613  0.0143  0.3383
 4243W        W21090   1.399  13.104   1.977  0.2457  0.1149  0.1089
 4244W        W21091  14.931  14.436  13.022 -0.0641 -0.0134  0.0089
 4245W        W21092  11.957  16.559  15.868  0.0413 -0.1896  0.0743
 4246W        W21093   7.768  16.220   0.957  0.2151 -0.2838  0.2942
 4247W        W21094   7.787   2.508  15.774 -0.0056  0.1041  0.2265
 4248W        W21095  13.933   4.225  11.743 -0.0555 -0.0779 -0.0626
 4249W        W21096   1.617   4.038  11.648 -0.1681  0.3071 -0.0987
 4250W        W21097  14.096  10.995  11.935 -0.1722  0.0804 -0.0513
 4251W        W21098   1.466  15.756  13.909 -0.3848  0.3548 -0.1311
 4252W        W21099  10.673  17.434  15.083  0.4659 -0.3478  0.1865
 4253W        W21100  18.276   1.415  11.396  0.4537  0.2789 -0.1767
 4254W        W21101   9.492  11.106   2.818  0.1475 -0.0470  0.1669
 4255W        W21102  14.942   2.229  15.660 -0.1692  0.0263  0.2476
 4256W        W21103   0.235   1.702  11.539 -0.0572 -0.1359 -0.1382
 4257W        W21104   6.156   8.469   3.268  0.3119 -0.0383 -0.3098
 4258W        W21105   6.237   1.697   0.688 -0.0702  0.3198 -0.2518
 4259W        W21106  16.744   7.696   4.576 -0.2347 -0.1532  0.1932
 4260W        W21107  14.511   1.640   3.331  0.2517 -0.1903 -0.2794
 4261W        W21108  12.599   6.196   1.596  0.0821  0.3069  0.1971
 4262W        W21109   3.109  13.351   1.496  0.0823 -0.0881 -0.0897
 4263W        W21110   4.031   2.327   0.591 -0.1596  0.1087  0.0127
 4264W        W21111   2.931   9.853   3.602  0.0230 -0.0573 -0.1079
 4265W        W21112  11.339   3.624  13.134  0.2607  0.1832 -0.0719
 4266W        W21113  11.690  12.085   1.910 -0.1167  0.2767 -0.1711
 4267W        W21114  17.644   9.546   2.347  0.2019 -0.1854  0.3880
 4268W        W21115   6.174   5.967  14.146 -0.2845 -0.1378 -0.0910
 4269W        W21116   4.197   0.444  14.648 -0.0253  0.2126 -0.2450
 4270W        W21117   1.622   4.222   0.862  0.0579  0.1066  0.1154
 4271W        W21118  14.596   1.033   0.533 -0.1253  0.0221 -0.1016
 4272W        W21119  15.814  16.566  12.828 -0.0645  0.1480 -0.0869
 4273W        W21120   7.061   8.868  11.499  0.0529  0.1653 -0.2683
 4274W        W21121  14.230  15.717  14.310 -0.3582 -0.2585  0.2000
 4275W        W21122   2.919  15.149   3.624  0.1973 -0.2633  0.2103
 4276W        W21123   3.540   8.129  13.524 -0.0189  0.2435 -0.1510
 4277W        W21124  15.955  17.684   3.376  0.4222  0.3686 -0.0730
 4278W        W21125   9.634  16.107   1.698 -0.0475 -0.0546 -0.1615
 4279W        W21126  11.896  17.741   4.675  0.3154 -0.1035  0.1402
 4280W        W21127  14.838   9.830  13.773 -0.2378  0.2823 -0.3295
 4281W        W21128  15.908   3.384  14.836 -0.2037 -0.3531 -0.1045
 4282W        W21129  11.215   5.462  12.300  0.0529  0.1323 -0.2005
 4283W        W21130   8.109   2.065  15.898  0.1614 -0.0763 -0.1616
 4284W        W21131  16.996   0.320   3.839 -0.2454 -0.2039  0.0003
 4285W        W21132   0.001   1.556   2.705  0.3439 -0.0345  0.0724
 4286W        W21133   2.061   4.692   4.844 -0.1179  0.1911 -0.2216
 4287W        W21134   6.885   1.280  12.621 -0.1277 -0.3257  0.0945
 4288W        W21135   2.440   1.620  13.919  0.0035  0.1138  0.1245
 4289W        W21136   7.123   7.864   3.313 -0.0081  0.2604  0.0810
 4290W        W21137   9.531   3.638   5.205 -0.1835  0.0204  0.0776
 4291W        W21138   8.423  14.043   3.893  0.3174  0.2435 -0.0306
 4292W        W21139  16.051  12.936  12.983  0.1340  0.0068  0.1319
 4293W        W21140   6.908   7.691  13.972 -0.2363 -0.0820  0.0868
 4294W        W21141   5.502  14.151  16.249  0.1930 -0.3003  0.0823
 4295W        W21142  15.064   8.002  10.762 -0.0154  0.1485  0.1881
 4296W        W21143  10.222   2.841  16.234  0.1156 -0.0329 -0.0347
 4297W        W21144  12.893   6.448  16.152 -0.0563  0.2853  0.2120
 4298W        W21145   1.109   1.880  14.993  0.1263 -0.1791 -0.0197
 4299W        W21146  11.831  16.660   5.117 -0.1363  0.4704 -0.2518
 4300W        W21147  15.594  13.487   0.667 -0.1638 -0.0021  0.2397
 4301W        W21148  11.771   2.752  16.227  0.1287 -0.1579 -0.2909
 4302W        W21149   4.773   5.773   3.290  0.0129  0.0558 -0.3245
 4303W        W21150  10.014  10.916   2.099 -0.1499 -0.0300 -0.0599
 4304W        W21151   5.964  17.522  14.383 -0.0367 -0.0003 -0.2581
 4305W        W21152  13.562   8.376   3.712  0.1725 -0.0583  0.0623
 4306W        W21153  17.536   5.350   0.563 -0.1771  0.0486  0.2680
 4307W        W21154  11.865   4.509   3.695 -0.0042  0.1816 -0.0365
 4308W        W21155  14.701  10.006   2.320  0.0425  0.1104  0.0585
 4309W        W21156   1.007   7.621  12.852 -0.0515 -0.1941 -0.1115
 4310W        W21157  17.645   0.712   0.311 -0.3091  0.2434  0.0671
 4311W        W21158  15.586   4.540   9.930 -0.1099 -0.0533  0.1103
 4312W        W21159   1.542   1.969   2.008  0.0682  0.0203 -0.1481
 4313W        W21160  10.227   9.788  15.408 -0.2811  0.1405 -0.2521
 4314W        W21161  12.270   0.209   0.957  0.0003 -0.3898  0.7053
 4315W        W21162  17.713  17.378   4.451  0.0265 -0.0643 -0.0737
 4316W        W21163   9.401   1.806  15.884 -0.0406 -0.0327 -0.1267
 4317W        W21164  16.990   3.386  10.964  0.1803  0.0791 -0.0183
 4318W        W21165  12.103  10.319  12.439  0.1706 -0.3513  0.0677
 4319W        W21166  15.582   8.498  16.058  0.3376  0.0688  0.2046
 4320W        W21167  13.887  10.029   5.486  0.0052  0.1160 -0.1501
 4321W        W21168   9.904   9.165   2.817  0.4494  0.1476 -0.1884
 4322W        W21169   9.210   3.291  13.094  0.1205  0.0718  0.3578
 4323W        W21170  13.325   6.369   4.318 -0.2494  0.1016 -0.0551
 4324W        W21171   7.186  13.495  13.563 -0.1076  0.1742 -0.0692
 4325W        W21172  10.119  13.626  15.243 -0.1913 -0.2687 -0.1444
 4326W        W21173  13.001   9.467   2.667 -0.2700 -0.1055 -0.1023
 4327W        W21174  15.502   1.092  14.097  0.2204  0.4001 -0.1429
 4328W        W21175  14.240  10.151  15.556 -0.0547  0.1775 -0.1117
 4329W        W21176   6.771   9.940  15.607  0.1976 -0.0384 -0.0155
 4330W        W21177  15.865   3.622   1.768  0.3702 -0.1227 -0.0326
 4331W        W21178  14.985  11.449  10.519  0.4415  0.2229 -0.1229
 4332W        W21179  15.935   1.821   3.243 -0.1741 -0.0762  0.0764
 4333W        W21180   8.943   8.869  12.142  0.0726  0.3498 -0.2713
 4334W        W21181   0.415  10.560   3.673 -0.0971  0.0554 -0.0503
 4335W        W21182   2.899   2.557   3.675  0.2788  0.4671 -0.1118
 4336W        W21183  17.559   4.118  15.326 -0.1687  0.0500  0.0143
 4337W        W21184  13.055   6.998   3.690 -0.1309  0.0045 -0.1151
 4338W        W21185  13.699  13.486   2.576 -0.0125 -0.1925 -0.0683
 4339W        W21186   6.156  13.148   3.816 -0.0821 -0.0526  0.1637
 4340W        W21187  17.296  12.601  12.308 -0.0582 -0.0668 -0.0195
 4341W        W21188   5.484   4.540  16.107 -0.2185 -0.2680  0.2807
 4342W        W21189   2.917   6.529   4.226  0.2691  0.0632 -0.0326
 4343W        W21190  12.903  17.701  12.682  0.2268  0.0490 -0.2035
 4344W        W21191   5.437  12.296  15.758  0.1491  0.2342  0.0716
 4345W        W21192   6.547   8.924  12.615 -0.0968  0.0168 -0.3447
 4346W        W21193   8.169  10.961  12.643 -0.0578  0.2285 -0.0756
 4347W        W21194  15.699  16.766   4.553  0.1018  0.0537 -0.1450
 4348W        W21195  11.287  14.696  13.933  0.0790  0.0744 -0.0183
 4349W        W21196   0.911   9.721   4.143  0.0089 -0.0388  0.0973
 4350W        W21197   6.786  13.472  13.867  0.1840 -0.1174 -0.0572
 4351W        W21198  16.681   3.077   2.646  0.0812 -0.0330  0.2665
 4352W        W21199  17.798   5.143   3.245 -0.0963 -0.2045  0.4394
 4353W        W21200   6.832  14.777   1.655 -0.2216 -0.1417 -0.0165
 4354W        W21201  10.784  15.707   4.502 -0.2158  0.1574 -0.2011
 4355W        W21202   5.263   4.304  13.251 -0.2728  0.2565 -0.2921
 4356W        W21203  16.675   3.685  15.642 -0.0159  0.2373 -0.2101
 4357W        W21204  17.562   6.385  11.253  0.1334  0.1649 -0.0613
 4358W        W21205  11.991   8.402   3.499  0.1222  0.1643 -0.0474
 4359W        W21206   3.481   0.396  15.075  0.1040 -0.0216 -0.2183
 4360W        W21207   4.333  16.871   1.800  0.0982  0.0082  0.2343
 4361W        W21208   8.742   0.277   4.192 -0.1141 -0.1320 -0.2248
 4362W        W21209  16.884   3.085  14.193  0.0893  0.0441 -0.0954
 4363W        W21210  16.551  12.010  13.810  0.0659  0.5995 -0.1344
 4364W        W21211  14.046  13.071   1.581 -0.1568 -0.3376 -0.1144
 4365W        W21212   4.073  10.038   4.925 -0.1650  0.0200  0.1361
 4366W        W21213  13.735  13.626  13.925 -0.4342 -0.0576  0.1767
 4367W        W21214   6.414   5.387  14.619  0.0368 -0.0004 -0.0964
 4368W        W21215  16.134  11.945   3.975 -0.0564 -0.0048 -0.1669
 4369W        W21216   6.873  17.195   0.558  0.2540  0.1300 -0.1440
 4370W        W21217  17.786   0.593  15.878 -0.3331  0.0688 -0.0172
 4371W        W21218  11.551  11.343  15.115 -0.0424  0.1119  0.2717
 4372W        W21219   0.579  12.428   3.880  0.0033 -0.1688  0.1122
 4373W        W21220   1.609  12.216  15.844  0.1281  0.3262 -0.2212
 4374W        W21221   8.387   3.462   5.730  0.0538 -0.2527  0.0281
 4375W        W21222  17.679  12.499  12.651  0.0360  0.0614  0.3742
 4376W        W21223   0.147   9.366   0.060  0.0503 -0.0497 -0.0269
 4377W        W21224  12.795  16.758  14.385  0.1381  0.2686 -0.0188
 4378W        W21225   1.840   4.043  14.266 -0.2366  0.0965 -0.1681
 4379W        W21226   0.583   9.085   2.453 -0.0838 -0.0246  0.1261
 4380W        W21227   8.210   2.365   1.908  0.0375 -0.2706  0.1944
 4381W        W21228   5.636   7.145  11.900  0.2575 -0.0652  0.2648
 4382W        W21229   1.109  12.729  11.739  0.4198  0.3530  0.6567
 4383W        W21230   1.176   8.790   1.184 -0.2310  0.0870 -0.2684
 4384W        W21231   9.657   1.640  11.965  0.2170 -0.4147 -0.0489
 4385W        W21232   1.466  17.769   2.268 -0.1210 -0.0434 -0.2126
 4386W        W21233  16.980   6.195   4.950 -0.3954  0.2822  0.2655
 4387W        W21234   9.631   3.366   3.367  0.1008  0.4153  0.3664
 4388W        W21235   2.138   9.158   4.316 -0.0068  0.0662 -0.0402
 4389W        W21236  15.471  12.033  14.318 -0.0253 -0.3188 -0.2357
 4390W        W21237  15.088  17.376   1.715  0.2903  0.2358 -0.0777
 4391W        W21238  14.612  10.460   0.232  0.2517  0.1285 -0.1042
 4392W        W21239  17.314   2.540   0.904  0.2304 -0.1752 -0.0876
 4393W        W21240   5.854   8.983   5.069 -0.3064 -0.1768 -0.2155
 4394W        W21241   2.393   7.590   2.909 -0.0008 -0.4750 -0.0170
 4395W        W21242   0.685  15.113  13.674 -0.3231 -0.1684  0.0477
 4396W        W21243   7.225   1.998  14.913  0.0692 -0.2531  0.0956
 4397W        W21244  14.823   1.932   2.322  0.4942 -0.0720  0.3001
 4398W        W21245   3.138   3.779   3.803 -0.1024  0.1176  0.0750
 4399W        W21246  17.143   4.685   5.575 -0.0911 -0.1537  0.1575
 4400W        W21247   0.910  12.352  14.953  0.0478 -0.0248 -0.1504
 4401W        W21248   2.285   4.715   0.024  0.0955  0.1139  0.3067
 4402W        W21249   0.287   4.651   0.165  0.0436 -0.2059 -0.1298
 4403W        W21250   6.018   7.957   2.949  0.0077  0.0472 -0.0302
 4404W        W21251   3.982  12.142  12.591 -0.4244  0.0247 -0.4376
 4405W        W21252  14.230  11.626   1.154  0.0064  0.3176 -0.0780
 4406W        W21253   8.767   8.053  11.634  0.0572  0.0969  0.0837
 4407W        W21254  10.504  16.036  13.150  0.4054 -0.2324 -0.0333
 4408W        W21255  11.945  12.252  13.136  0.1530  0.1154  0.0201
 4409W        W21256  13.705  18.184   1.388 -0.2172 -0.2273  0.2724
 4410W        W21257   3.501  12.967   1.510  0.0394 -0.0128  0.4692
 4411W        W21258   7.244   3.035  11.365 -0.1245 -0.1809 -0.0013
 4412W        W21259   2.521  16.057  12.575  0.2563  0.1212  0.1856
 4413W        W21260  12.258  14.815   0.206 -0.2040  0.0775  0.0818
 4414W        W21261   7.127   2.622   4.031  0.0711  0.0223 -0.2877
 4415W        W21262   4.435   7.729   3.346  0.0394  0.2287  0.2409
 4416W        W21263   0.481   3.261   3.786 -0.0019  0.3295  0.1533
 4417W        W21264   3.139  10.236   0.370  0.0065 -0.0947 -0.0364
 4418W        W21265   8.101  17.430   5.315  0.0761 -0.4146  0.0236
 4419W        W21266  14.235  11.649  12.628  0.4511 -0.0886  0.1086
 4420W        W21267   5.372   5.833   5.483 -0.0388  0.1089  0.2282
 4421W        W21268   4.590   9.399  15.110 -0.3974 -0.0096  0.0239
 4422W        W21269   8.954  17.618   1.752  0.1038  0.0585  0.5626
 4423W        W21270   2.013   8.791  15.070  0.0745  0.3333  0.0285
 4424W        W21271   7.716   7.336   2.321  0.1503 -0.0521  0.0960
 4425W        W21272   4.932  18.023   0.911 -0.0132  0.0467 -0.1100
 4426W        W21273   4.478  17.820   1.132 -0.0235  0.0912 -0.0224
 4427W        W21274   0.212   0.056  11.368 -0.4105 -0.2987  0.0197
 4428W        W21275   8.807   7.252  15.880  0.1196  0.0311 -0.0208
 4429W        W21276   2.724   7.714  14.089  0.1873  0.0937  0.2128
 4430W        W21277   5.113   4.649  15.183 -0.0235 -0.1039  0.3102
 4431W        W21278   0.579  16.811   5.276 -0.0441  0.0733 -0.3317
 4432W        W21279   8.258   2.463   2.739  0.2341  0.4151  0.1393
 4433W        W21280   2.363   9.956  13.526 -0.0607 -0.3078 -0.4014
 4434W        W21281   6.888  10.148   0.478  0.2732  0.3668  0.0257
 4435W        W21282   0.382  14.983   0.359  0.1594  0.0723  0.0861
 4436W        W21283  18.259  10.403   3.449  0.4514  0.1275 -0.1587
 4437W        W21284   5.587   4.852  12.672  0.1002 -0.1152  0.2760
 4438W        W21285  13.360   0.895  13.784  0.1161 -0.4723  0.0123
 4439W        W21286  16.329  12.235   4.899  0.0022 -0.1435  0.1075
 4440W        W21287   2.680  12.116   3.419  0.0036 -0.2711  0.2905
 4441W        W21288   4.256   1.474  14.452  0.0047  0.0265  0.3018
 4442W        W21289  16.562   1.187   4.639 -0.0668  0.0113 -0.0974
 4443W        W21290   5.206  17.063  16.225 -0.3393 -0.2253 -0.2239
 4444W        W21291   2.586   8.555  15.744  0.0421  0.0639  0.0746
 4445W        W21292   3.050   8.557  11.676 -0.1469  0.1033 -0.0045
 4446W        W21293  13.789   6.084   1.698  0.1479 -0.0340 -0.1255
 4447W        W21294   5.597   9.066   4.612 -0.1390  0.1668  0.1665
 4448W        W21295  10.743   0.995   4.309 -0.1356  0.1129  0.3520
 4449W        W21296  14.499  13.667  14.884 -0.0181 -0.1157 -0.0035
 4450W        W21297  15.015  16.146   4.369  0.0923 -0.1791  0.2001
 4451W        W21298   4.031   9.190  16.097 -0.1148 -0.0579 -0.1973
 4452W        W21299  16.396   1.685  14.679  0.3884  0.0211  0.1197
 4453W        W21300   1.416  14.213   0.660 -0.4862 -0.1125  0.2284
 4454W        W21301  16.108  12.369  12.941 -0.1832  0.1544  0.0797
 4455W        W21302   1.803   3.259   3.948  0.1010  0.2828 -0.1867
 4456W        W21303   9.453   0.256  13.385 -0.0154 -0.0286  0.2012
 4457W        W21304  17.310  11.651   1.079  0.0507 -0.0282  0.1553
 4458W        W21305   4.933   9.253  14.198  0.3847 -0.0383 -0.1265
 4459W        W21306   1.510   9.138   1.304  0.1580 -0.0656  0.3204
 4460W        W21307  17.054  11.171  14.166 -0.2545  0.0322 -0.3742
 4461W        W21308   0.204   8.669   2.771 -0.1589  0.1905 -0.2896
 4462W        W21309   6.269  13.248  13.621  0.2749 -0.0586 -0.1040
 4463W        W21310   4.639   3.855  12.838  0.3475 -0.0578 -0.0314
 4464W        W21311   9.040   1.473   3.000 -0.0464  0.2304  0.0983
 4465W        W21312  16.825   7.340  13.685 -0.2567  0.1257 -0.1713
 4466W        W21313   6.368   6.472   6.024  0.0998  0.0363  0.1215
 4467W        W21314   9.534  17.411  13.299  0.0378 -0.1834  0.0211
 4468W        W21315   0.569   3.707   1.010  0.1234 -0.3875 -0.2891
 4469W        W21316  15.111   1.344  16.146 -0.0846  0.1286  0.0623
 4470W        W21317  13.155  11.369   2.947 -0.1649 -0.1958  0.1499
 4471W        W21318  14.759  15.461   1.099  0.2002 -0.1105 -0.1022
 4472W        W21319  11.329  14.573   1.505 -0.2701  0.0185  0.0427
 4473W        W21320  13.334  10.211   0.251  0.0420  0.0019 -0.2051
 4474W        W21321   0.627   4.027   1.434 -0.0130  0.2638 -0.0261
 4475W        W21322  10.145   9.883   3.276 -0.0583  0.0318  0.2007
 4476W        W21323  16.875   2.018   5.030  0.1223  0.0469  0.2445
 4477W        W21324  14.219   6.350  13.597 -0.0895 -0.0677  0.1489
 4478W        W21325  11.415  14.530  14.864 -0.0305  0.2836  0.3030
 4479W        W21326  10.862  12.424   2.695 -0.1410  0.1784  0.0589
 4480W        W21327  10.454   7.910   4.414  0.1363 -0.0466 -0.1525
 4481W        W21328   1.769  13.816  12.953 -0.1211 -0.0011 -0.0896
 4482W        W21329   2.144  11.569  12.499 -0.1383 -0.0706 -0.4949
 4483W        W21330   8.467   7.050  15.330 -0.2683  0.1114 -0.0795
 4484W        W21331  18.206   2.377   3.135 -0.0704  0.1328  0.0649
 4485W        W21332   8.712   7.172  14.960 -0.1903  0.2346  0.2085
 4486W        W21333  14.650   5.604   3.314  0.1371 -0.2229 -0.2649
 4487W        W21334  10.136  11.357   5.152 -0.0140 -0.2556  0.0741
 4488W        W21335   3.084  11.810   0.261  0.0941  0.2860 -0.1583
 4489W        W21336  16.364   8.751   0.009  0.0746  0.3069  0.1701
 4490W        W21337  10.495   2.363  16.349 -0.0152 -0.2648  0.0219
 4491W        W21338   4.748   4.457   3.020 -0.0067  0.1807 -0.0085
 4492W        W21339   0.498   5.605  13.236 -0.0733  0.0738 -0.0084
 4493W        W21340  18.270  17.267  11.723  0.1544  0.1081  0.1851
 4494W        W21341  17.242   5.661  13.693 -0.1380 -0.0867  0.0350
 4495W        W21342  14.770   0.255  14.320  0.1386 -0.1213 -0.1772
 4496W        W21343   3.212   4.854   0.389  0.1566 -0.0076 -0.1766
 4497W        W21344   8.863  13.793   3.681 -0.3627 -0.1728 -0.0888
 4498W        W21345   9.649  10.610  15.603 -0.0150  0.1887  0.5614
 4499W        W21346   3.605   6.813   4.139 -0.2158  0.0777  0.2334
 4500W        W21347   0.500  11.964  13.436 -0.0463 -0.0901  0.2573
 4501W        W21348  14.537   4.217  15.094  0.1419 -0.0766 -0.0738
 4502W        W21349   7.286   6.112   3.151  0.2074 -0.4837  0.0439
 4503W        W21350  12.722   0.414   1.241  0.2113  0.3768  0.1132
 4504W        W21351   6.117  17.545   0.500  0.0123  0.0128  0.0145
 4505W        W21352   0.603  15.585   4.394  0.0077 -0.0596 -0.0799
 4506W        W21353  14.263   1.127   3.128 -0.0769 -0.0966  0.1270
 4507W        W21354  13.156   6.309   1.149  0.3406 -0.0825  0.4848
 4508W        W21355   5.815  12.658   0.590  0.2257 -0.1548  0.1439
 4509W        W21356  15.375  13.036  13.581  0.5673  0.2107 -0.1443
 4510W        W21357   7.975   7.668  11.956 -0.1437 -0.0600  0.1719
 4511W        W21358  12.217  17.009  16.159 -0.3488  0.1387  0.4492
 4512W        W21359   4.204  11.430   0.262  0.1955  0.0464  0.1952
 4513W        W21360   7.654  16.956   4.564 -0.2380  0.0105  0.1016
 4514W        W21361   9.475   2.699   0.014  0.1902  0.0188  0.5055
 4515W        W21362   6.789  13.430  15.289 -0.1654  0.0598 -0.2522
 4516W        W21363  11.628   5.996   3.722  0.4824  0.0381 -0.1650
 4517W        W21364   9.989  15.221   2.344 -0.2589 -0.0655  0.0093
 4518W        W21365  13.499  10.643  13.435 -0.2269 -0.1625  0.4626
 4519W        W21366   8.823  10.590   3.835 -0.1435 -0.5206  0.1231
 4520W        W21367   0.115  11.181   2.842 -0.0016 -0.1210  0.1762
 4521W        W21368   1.644   7.730  13.302  0.0069 -0.1604 -0.2014
 4522W        W21369  17.941  15.326  13.209 -0.3999  0.0844  0.1224
 4523W        W21370  14.932   6.273   4.566  0.0255  0.0046  0.2575
 4524W        W21371  15.406  13.015   3.603  0.1349  0.0047 -0.2723
 4525W        W21372   6.056   6.677  14.830 -0.2260 -0.1228  0.2332
 4526W        W21373   0.896   5.669  10.637  0.2382  0.1350  0.0007
 4527W        W21374  13.210  13.788  13.812 -0.0160 -0.0030 -0.1634
 4528W        W21375   7.736   4.397   3.345 -0.2878  0.4232 -0.2012
 4529W        W21376  11.463  16.402   2.336  0.0296  0.1257  0.3833
 4530W        W21377  16.230  12.862   0.946  0.3217  0.0806  0.2227
 4531W        W21378   1.620   3.528   0.475  0.0826  0.0176  0.1804
 4532W        W21379  15.194   2.905   3.675  0.1413  0.2052 -0.0099
 4533W        W21380  17.740   2.065  14.173  0.1086  0.1071  0.0694
 4534W        W21381   2.859   4.628   4.333 -0.3095 -0.1073 -0.2766
 4535W        W21382   7.104  17.097  12.936 -0.1159 -0.0498  0.3180
 4536W        W21383  13.348   8.486   5.706 -0.0806  0.1204 -0.2686
 4537W        W21384   9.461   5.274   1.938 -0.0823 -0.0996  0.1691
 4538W        W21385   2.394   0.808   3.137 -0.0594 -0.0516  0.3054
 4539W        W21386  13.891   8.097   2.989  0.0357 -0.1124 -0.0963
 4540W        W21387  12.229   7.994   4.346  0.0098  0.1974  0.0398
 4541W        W21388  17.823   8.576   1.275 -0.0099  0.2168 -0.1102
 4542W        W21389  13.304  18.219  11.384  0.0683 -0.0773 -0.0027
 4543W        W21390   8.368  14.505   5.555  0.1264 -0.0063 -0.1241
 4544W        W21391   0.543   3.390   4.709 -0.0870 -0.0465  0.1654
 4545W        W21392  11.881   6.429  11.196  0.0395 -0.1418  0.2188
 4546W        W21393  13.566   1.494   3.601 -0.4525 -0.0577 -0.1815
 4547W        W21394  15.759   4.922  13.297  0.0585  0.1024 -0.0298
 4548W        W21395   8.657   0.598  12.011 -0.0787  0.1142  0.1286
 4549W        W21396   4.120   0.313   1.807 -0.1639  0.0933 -0.0959
 4550W        W21397  17.860   5.706   1.531  0.2243 -0.2549  0.2115
 4551W        W21398   2.134   0.561   1.341 -0.3104 -0.3728 -0.1465
 4552W        W21399   1.067   0.773  16.072  0.2822 -0.0577 -0.3162
 4553W        W21400   7.938  11.397  14.274 -0.0586 -0.2878  0.0622
 4554W        W21401  14.245   9.116   4.553  0.0197 -0.1754 -0.0351
 4555W        W21402   8.983   4.994   2.918  0.2610  0.4236  0.0165
 4556W        W21403   3.833   5.543  12.663 -0.3357 -0.1590  0.0049
 4557W        W21404   0.953   3.022  14.228 -0.2319 -0.1097  0.0272
 4558W        W21405   3.992   9.050   3.241  0.0233  0.0017  0.2510
 4559W        W21406  14.507  14.277   0.745  0.0164  0.1252  0.1098
 4560W        W21407  12.667   9.657   1.956  0.2215 -0.3201  0.0619
 4561W        W21408   4.294  11.392   5.142 -0.1278 -0.0387  0.2563
 4562W        W21409  12.583   1.336   5.133 -0.0102 -0.0770  0.0511
 4563W        W21410   2.298   8.585   0.713  0.0401 -0.0233 -0.0927
 4564W        W21411   1.582   7.748   4.045  0.0148  0.1136  0.1086
 4565W        W21412   2.693   9.546  13.627  0.2686  0.1188 -0.1136
 4566W        W21413  13.409   1.601  12.974 -0.0408 -0.1113  0.1669
 4567W        W21414   9.250   6.096  16.085 -0.2863 -0.1235  0.0979
 4568W        W21415  13.424   8.475   1.410  0.1017  0.1056 -0.3829
 4569W        W21416   6.534   9.956   1.224  0.2263  0.2135  0.1937
 4570W        W21417   8.409  10.273  15.041  0.0175  0.0609 -0.1420
 4571W        W21418  13.368  17.023   1.127 -0.3356 -0.1515 -0.2502
 4572W        W21419  14.398   8.770  12.555  0.2099 -0.0408  0.0491
 4573W        W21420  15.571  16.854  14.818 -0.0143  0.0470  0.2474
 4574W        W21421  11.976   9.279   2.037  0.1674  0.2150  0.0357
 4575W        W21422   5.280  16.435  12.517 -0.0937  0.0323  0.2141
 4576W        W21423   3.794   6.128   4.693 -0.0777 -0.1700 -0.2884
 4577W        W21424  12.631   4.592   4.257 -0.0207  0.1890  0.1701
 4578W        W21425   2.680  12.347  15.904 -0.1660  0.1061  0.2004
 4579W        W21426   4.738   0.258   4.905  0.3345 -0.0679 -0.2529
 4580W        W21427   0.489  10.929   0.579 -0.2882 -0.0671 -0.0735
 4581W        W21428  18.356   5.538  12.747  0.0549 -0.1753 -0.0606
 4582W        W21429  11.140   1.345   3.580  0.2103  0.2520 -0.1179
 4583W        W21430  13.562   7.974  14.804  0.1285 -0.0171  0.3154
 4584W        W21431  12.442  11.251   2.505  0.4551 -0.2224  0.0883
 4585W        W21432   8.572   1.699   0.358  0.1222 -0.0699  0.2530
 4586W        W21433   0.194  14.340  16.038  0.0223  0.1997 -0.0476
 4587W        W21434  16.200   8.959  12.259 -0.0886  0.0241 -0.0865
 4588W        W21435  13.921   3.836   1.406 -0.1294 -0.2159 -0.0498
 4589W        W21436   2.252   6.167   4.863  0.0413 -0.0755 -0.0147
 4590W        W21437  15.325   8.538  15.259 -0.1632 -0.1297  0.2699
 4591W        W21438  16.854   9.271  11.625 -0.0552 -0.0631 -0.3910
 4592W        W21439   7.156  12.816   2.739  0.0015  0.1562 -0.2902
 4593W        W21440   2.894  11.160  11.656  0.2117 -0.0617 -0.1372
 4594W        W21441  15.972  12.934   2.580 -0.3640 -0.2100  0.2643
 4595W        W21442   4.798  12.205   0.346  0.1711  0.0670 -0.4689
 4596W        W21443   2.534   1.055   3.577  0.0800 -0.3130 -0.1783
 4597W        W21444   9.658   4.233  16.025 -0.0406  0.1467 -0.0042
 4598W        W21445  17.214   6.025   3.968  0.1367  0.0847  0.2820
 4599W        W21446  12.393   4.032   3.002 -0.0175 -0.1134 -0.2004
 4600W        W21447   7.008  10.135  11.903  0.1641 -0.0727 -0.0450
 4601W        W21448   8.630   1.172   0.921 -0.1063 -0.0109 -0.3009
 4602W        W21449   2.124   0.055  13.593  0.0954 -0.2757 -0.0059
 4603W        W21450   5.718   4.238  10.926  0.0048 -0.0424 -0.1393
 4604W        W21451  10.053   3.147   0.997 -0.4428 -0.0525 -0.0081
 4605W        W21452   0.595  16.535   5.763  0.3740  0.0549  0.0420
 4606W        W21453  14.743   2.457  12.445  0.1215 -0.2499 -0.2158
 4607W        W21454  14.432  11.679  15.463 -0.1222 -0.1932 -0.0297
 4608W        W21455  11.182   5.817   3.902 -0.1393 -0.0320  0.3831
 4609W        W21456   2.185   9.323  12.761 -0.1153 -0.4297 -0.0575
 4610W        W21457  17.961  15.203   1.133 -0.2101 -0.0084  0.2388
 4611W        W21458  15.770  14.763   3.217  0.1846  0.1171  0.3628
 4612W        W21459   8.570  10.757   5.286  0.0842  0.0879  0.0467
 4613W        W21460  18.168   1.824   3.124 -0.0062  0.4205  0.0132
 4614W        W21461   2.190   0.244   2.392 -0.3622  0.0084 -0.2302
 4615W        W21462  11.870  11.197  13.004  0.0051  0.0263 -0.0671
 4616W        W21463   9.731   8.638  12.623  0.1772  0.0360  0.2264
 4617W        W21464  15.391  14.611  13.253 -0.1347 -0.1633 -0.0543
 4618W        W21465   8.896   4.375   2.056 -0.0007 -0.1390  0.0174
 4619W        W21466  17.176   9.473  14.797 -0.1572 -0.0624 -0.2643
 4620W        W21467   3.929   5.313  11.316  0.0832 -0.0548  0.0835
 4621W        W21468   1.361   8.429  12.019  0.1887  0.0193  0.2793
 4622W        W21469  16.737   1.142  11.267 -0.1264 -0.0207 -0.1189
 4623W        W21470   7.285   1.131  13.567  0.1536 -0.1438  0.0428
 4624W        W21471  12.861  16.796  11.593 -0.0110  0.1284  0.0201
 4625W        W21472   1.941   4.869   0.370 -0.2542  0.0456  0.0029
 4626W        W21473  12.001   1.213   4.446  0.0100  0.0132  0.0919
 4627W        W21474  16.659   2.004  12.297  0.4297  0.1822  0.1485
 4628W        W21475  10.490  11.896  14.700 -0.1927 -0.0253  0.0698
 4629W        W21476   5.109   2.199  11.282  0.1022  0.0935 -0.2251
 4630W        W21477   1.157  17.189  14.847 -0.2484  0.0709  0.3912
 4631W        W21478  14.559   0.060  13.238 -0.1957  0.4124  0.1711
 4632W        W21479   8.589   3.445   3.993 -0.2308  0.0490 -0.2712
 4633W        W21480   8.240  16.274  14.817 -0.1618 -0.1632 -0.0327
 4634W        W21481  17.468  10.248   1.794 -0.1100 -0.1399  0.0903
 4635W        W21482   2.291  16.051   2.302 -0.1705 -0.1705  0.2218
 4636W        W21483  17.211  14.893   5.597 -0.0348 -0.1839 -0.1927
 4637W        W21484  12.262   4.127   5.443  0.0507  0.3333  0.3000
 4638W        W21485  13.675  16.559   4.635  0.1026 -0.0092 -0.0251
 4639W        W21486  11.460  15.590   3.817 -0.3098  0.0302  0.3404
 4640W        W21487   1.900   6.764  11.769 -0.0097 -0.0313  0.1659
 4641W        W21488   5.227   6.556  15.069  0.2110  0.0115 -0.2751
 4642W        W21489   6.508  14.641   3.233  0.1363 -0.0384 -0.0125
 4643W        W21490  11.997   6.956  13.888 -0.3534  0.1062 -0.0639
 4644W        W21491   2.818   6.744   4.743  0.0148 -0.1436 -0.0926
 4645W        W21492  15.425   6.297  14.983 -0.1163  0.1119  0.0993
 4646W        W21493   4.672   1.422   4.812  0.1613 -0.0649 -0.2959
 4647W        W21494  12.183  11.404  12.489  0.0995  0.2723  0.0296
 4648W        W21495   4.233  13.684  13.313 -0.1165  0.1739 -0.1851
 4649W        W21496  16.573   1.530   0.554  0.1230 -0.1125  0.0799
 4650W        W21497  13.768  17.878  13.820  0.0769 -0.4093  0.1077
 4651W        W21498  13.658  17.423   2.072  0.4123 -0.0950  0.2507
 4652W        W21499   9.663   5.044  15.415 -0.2605  0.0596  0.0180
 4653W        W21500   1.830  10.183  12.872 -0.2100 -0.1806  0.1834
 4654W        W21501  11.722   4.076  12.037  0.2452  0.0311  0.1641
 4655W        W21502   6.998   6.073   1.315  0.0673  0.2561  0.2170
 4656W        W21503   5.340   5.842   3.081  0.2795 -0.1573 -0.1554
 4657W        W21504  18.301  12.892  15.801 -0.3427  0.0430 -0.2855
 4658W        W21505  11.818  15.053   4.271 -0.1366  0.1038 -0.2869
 4659W        W21506   3.099   0.646  12.213 -0.1282  0.1286 -0.2180
 4660W        W21507  17.215   3.316  11.496 -0.0123  0.1012 -0.2103
 4661W        W21508   4.007   1.529   0.852 -0.1167  0.0546 -0.2379
 4662W        W21509   3.474   4.816  10.477 -0.3268 -0.2820 -0.1982
 4663W        W21510   3.137   8.211   0.838  0.0113 -0.1790 -0.0696
 4664W        W21511   5.413   3.955  13.686 -0.0690  0.1126  0.0221
 4665W        W21512  17.700   3.552   2.845 -0.0531  0.1534  0.0172
 4666W        W21513  11.062   0.829   3.828  0.3231  0.1016 -0.1085
 4667W        W21514   0.248  16.055  12.180  0.0567 -0.1956 -0.1540
 4668W        W21515  16.629  14.701   2.717 -0.1255  0.1132 -0.1485
 4669W        W21516  16.680   5.337   4.532  0.0322  0.0648 -0.0873
 4670W        W21517  16.953  14.977  12.276 -0.0193  0.0254 -0.5259
 4671W        W21518  12.473  13.367  15.741 -0.0134  0.0812  0.0023
 4672W        W21519  15.191  16.072  13.176 -0.1997  0.1787  0.0821
 4673W        W21520  10.764  18.378  14.159  0.0090 -0.0751  0.1851
 4674W        W21521   0.165  14.551  15.555  0.1202 -0.0981 -0.1177
 4675W        W21522   4.438  12.358   3.304  0.1379 -0.1117 -0.2113
 4676W        W21523  10.914   3.209   0.107 -0.0069 -0.1555 -0.0546
 4677W        W21524  17.909   0.760   0.890 -0.1117 -0.0803 -0.1746
 4678W        W21525   5.036  11.033   1.199 -0.3902  0.2146 -0.0939
 4679W        W21526   5.555   5.016  16.255  0.1559  0.2590  0.0915
 4680W        W21527  11.642  18.209  16.236 -0.3105  0.1023 -0.1994
 4681W        W21528  10.940  14.924  15.262  0.1896  0.1078  0.0696
 4682W        W21529  15.100  10.865  14.466  0.0155  0.0166  0.1222
 4683W        W21530   7.470  11.667   3.359  0.1879  0.1495 -0.2420
 4684W        W21531  16.048  10.324  12.092 -0.1423  0.1181 -0.5118
 4685W        W21532   1.174   4.460   0.933 -0.0137  0.3801  0.1058
 4686W        W21533  10.655  15.962  11.462 -0.0776  0.0045 -0.1856
 4687W        W21534   7.633   2.625   4.150  0.1571  0.3312  0.2644
 4688W        W21535  14.587  13.282  13.953 -0.1294 -0.0141 -0.0582
 4689W        W21536  10.076   3.284   3.659  0.0023  0.0410 -0.2680
 4690W        W21537   3.124  14.370  12.693 -0.0424 -0.1526 -0.0542
 4691W        W21538   1.511  10.426   1.111 -0.0239 -0.0838 -0.1675
 4692W        W21539   4.922  16.682  14.502 -0.1014 -0.0642  0.0840
 4693W        W21540  13.854   7.936   4.341 -0.1095  0.2588  0.1503
 4694W        W21541   6.181  17.698  13.919  0.1863  0.0571 -0.2676
 4695W        W21542  17.613   6.922  13.339  0.0138  0.3423 -0.0775
 4696W        W21543   7.750  15.352   4.302 -0.0795 -0.0182 -0.0711
 4697W        W21544   9.738  14.487   5.715  0.2685  0.0430 -0.1136
 4698W        W21545   5.392   8.807  15.982 -0.0066 -0.3163 -0.0326
 4699W        W21546  16.621  15.845   5.758 -0.0912  0.0380  0.0016
 4700W        W21547   0.046   1.734  12.639 -0.0736 -0.0665 -0.1546
 4701W        W21548   7.411   5.790   2.686  0.0580  0.2795 -0.0822
 4702W        W21549   7.282  18.127  16.330  0.0135 -0.1043 -0.0737
 4703W        W21550  14.578  13.440   3.776 -0.5370  0.1136 -0.0213
 4704W        W21551   9.194   7.564  15.664  0.3655  0.1844  0.0563
 4705W        W21552   6.176  17.120   2.545 -0.3149  0.0878 -0.1008
 4706W        W21553  12.485   1.052   2.015 -0.0378  0.1785  0.1305
 4707W        W21554  12.345  15.947  13.424  0.0035 -0.1912 -0.0819
 4708W        W21555   1.922   6.499  16.372 -0.0040  0.1315  0.0917
 4709W        W21556  10.743   5.237  11.582 -0.3456 -0.2305 -0.0509
 4710W        W21557  15.403   0.095   2.808 -0.0227 -0.2280 -0.2586
 4711W        W21558  17.725   7.281  12.149  0.0948 -0.0046  0.2217
 4712W        W21559  13.082  16.408   4.566 -0.1810  0.1458 -0.2152
 4713W        W21560   7.135   2.889  14.138  0.2237 -0.0347  0.0765
 4714W        W21561  10.457   0.560   5.858 -0.0297  0.0403 -0.1647
 4715W        W21562   7.034   8.576  13.889 -0.0192  0.0047 -0.0286
 4716W        W21563  16.966   4.171   2.368 -0.1344  0.0084  0.1387
 4717W        W21564  10.636   5.627  13.652  0.5448 -0.0146 -0.0998
 4718W        W21565   4.607  11.380   6.269  0.1418 -0.3370  0.1277
 4719W        W21566   3.053   4.348  15.201  0.1346 -0.4174  0.0585
 4720W        W21567   0.172  15.341  11.474 -0.0460  0.0956 -0.1152
 4721W        W21568  14.534   4.744   2.742 -0.0692  0.0325 -0.1364
 4722W        W21569  11.766  12.620   1.852 -0.2924 -0.0653  0.0412
 4723W        W21570  12.902   0.577   2.905  0.0749 -0.1135 -0.0617
 4724W        W21571  15.915   2.500   3.145 -0.1366 -0.0519 -0.1279
 4725W        W21572   2.167  12.189  15.674  0.1848 -0.0563  0.2291
 4726W        W21573  17.341   1.856   1.225 -0.2224 -0.0011 -0.0744
 4727W        W21574   2.711  11.897   5.148  0.0944  0.0258 -0.1541
 4728W        W21575  12.758  18.211  16.197 -0.0567  0.1458 -0.1341
 4729W        W21576   7.270  12.031  11.762  0.1288 -0.2195  0.2690
 4730W        W21577   7.903   4.814  13.355  0.2605  0.4403  0.0633
 4731W        W21578  16.864   7.775   1.733  0.2946  0.1347 -0.1265
 4732W        W21579  11.649   0.640  12.737  0.0892  0.0353 -0.1441
 4733W        W21580   3.450  16.819   4.163  0.2384 -0.3363 -0.0807
 4734W        W21581   4.145  12.522   3.998 -0.2269 -0.2807  0.0346
 4735W        W21582   4.633   6.593   1.822 -0.0754  0.3271 -0.1616
 4736W        W21583  17.307   5.216   2.451  0.0167 -0.1062 -0.1087
 4737W        W21584   3.694   5.675   1.618 -0.3116  0.0253 -0.0161
 4738W        W21585   3.098   3.311   2.840 -0.0027  0.0740  0.0241
 4739W        W21586  17.588  17.210  14.987 -0.2997 -0.0969  0.3722
 4740W        W21587   1.796   0.872   2.665 -0.2747  0.1402 -0.3402
 4741W        W21588  14.020  17.963  12.496  0.1691  0.0159 -0.1117
 4742W        W21589  15.158  10.179   2.803  0.0628 -0.0140  0.1590
 4743W        W21590  10.049  14.218  16.193 -0.0044 -0.0565  0.0665
 4744W        W21591   5.619   5.820  15.313 -0.0257 -0.5310 -0.0775
 4745W        W21592  16.288   0.357  13.988 -0.0862 -0.2349  0.1487
 4746W        W21593  18.176  10.953  15.418  0.0568  0.2724 -0.0066
 4747W        W21594   1.308   8.250   9.970 -0.4431  0.1145 -0.1284
 4748W        W21595   6.167  15.813   1.331 -0.2003  0.3846 -0.0482
 4749W        W21596   0.815   1.004   1.285 -0.1894  0.3006 -0.3083
 4750W        W21597  11.944   8.853  15.571  0.2555  0.0852  0.0333
 4751W        W21598  14.071   5.166   2.231 -0.2528 -0.5741  0.1441
 4752W        W21599   8.423   4.211   3.294  0.1622  0.0547  0.2937
 4753W        W21600  14.793   6.772  15.601 -0.2087  0.1625 -0.1394
 4754W        W21601  14.919  13.724  15.875 -0.0016 -0.1939 -0.2251
 4755W        W21602   0.155  12.857  12.598 -0.2753 -0.2533 -0.0403
 4756W        W21603   5.473  18.336   5.188  0.0964  0.0312  0.1247
 4757W        W21604   8.638   0.837   1.574 -0.0145  0.1391  0.0285
 4758W        W21605  13.848   5.252   0.612  0.1006 -0.0891 -0.0709
 4759W        W21606   9.654  14.536   2.524 -0.2254  0.0629  0.2483
 4760W        W21607  15.823  16.218   1.003 -0.0498  0.0833  0.0382
 4761W        W21608  11.401   0.911   4.151  0.0856  0.0403  0.1648
 4762W        W21609   1.539   9.641  14.802  0.0912  0.4171 -0.1299
 4763W        W21610   2.111   4.439  14.181  0.1137  0.3831 -0.0692
 4764W        W21611  17.626   7.136  15.585  0.2040  0.1382  0.4309
 4765W        W21612   5.057  10.305  14.289  0.0782  0.3346 -0.3102
 4766W        W21613  17.492   6.413  16.234 -0.3342 -0.1322 -0.0308
 4767W        W21614   8.233  17.997  12.964  0.3397 -0.0169  0.0993
 4768W        W21615  14.287  16.199  16.298  0.5011  0.1751  0.3560
 4769W        W21616   9.434  14.437  14.179  0.0830  0.0969  0.1649
 4770W        W21617  11.407   1.180   0.625  0.1182 -0.2251 -0.1524
 4771W        W21618  16.569   7.908  13.001  0.0348 -0.1233  0.4077
 4772W        W21619   6.849   4.699   1.786 -0.0766 -0.1250  0.2500
 4773W        W21620   0.113  17.063   4.072 -0.0447 -0.0730 -0.1205
 4774W        W21621  10.894   7.084   4.596 -0.3690 -0.0161  0.1866
 4775W        W21622   3.846   4.263  12.410  0.2284  0.2334 -0.1114
 4776W        W21623   0.677  16.598   3.338 -0.0405  0.1358  0.3137
 4777W        W21624  16.085   8.456  13.960  0.0429 -0.0645  0.1767
 4778W        W21625   3.580   3.076   5.502  0.2049 -0.0411 -0.2237
 4779W        W21626   0.293  16.512   2.903  0.1080  0.0528  0.0666
 4780W        W21627  14.993  13.573   6.092 -0.0215 -0.2410  0.3039
 4781W        W21628   3.558  11.677  11.938 -0.1637 -0.2303  0.0403
 4782W        W21629  13.407  14.885  12.407  0.0949 -0.1497 -0.1393
 4783W        W21630   2.038   6.949   4.395  0.1925  0.1987 -0.1648
 4784W        W21631  11.121   7.156   5.056 -0.1962 -0.2549  0.0352
 4785W        W21632   6.053  13.973   1.281  0.1525  0.0062  0.3211
 4786W        W21633   0.055  10.506   0.562  0.3606 -0.3585 -0.2926
 4787W        W21634   7.249  14.316   3.681  0.0789  0.1325 -0.2558
 4788W        W21635  16.279   9.902  15.921 -0.0810  0.1542  0.2109
 4789W        W21636   9.756   0.691  15.469 -0.2502 -0.1577 -0.0495
 4790W        W21637   6.137  11.645  14.158  0.0030 -0.0343 -0.0564
 4791W        W21638  12.520  17.764  15.340  0.0564  0.0254  0.0851
 4792W        W21639   8.394   3.719   2.232  0.0276  0.3729 -0.0331
 4793W        W21640   5.481   3.049  13.765 -0.1620  0.0860  0.3460
 4794W        W21641   2.080   4.369   1.021  0.1164 -0.1177 -0.1512
 4795W        W21642  15.127  15.299  14.499 -0.1318  0.0463 -0.0815
 4796W        W21643   0.446  17.724  14.424 -0.0436 -0.2796 -0.1973
 4797W        W21644  17.780  17.670  15.174  0.0294  0.0897 -0.0737
 4798W        W21645  14.614   0.433   6.042 -0.1486 -0.0711  0.2241
 4799W        W21646   8.051  13.339   1.098  0.1570  0.0792  0.2816
 4800W        W21647   8.920  17.754   3.016 -0.2927 -0.0937 -0.2889
 4801W        W21648   9.824  10.057  15.366 -0.1717 -0.0667 -0.0469
 4802W        W21649  11.472   6.843  13.877  0.3545 -0.0411 -0.5188
 4803W        W21650  11.793   4.505  16.331  0.1155 -0.4723 -0.1810
 4804W        W21651   6.356  18.291  11.451  0.0947 -0.0422  0.1044
 4805W        W21652   9.809   4.987  14.192  0.2341 -0.7198  0.1139
 4806W        W21653   8.561  14.966   5.238 -0.2149 -0.0504 -0.1826
 4807W        W21654  17.331   9.508   2.920  0.1800 -0.1907  0.2224
 4808W        W21655  11.542   1.472   3.835  0.1936  0.5173  0.2902
 4809W        W21656   2.027   9.783  12.577  0.0183 -0.1317  0.0614
 4810W        W21657   1.428  17.733   4.069 -0.3533 -0.0983  0.0187
 4811W        W21658   4.885   2.102  15.652 -0.1859 -0.0612  0.0415
 4812W        W21659   0.859  13.298   3.339  0.2217  0.3447  0.5096
 4813W        W21660   9.343   7.556  14.033  0.2009  0.2126 -0.1966
 4814W        W21661  17.678   5.383  13.862  0.1541  0.0457  0.2771
 4815W        W21662   8.600  14.420   1.047 -0.2193  0.0276 -0.1835
 4816W        W21663   9.241   9.613  16.012 -0.0957  0.1417  0.1221
 4817W        W21664   6.133  10.466   1.685  0.0401  0.2301  0.2912
 4818W        W21665  10.607   4.215   4.438  0.0135 -0.1893 -0.1624
 4819W        W21666   6.838   0.850  14.826  0.0621  0.0761  0.1262
 4820W        W21667   2.748   1.934  11.935 -0.1792  0.2856 -0.1750
 4821W        W21668   5.136   7.328  14.247  0.0779  0.0943 -0.4369
 4822W        W21669  13.027   8.160   1.168 -0.1866 -0.1607 -0.1046
 4823W        W21670  13.336   1.457   2.011 -0.0433  0.0664 -0.2389
 4824W        W21671   6.073   6.638  11.202 -0.0732 -0.2615  0.1850
 4825W        W21672   4.014   8.699   4.328  0.3255 -0.0661  0.0974
 4826W        W21673   0.604  10.351  14.705 -0.3484  0.0402  0.1222
 4827W        W21674   6.017   6.411   1.793 -0.1848 -0.2153 -0.0640
 4828W        W21675   6.693  12.505  12.184 -0.2624 -0.2039  0.1814
 4829W        W21676   1.198   1.118  14.410 -0.1374  0.0166 -0.2320
 4830W        W21677  11.856  17.794  12.816  0.0001  0.0824 -0.2271
 4831W        W21678   0.087   1.248   3.293  0.0943  0.2479 -0.1582
 4832W        W21679   5.211  11.268  10.575 -0.2477  0.0633  0.0649
 4833W        W21680  13.857  14.026   0.222  0.1289  0.1207 -0.5462
 4834W        W21681   5.071  14.939  11.519  0.1619  0.0950  0.2070
 4835W        W21682  13.993  10.797  14.911 -0.3285 -0.7253 -0.2472
 4836W        W21683  13.195  12.268  12.518 -0.1524 -0.2921  0.0133
 4837W        W21684  11.373   9.156   2.917 -0.2006 -0.4417  0.1154
 4838W        W21685  15.897  15.696  13.988 -0.2450 -0.1470 -0.1474
 4839W        W21686  11.610  15.338   2.430 -0.0074 -0.0329 -0.3125
 4840W        W21687   0.327  14.438   0.156  0.0720 -0.3660  0.2293
 4841W        W21688  17.100  12.614  11.688 -0.1024  0.3158  0.5047
 4842W        W21689   2.061  10.625   0.886 -0.1929 -0.0164 -0.0020
 4843W        W21690  10.995  15.686  11.744  0.0578  0.0548  0.4132
 4844W        W21691   7.145  17.883   1.885  0.1318  0.0289  0.1707
 4845W        W21692   2.965   9.181   0.883 -0.1883 -0.1966  0.0830
 4846W        W21693   8.030   5.594   3.847 -0.1860  0.1593 -0.1080
 4847W        W21694   8.809  11.087  12.119 -0.2279  0.0953  0.1490
 4848W        W21695   8.820  15.351  11.530  0.0150 -0.1430  0.0523
 4849W        W21696   3.711   0.269   2.615 -0.1467  0.4224  0.1539
 4850W        W21697  16.743   9.553  11.254 -0.0845  0.1929 -0.0083
 4851W        W21698  17.068   4.665  13.965 -0.2385  0.2484  0.0271
 4852W        W21699  13.916  14.240   4.664  0.0072  0.0319  0.2280
 4853W        W21700   4.914   7.306   4.751  0.1679 -0.3288 -0.1963
 4854W        W21701   4.697  13.491  16.012  0.0685 -0.3723  0.0023
 4855W        W21702   2.007   3.703   5.881  0.0798  0.2746 -0.2542
 4856W        W21703   2.915   5.482   1.237  0.1214  0.0850  0.0461
 4857W        W21704  11.603   0.916   4.614 -0.1456  0.1851  0.1768
 4858W        W21705  16.875   3.809  13.744 -0.4348 -0.1050 -0.3449
 4859W        W21706  18.060   1.947  12.886  0.3537  0.0096  0.1744
 4860W        W21707  12.717  18.004   1.982 -0.0737  0.0828 -0.0572
 4861W        W21708   9.237   4.222   4.831 -0.2922 -0.1091  0.1386
 4862W        W21709   7.949   0.822   5.564  0.2374 -0.2891  0.0969
 4863W        W21710   2.609   0.019  11.656 -0.1529 -0.3850 -0.3715
 4864W        W21711  12.283   5.474  11.660  0.0033 -0.3714 -0.2111
 4865W        W21712  12.695   1.659  15.963  0.1483  0.0360  0.0194
 4866W        W21713   2.933  15.510   5.556 -0.1136 -0.1445 -0.1316
 4867W        W21714  12.112  15.444   0.549  0.1936 -0.0631 -0.0223
 4868W        W21715   8.930  11.074  14.828 -0.0052  0.4228  0.1395
 4869W        W21716  10.541   6.491  14.074 -0.2012 -0.1295 -0.0140
 4870W        W21717   4.689  14.546   0.415 -0.2291  0.0344 -0.1209
 4871W        W21718  14.895   1.022  13.882 -0.0413  0.0674  0.1000
 4872W        W21719  11.012   4.745  12.843 -0.2812  0.0548  0.1102
 4873W        W21720   6.745  10.698   6.576  0.1929 -0.2044 -0.0014
 4874W        W21721   9.875  13.870   3.103  0.0840 -0.2033  0.0657
 4875W        W21722  17.478  13.917  15.150 -0.1514 -0.1903  0.0840
 4876W        W21723   6.875   1.743  14.412  0.1639  0.1127 -0.1789
 4877W        W21724  15.626  10.929   3.291 -0.0619 -0.0739  0.1101
 4878W        W21725   3.412  13.900   1.623 -0.2582  0.3026  0.3309
 4879W        W21726  17.396   5.665  13.039  0.1116 -0.1683  0.1325
 4880W        W21727   1.495  15.458   4.449  0.1283 -0.0997  0.5258
 4881W        W21728  15.137   9.980   3.271 -0.0967 -0.2980  0.2738
 4882W        W21729  10.997  11.323  13.855  0.0321  0.3154  0.0838
 4883W        W21730   4.029   2.673  13.120  0.0254  0.1366  0.1038
 4884W        W21731  13.447   1.420   3.067 -0.1130  0.1704 -0.0795
 4885W        W21732  10.506  14.649   2.935 -0.1992  0.0252  0.1529
 4886W        W21733  13.176   1.015   1.717  0.2235  0.1878 -0.0833
 4887W        W21734  15.130   9.789   2.415  0.3048 -0.1611 -0.1853
 4888W        W21735   0.687  12.972   3.790 -0.0452 -0.2385 -0.3494
 4889W        W21736   5.277   4.816   5.202  0.1571  0.1210  0.1008
 4890W        W21737  16.496  14.405  15.852 -0.3970  0.3194 -0.0871
 4891W        W21738  16.228   1.487  13.145 -0.1383  0.1239 -0.1208
 4892W        W21739  12.804   8.815   1.884  0.0933 -0.0934 -0.0214
 4893W        W21740   9.556   5.028  11.966 -0.0506  0.0128 -0.1370
 4894W        W21741   5.967  11.221  12.452 -0.3096 -0.1265 -0.0476
 4895W        W21742  12.646  17.267   0.022  0.3335  0.0753  0.1167
 4896W        W21743   8.277  14.899   4.832 -0.1038  0.1563 -0.0730
 4897W        W21744  15.653   3.368   4.322 -0.2566  0.2478 -0.2320
 4898W        W21745   2.126  18.408   3.586  0.1256  0.0396  0.2577
 4899W        W21746   4.760  10.624  15.488 -0.1549  0.1822 -0.1036
 4900W        W21747  14.592  18.094   0.832  0.2305  0.1034 -0.0445
 4901W        W21748   9.670   5.447   0.554  0.0822 -0.1074 -0.1148
 4902W        W21749  16.399   8.465  11.520  0.1033  0.3388 -0.2667
 4903W        W21750  17.281  16.397  12.280 -0.5217 -0.2529  0.0440
 4904W        W21751   2.741   8.143  15.348 -0.0822 -0.2909  0.1371
 4905W        W21752  16.134  16.175  12.802  0.2764  0.3582 -0.0796
 4906W        W21753  12.399  16.199   4.662 -0.0754 -0.4554  0.5100
 4907W        W21754   8.177   6.693   1.177 -0.1921 -0.2962 -0.0412
 4908W        W21755   4.774  17.726  15.658 -0.1849  0.0306 -0.3233
 4909W        W21756   8.986   3.700  11.705  0.1309  0.3095  0.1755
 4910W        W21757  16.906   5.728  14.097 -0.1947  0.2063 -0.1596
 4911W        W21758  11.100  18.256   0.512  0.1203  0.1047 -0.0771
 4912W        W21759   8.751  18.254  16.199 -0.2455 -0.0981 -0.2104
 4913W        W21760   7.499   2.090   4.909  0.0898  0.2642 -0.1278
 4914W        W21761  18.248  16.585   1.979  0.1432 -0.0485 -0.0168
 4915W        W21762   2.502   0.016   1.412  0.0658 -0.0042 -0.1083
 4916W        W21763   8.841   9.221  12.531  0.0587 -0.0370  0.2152
 4917W        W21764  14.662  13.974  13.095  0.2886 -0.0849  0.0963
 4918W        W21765   9.205  17.767  11.633  0.0754 -0.0793 -0.0176
 4919W        W21766   0.270   7.634  13.461  0.1126 -0.2411 -0.0025
 4920W        W21767   0.127   4.099  16.280 -0.0530 -0.2319  0.0531
 4921W        W21768  11.424   3.717  15.091  0.1166  0.2017  0.0134
 4922W        W21769   6.455  11.978  14.352  0.2217 -0.0959  0.0852
 4923W        W21770   1.686   1.107   5.132 -0.2295  0.0067  0.1764
 4924W        W21771   6.555  10.137  12.901 -0.0962 -0.0485 -0.2790
 4925W        W21772   2.165   9.675  14.375 -0.0392 -0.3800 -0.2048
 4926W        W21773   0.605  11.229  12.361  0.0855  0.1938  0.2160
 4927W        W21774   2.228   1.920  15.988 -0.0534 -0.0826  0.2779
 4928W        W21775  10.853  10.566   2.831  0.0700  0.3291  0.0263
 4929W        W21776   5.300  13.355   1.073  0.1070  0.0085  0.0480
 4930W        W21777  12.293  12.679  14.374  0.0890 -0.0063 -0.2789
 4931W        W21778  11.599   7.708   0.939  0.0510 -0.2314  0.2086
 4932W        W21779   8.284   1.274  13.120 -0.2649 -0.0623  0.0469
 4933W        W21780  15.361  16.810  15.715 -0.3474 -0.0346 -0.1312
 4934W        W21781   2.424   3.806  12.583  0.0872 -0.0669 -0.3065
 4935W        W21782   5.065  11.420   4.131  0.1308  0.2398 -0.2727
 4936W        W21783   7.441  10.167  13.580 -0.1904  0.0716 -0.0367
 4937W        W21784   8.531  17.100   4.069 -0.0895  0.0561  0.0938
 4938W        W21785   5.934   0.304   3.847  0.4190 -0.1396  0.1577
 4939W        W21786  12.762   8.745  14.815 -0.1381  0.3054  0.2175
 4940W        W21787   6.039   3.540  11.270 -0.0963  0.3137  0.1044
 4941W        W21788  13.384   1.481   1.486 -0.2277 -0.0180 -0.3631
 4942W        W21789   7.096   3.054   0.433 -0.0485  0.0039  0.2630
 4943W        W21790   0.181   0.755   5.103 -0.0255  0.0088 -0.1476
 4944W        W21791  14.929   3.324   4.055 -0.2350  0.2288  0.0886
 4945W        W21792   1.012   8.966  14.356  0.1646 -0.0474 -0.1657
 4946W        W21793  10.081   3.001   3.146 -0.3476 -0.0080  0.0783
 4947W        W21794  14.585   8.607   3.394  0.1339 -0.1572 -0.4703
 4948W        W21795   9.944  10.797  14.185  0.2865 -0.0517  0.0742
 4949W        W21796   4.963  13.664   1.381  0.0684  0.2610  0.3120
 4950W        W21797  14.791  16.250  15.532 -0.0608  0.3729  0.0805
 4951W        W21798  12.224   1.134   2.622 -0.0013 -0.0369 -0.0220
 4952W        W21799   0.846   9.005   3.494 -0.1242  0.0558  0.0732
 4953W        W21800   9.403  11.219  12.018  0.0522  0.0289 -0.1056
 4954W        W21801  16.346   8.670   5.923  0.2062 -0.3659 -0.0429
 4955W        W21802   1.215  15.817  15.308 -0.3707  0.1845 -0.1976
 4956W        W21803   2.999   3.401   1.023  0.2204 -0.1464 -0.0490
 4957W        W21804   6.737   0.041   5.521  0.1891 -0.0171  0.1581
 4958W        W21805  17.505  10.807   3.130 -0.0334 -0.1081  0.2320
 4959W        W21806  12.110   2.198   1.035 -0.1555 -0.0160  0.2120
 4960W        W21807   7.994   5.741  16.322 -0.1748 -0.1024 -0.1194
 4961W        W21808  17.550  13.062  13.760  0.1240  0.0545 -0.0981
 4962W        W21809   9.601   7.922  15.773  0.0486  0.0183 -0.4041
 4963W        W21810   2.027   2.446   4.377  0.1055  0.0101  0.0395
 4964W        W21811   7.246   1.256  12.309  0.2460  0.3578  0.0122
 4965W        W21812   7.359   8.486  11.618 -0.1387  0.2869 -0.1015
 4966W        W21813   7.534  10.202  11.780  0.1371  0.2190  0.0776
 4967W        W21814  16.156   4.179   2.273  0.0157  0.1013  0.4244
 4968W        W21815   2.260   3.920  14.023  0.2603  0.1452  0.3342
 4969W        W21816  18.281   9.766   0.159 -0.2696 -0.0798 -0.0876
 4970W        W21817  16.725  12.262  13.061  0.1150  0.0850  0.0653
 4971W        W21818   1.315   0.336   4.268 -0.1542 -0.2106 -0.3449
 4972W        W21819  13.609   0.483   4.146 -0.0527 -0.2483  0.0595
 4973W        W21820  15.779   1.230   2.387  0.1041 -0.0398 -0.1681
 4974W        W21821   5.393  17.917  14.425  0.3255 -0.0380  0.1285
 4975W        W21822   1.833   9.233   2.490  0.0520  0.0893 -0.0722
 4976W        W21823  17.559  15.764  14.964 -0.2798 -0.0209 -0.0054
 4977W        W21824  17.843   2.620   3.359  0.1209 -0.0098  0.0607
 4978W        W21825   0.992   9.974   4.960  0.0956  0.0720  0.0210
 4979W        W21826   2.480   2.383  14.324 -0.1389 -0.1161  0.0623
 4980W        W21827  13.515   9.475  15.761  0.0075  0.0444  0.0827
 4981W        W21828   8.387  17.394  12.071 -0.0128  0.5610 -0.0750
 4982W        W21829  14.553   6.202  12.100  0.1842 -0.0239  0.0766
 4983W        W21830   7.549  11.768   4.895 -0.1374 -0.0350 -0.1553
 4984W        W21831   0.374  11.044  14.747  0.2215  0.0358 -0.1659
 4985W        W21832   4.325   8.916  11.733 -0.1668 -0.3296  0.1332
 4986W        W21833   5.957  12.085   4.152 -0.1088  0.4983  0.1420
 4987W        W21834   1.321  15.603   0.096 -0.0251  0.1918 -0.0399
 4988W        W21835   9.963  13.696   2.066  0.2700  0.4612  0.0474
 4989W        W21836   3.522  15.098  12.603 -0.1738 -0.1394  0.2058
 4990W        W21837   0.454   6.234   3.065 -0.2864 -0.0127  0.1805
 4991W        W21838  11.296  12.368   6.112  0.0505  0.0319  0.0901
 4992W        W21839  18.246  13.909   5.361 -0.0577  0.0003 -0.1462
 4993W        W21840  14.555  17.403   4.189  0.1332  0.3024 -0.1030
 4994W        W21841  16.077   2.604  14.538  0.2277  0.1331 -0.0402
 4995W        W21842   7.809   3.802  14.738  0.4644  0.0102 -0.0973
 4996W        W21843   0.235   8.337   3.550  0.0361 -0.1695  0.1531
 4997W        W21844  17.204  16.321  11.783 -0.1450  0.1250 -0.1271
 4998W        W21845  16.476  17.132   4.143 -0.4047 -0.2281  0.1390
 4999W        W21846  13.460   7.445   1.542  0.0407  0.2085  0.1839
 5000W        W21847   5.603  14.639  12.640  0.0714  0.0814  0.2554
 5001W        W21848   9.086   1.616  12.224  0.1883  0.1465 -0.1335
 5002W        W21849   9.440  11.041  14.876  0.1774  0.0506 -0.1504
 5003W        W21850   1.548  16.909   2.707  0.0979 -0.1891  0.1837
 5004W        W21851  14.914   1.546  12.884  0.0796 -0.1729  0.0781
 5005W        W21852   3.794   0.807   3.116 -0.2001 -0.1479 -0.1356
 5006W        W21853   4.051  16.067  13.735 -0.2186  0.1765 -0.4089
 5007W        W21854   3.418  10.578   3.182 -0.2189 -0.1239 -0.1254
 5008W        W21855  13.178   1.776   3.373  0.0259  0.1035  0.0609
 5009W        W21856   2.318  15.662  14.984  0.2327 -0.0566  0.0084
 5010W        W21857   2.048  16.894  13.293  0.0165 -0.0344 -0.3972
 5011W        W21858   2.711  14.045  15.537 -0.2420  0.2163 -0.0430
 5012W        W21859   2.061  11.673   2.327 -0.3572 -0.1308 -0.0050
 5013W        W21860  13.780  17.409   1.361 -0.0271  0.2907  0.0043
 5014W        W21861   3.322   9.072   2.367  0.0754 -0.3332 -0.1245
 5015W        W21862  18.402   1.699  12.099 -0.2155 -0.0267  0.1791
 5016W        W21863   0.412   6.179  11.985  0.1433  0.1700  0.1092
 5017W        W21864  14.390   0.260   4.475 -0.0262  0.1294 -0.1478
 5018W        W21865  13.136  12.169   1.444  0.1511  0.0227 -0.0930
 5019W        W21866  14.214   7.495  11.147 -0.3787  0.1180 -0.0821
 5020W        W21867  18.401   3.782   4.532 -0.1468 -0.1008  0.3473
 5021W        W21868  14.372   7.018  13.145  0.2184 -0.0814  0.4430
 5022W        W21869   4.764   1.212   3.267  0.2591  0.1438 -0.2229
 5023W        W21870   4.460   4.371  14.726  0.1165  0.1230  0.0766
 5024W        W21871   3.477   8.517   2.874 -0.0136 -0.1153 -0.0081
 5025W        W21872   6.256  12.556   3.268 -0.3583 -0.3433 -0.0259
 5026W        W21873  16.658   4.641  11.561 -0.4161 -0.0658  0.3428
 5027W        W21874  14.176  16.014   5.595 -0.3224 -0.3960 -0.1852
 5028W        W21875   2.891  15.537   0.160  0.2604 -0.0703 -0.1116
 5029W        W21876  11.952  10.318   3.129  0.2160 -0.3228  0.0624
 5030W        W21877   5.826   3.265   1.549 -0.0561 -0.1374  0.1001
 5031W        W21878   1.779   1.848   2.524  0.1441  0.1948 -0.1568
 5032W        W21879   7.694   2.255  11.474 -0.1913  0.0439 -0.0873
 5033W        W21880  13.822   3.992   0.456 -0.1682 -0.1823 -0.1313
 5034W        W21881  17.579  16.063  12.119  0.1601 -0.0640  0.1611
 5035W        W21882   0.739   5.461   0.722  0.0194 -0.1964  0.1521
 5036W        W21883   2.271  13.771  13.732  0.0129  0.1737 -0.0911
 5037W        W21884  12.174   7.920  13.107 -0.0846  0.3723  0.0454
 5038W        W21885  14.667   4.595  11.076 -0.0620  0.2060 -0.2550
 5039W        W21886   8.430  17.830   5.469 -0.0267  0.0506  0.0514
 5040W        W21887   0.006   0.901  13.214  0.1481  0.1483  0.0258
 5041W        W21888   2.585   3.582  15.753  0.2622 -0.2967  0.1812
 5042W        W21889   4.981   5.617  12.442 -0.1894  0.2708 -0.1085
 5043W        W21890  13.999  13.129   1.087  0.0567 -0.0739 -0.3231
 5044W        W21891  12.632  16.184  12.510 -0.2689  0.1646  0.1059
 5045W        W21892  18.293   5.784  11.806  0.1228  0.1140 -0.2438
 5046W        W21893   7.800   7.684  15.203 -0.0491  0.2320  0.2053
 5047W        W21894  16.196   9.454  16.326 -0.0387 -0.2301 -0.1659
 5048W        W21895  16.426   2.523   3.447 -0.1723  0.1369  0.2276
 5049W        W21896  10.372   6.342   2.103  0.1283  0.0250 -0.2443
 5050W        W21897   4.446   7.253  11.234 -0.0089  0.0001 -0.1197
 5051W        W21898   7.303  10.068   4.479  0.2946 -0.0571  0.3387
 5052W        W21899   4.820   3.783  15.424  0.0583  0.1190 -0.2121
 5053W        W21900  13.627  16.038  13.215  0.0380 -0.2035  0.1947
 5054W        W21901  17.296   5.578  12.256 -0.0845 -0.2439  0.0841
 5055W        W21902  15.599  12.059  15.972 -0.2213 -0.3439 -0.1779
 5056W        W21903   8.803  14.022   0.731  0.0561  0.0201 -0.2528
 5057W        W21904  14.591  10.541   2.154  0.0692 -0.2393  0.2811
 5058W        W21905   2.136  13.642   0.662 -0.1412 -0.4671  0.1097
 5059W        W21906   0.882  16.536  15.662  0.0444 -0.0326 -0.1775
 5060W        W21907   5.183  17.115  14.378  0.0619  0.0508 -0.2996
 5061W        W21908  17.039   3.330   4.455  0.1017  0.0101 -0.1998
 5062W        W21909   0.579   7.531   5.596 -0.4519  0.2874  0.2589
 5063W        W21910  12.046  11.266   5.341 -0.0019 -0.2292 -0.0073
 5064W        W21911   7.845  18.054   3.638  0.0894  0.0577 -0.1281
 5065W        W21912  10.477  12.051   4.156  0.0777 -0.0189 -0.0884
 5066W        W21913  12.860   9.437  16.346 -0.4489  0.1634  0.0228
 5067W        W21914  10.823  11.590  12.637  0.3016  0.3040  0.2422
 5068W        W21915  17.026  17.027  15.651  0.3934 -0.2476 -0.1318
 5069W        W21916   6.848  13.033   5.958  0.0262 -0.2478  0.1792
 5070W        W21917   0.710   9.395  15.658 -0.0730 -0.4547  0.0017
 5071W        W21918   2.500   4.336  12.519 -0.3998 -0.0726  0.3002
 5072W        W21919   2.690  15.188  13.250 -0.3539  0.1440  0.1113
 5073W        W21920  12.116  13.124  13.461 -0.0599  0.2977 -0.0837
 5074W        W21921   0.841   0.505  13.563  0.2538 -0.0256  0.0558
 5075W        W21922  14.340   5.412   0.675  0.2987 -0.1130 -0.0988
 5076W        W21923  13.378   8.231   5.166  0.0680 -0.0857 -0.1208
 5077W        W21924  14.255   1.285  12.860 -0.2469 -0.2027  0.1335
 5078W        W21925   5.022  10.930  15.184  0.0735  0.0623 -0.3262
 5079W        W21926   0.714   5.755  11.188  0.0638  0.2748  0.1547
 5080W        W21927   6.190   3.753  12.035 -0.0076 -0.2027  0.2794
 5081W        W21928  10.061   8.988  15.630 -0.0573  0.0368  0.0585
 5082W        W21929  11.308   4.869   1.767  0.2957  0.1034 -0.0684
 5083W        W21930   4.783   6.069   0.132 -0.1996  0.1588 -0.1961
 5084W        W21931   3.201  11.526  16.219  0.0522  0.0703 -0.2296
 5085W        W21932   5.002   5.695  11.871  0.0632  0.3453  0.1067
 5086W        W21933  17.749   5.528   0.061  0.1816  0.1536 -0.1327
 5087W        W21934   6.613  16.740   2.393  0.0932  0.0175  0.3709
 5088W        W21935   5.703   1.041   4.307  0.3023 -0.0691 -0.0809
 5089W        W21936   5.478  12.866  15.083 -0.2967 -0.0163 -0.0013
 5090W        W21937  10.609   4.278  14.728  0.1845  0.1472  0.2422
 5091W        W21938   0.875   9.260  13.607  0.1834  0.0779  0.1820
 5092W        W21939   7.374  11.935   5.358  0.0060  0.1400 -0.0224
 5093W        W21940  17.749  15.706  12.442 -0.1423  0.2068  0.0274
 5094W        W21941   6.898  16.924  15.533 -0.1916  0.2235  0.0120
 5095W        W21942   9.428   2.926  13.454 -0.1067  0.1075 -0.2979
 5096W        W21943   9.895  11.945  15.087  0.1711 -0.0684  0.0182
 5097W        W21944   2.175  11.909   1.877 -0.0603 -0.0515 -0.1220
 5098W        W21945  10.212  10.016  13.091 -0.0911  0.1284 -0.1040
 5099W        W21946  17.054   6.657   2.495  0.0964  0.0574  0.0302
 5100W        W21947   0.519   9.605  12.770  0.0534 -0.1566  0.0301
 5101W        W21948  17.280  16.815  11.565 -0.1045  0.1591 -0.0914
 5102W        W21949   3.832  16.836  11.476 -0.1308 -0.2226 -0.1137
 5103W        W21950  11.265  10.275  13.777 -0.0923 -0.4622 -0.0487
 5104W        W21951  18.234  10.288  13.246  0.2983  0.0185  0.1608
 5105W        W21952   0.522   5.392  10.886  0.2837  0.1467 -0.0385
 5106W        W21953   7.519  13.677  11.935  0.0193 -0.1730 -0.0344
 5107W        W21954  12.372  10.738  12.509  0.1282 -0.0468  0.2752
 5108W        W21955   9.903   0.019   4.948 -0.5528  0.2111  0.0310
 5109W        W21956   5.248  12.031   0.329 -0.1392  0.2464  0.1737
 5110W        W21957   1.894   7.764   1.016 -0.0587 -0.2862  0.0311
 5111W        W21958  12.356   3.522   3.053 -0.1160  0.2323  0.1235
 5112W        W21959  16.315  18.205  12.432  0.2934 -0.1443 -0.0608
 5113W        W21960   1.804   2.300  15.078  0.3678  0.1307 -0.1120
 5114W        W21961  17.144  14.334  11.570 -0.0370 -0.0646  0.1878
 5115W        W21962  13.711  14.805   1.110 -0.2060 -0.0760 -0.0891
 5116W        W21963  14.719   7.165   1.224 -0.1025  0.3246 -0.0695
 5117W        W21964  13.015   1.121   0.560  0.2620  0.1103 -0.2323
 5118W        W21965   1.333   1.353  13.462 -0.0611 -0.0190  0.2478
 5119W        W21966   3.437  11.390   1.837  0.2073  0.2345 -0.2708
 5120W        W21967   8.317  10.218   6.134 -0.1247  0.3939 -0.0765
 5121W        W21968   0.631  16.696   2.593 -0.0105 -0.2340  0.2034
 5122W        W21969  10.992  12.809   2.355 -0.1512  0.3051  0.1546
 5123W        W21970   4.710  13.815  13.363 -0.2715  0.0500  0.2321
 5124W        W21971  10.947   8.648   4.516  0.0725  0.0454  0.2257
 5125W        W21972   4.667   3.429  13.205 -0.0931 -0.1058 -0.3971
 5126W        W21973  10.185  11.921   1.370  0.0637 -0.1213  0.0487
 5127W        W21974   7.408  10.836  16.151  0.1873 -0.0519  0.0616
 5128W        W21975  14.803   2.220   1.173  0.1719  0.2370 -0.0891
 5129W        W21976   7.557  14.219  12.240  0.0537  0.4913  0.2860
 5130W        W21977   9.761  18.257  12.681 -0.1874  0.1429  0.3823
 5131W        W21978   1.068   6.383  11.423  0.2502  0.0223 -0.0625
 5132W        W21979  11.527  17.382  12.023 -0.0245 -0.5083  0.1160
 5133W        W21980  15.041  18.366  15.008  0.0093 -0.0115 -0.1967
 5134W        W21981   6.762  13.818   2.692 -0.1357  0.1680  0.0295
 5135W        W21982  17.101   2.155  13.770  0.2903 -0.0458 -0.3233
 5136W        W21983  11.547  14.390  16.274 -0.0377 -0.0397 -0.0115
 5137W        W21984   0.145  17.582  11.463 -0.0850  0.1912  0.0117
 5138W        W21985  10.754  18.374  13.479  0.2869 -0.1324  0.1534
 5139W        W21986  16.494   7.446  14.875 -0.1456 -0.1684 -0.0298
 5140W        W21987   5.469  16.208  10.670 -0.0084  0.0449  0.0933
 5141W        W21988  15.127   8.499   2.027 -0.1076  0.0106  0.0126
 5142W        W21989   3.482   1.231  16.272  0.2913 -0.1721  0.1273
 5143W        W21990  10.635   2.248   5.611 -0.0364  0.2664 -0.2132
 5144W        W21991   6.673  12.303  13.528 -0.3101 -0.1391  0.0032
 5145W        W21992  13.064   0.588   3.901  0.0907 -0.0774  0.1476
 5146W        W21993   3.023   4.235   1.969  0.3168 -0.0925  0.1592
 5147W        W21994  15.076  15.821   4.723 -0.5253  0.1674  0.1151
 5148W        W21995  13.131  12.197   4.810  0.2319  0.0528 -0.3252
 5149W        W21996  11.302   5.353   2.010  0.1496 -0.0467 -0.1543
 5150W        W21997  11.473  15.281   0.070  0.1302 -0.1412  0.1159
 5151W        W21998   5.598  17.629   0.401  0.0379 -0.0625  0.1021
 5152W        W21999  16.765  10.067   4.937 -0.1132 -0.1837  0.3091
 5153W        W22000  12.555   8.006  12.362  0.3144  0.2283 -0.1398
 5154W        W22001   1.872  13.292  16.022 -0.3720 -0.3374  0.1370
 5155W        W22002   5.625   2.246  14.058 -0.1525  0.1014  0.0861
 5156W        W22003  15.325   2.439  11.700 -0.0868  0.0855  0.1011
 5157W        W22004   7.971  11.500   1.776 -0.2212 -0.1084 -0.0280
 5158W        W22005   0.720  12.721   4.325 -0.2279  0.1114  0.0840
 5159W        W22006  12.434   8.903  12.452  0.1648  0.0788  0.1521
 5160W        W22007   6.913   9.593   3.577  0.1379  0.1544  0.0456
 5161W        W22008   0.814   1.492   1.035  0.1682 -0.2558  0.4093
 5162W        W22009   3.291   4.516  16.350 -0.2152  0.0614 -0.1308
 5163W        W22010  15.662   9.718   2.406  0.0851 -0.4016  0.2128
 5164W        W22011  17.094   1.452   4.031  0.2337 -0.0704 -0.2012
 5165W        W22012  18.158   3.440  13.503 -0.3374  0.0411  0.1160
 5166W        W22013  15.476  17.408   4.793  0.1645 -0.0668  0.1215
 5167W        W22014  14.841   5.037   0.342  0.2719  0.4853 -0.0980
 5168W        W22015   3.802  15.201  12.231 -0.1242  0.0659 -0.2406
 5169W        W22016  16.714  16.739  13.217  0.0624  0.0209 -0.3589
 5170W        W22017   4.112   3.052  14.774  0.1252 -0.0831 -0.0293
 5171W        W22018   3.785   5.370   0.860 -0.4337  0.1864 -0.1326
 5172W        W22019   0.952   7.229   1.987 -0.3252  0.0589 -0.0297
 5173W        W22020  17.027   5.196   0.493  0.0099 -0.1905 -0.3561
 5174W        W22021   0.253   0.821  11.622 -0.1584  0.0371 -0.0739
 5175W        W22022   8.551  12.979  11.450  0.0122 -0.0154 -0.0319
 5176W        W22023   7.675   4.258   3.862 -0.0853  0.2976 -0.3325
 5177W        W22024  17.431   5.374  11.817  0.1612  0.0011  0.0260
 5178W        W22025  12.618   5.715  12.624 -0.0117  0.0736  0.3212
 5179W        W22026   4.287  17.485  14.681  0.0297  0.2322 -0.2667
 5180W        W22027   1.073   6.511   0.320  0.0647  0.3631  0.2622
 5181W        W22028  17.913   2.026   1.983 -0.0759 -0.2786 -0.0330
 5182W        W22029  11.355  13.820  12.848  0.1063  0.2345 -0.0556
 5183W        W22030  14.124   1.897   1.802  0.0556 -0.3066  0.0201
 5184W        W22031   8.175   6.744   2.388 -0.4406  0.1144 -0.3774
 5185W        W22032   6.372  18.341   2.121 -0.0160  0.0003  0.1489
 5186W        W22033  11.449  13.735   3.092 -0.3651  0.3790 -0.1425
 5187W        W22034  16.909   2.079   1.227  0.3709  0.0758  0.0668
 5188W        W22035  12.079  13.016   1.883 -0.2132 -0.0234  0.0116
 5189W        W22036   5.739  10.806  15.853  0.2832  0.0542 -0.0244
 5190W        W22037   0.192  18.416   3.302  0.0999  0.0040 -0.1394
 5191W        W22038   8.945   2.068  16.141  0.0406  0.0118 -0.2839
 5192W        W22039   5.344   3.531   1.438  0.2035  0.0777 -0.0628
 5193W        W22040   3.058  15.238   4.122  0.0382  0.4513  0.1261
 5194W        W22041   5.977   7.002   3.831  0.0652 -0.0894  0.1562
 5195W        W22042  12.823   7.750   4.933 -0.1148 -0.3017  0.1042
 5196W        W22043   4.267  14.620   1.779  0.0293 -0.0862 -0.0720
 5197W        W22044  10.856   9.514  15.594  0.1884 -0.1276  0.2182
 5198W        W22045   0.398   8.841   3.402 -0.0280  0.0157 -0.0882
 5199W        W22046   2.236  11.904  13.825  0.0868  0.2352  0.0955
 5200W        W22047  10.076   5.067   4.194  0.2752  0.1247  0.0471
 5201W        W22048   3.105   2.807  15.445 -0.0112 -0.2546  0.1803
 5202W        W22049   6.448  13.203   5.562  0.0841 -0.1041  0.0164
 5203W        W22050  16.892   3.522   2.572  0.2301 -0.1185 -0.0537
 5204W        W22051  14.180  12.572  12.463  0.0610 -0.5303 -0.2525
 5205W        W22052   2.284   8.211  13.038 -0.1525 -0.1288 -0.0145
 5206W        W22053  16.337  16.651  11.837  0.0300  0.1462 -0.1369
 5207W        W22054   2.189  11.275  13.502  0.0640  0.0254 -0.0156
 5208W        W22055  11.894  12.945  14.499  0.2436  0.1633 -0.1699
 5209W        W22056   5.917  15.282   6.215 -0.0897 -0.0013 -0.3119
 5210W        W22057   5.534   0.537  13.887  0.1587  0.2324 -0.1377
 5211W        W22058  11.205  14.716  14.451 -0.2287  0.0310 -0.1629
 5212W        W22059  13.570  12.306   5.633  0.0687 -0.1434 -0.0077
 5213W        W22060   0.563  13.178   1.624 -0.3320  0.1631  0.0730
 5214W        W22061   9.348   1.443  15.563 -0.0625  0.0588 -0.1500
 5215W        W22062  18.397   1.121   3.805 -0.2914  0.0651 -0.0156
 5216W        W22063  11.496  10.977   1.988 -0.0515  0.1264 -0.3515
 5217W        W22064   3.001  10.521   5.867  0.1086 -0.2410 -0.1062
 5218W        W22065  11.523  12.551   0.080  0.1497  0.0130 -0.2051
 5219W        W22066   0.095   2.317  14.238 -0.0207  0.0673 -0.1509
 5220W        W22067  16.271  15.471  12.046  0.0409  0.0383  0.3238
 5221W        W22068   2.299   9.504   4.035 -0.1487 -0.2280 -0.1768
 5222W        W22069   3.385  13.583   6.190  0.1304 -0.0796 -0.2391
 5223W        W22070   6.347   6.669  12.979 -0.1493  0.0210 -0.3008
 5224W        W22071  15.752   3.123   0.570 -0.1832  0.1535 -0.3337
 5225W        W22072   8.064   1.788   3.309 -0.4349  0.1024  0.0107
 5226W        W22073   7.110  16.263  12.053 -0.1280 -0.0503 -0.1276
 5227W        W22074   8.674  15.615   2.611  0.1327 -0.3976  0.0060
 5228W        W22075  17.540  13.181  16.327 -0.0215 -0.2534  0.1542
 5229W        W22076   6.461  10.165  13.599 -0.1890 -0.1385 -0.3101
 5230W        W22077  10.609   6.926  13.542 -0.1626 -0.1387 -0.0283
 5231W        W22078   1.607  13.801  11.926  0.1447 -0.0183 -0.1517
 5232W        W22079   2.735   8.656  16.245 -0.6144 -0.0394 -0.1233
 5233W        W22080   7.167  13.178  15.396 -0.2284 -0.2285  0.1991
 5234W        W22081  11.367  14.922   4.093 -0.3103  0.0039 -0.0227
 5235W        W22082   8.593  14.734   1.536 -0.2598 -0.1329 -0.0368
 5236W        W22083   6.159   8.869   5.466 -0.1475 -0.0406 -0.1214
 5237W        W22084  17.591  13.257   4.453  0.1474 -0.1761  0.0984
 5238W        W22085  15.809  12.897   1.357 -0.0056 -0.0862 -0.0702
 5239W        W22086  13.841  14.843  14.455  0.3661  0.0998  0.2169
 5240W        W22087  12.962   7.075  14.196  0.1865 -0.1490 -0.3801
 5241W        W22088   4.511   0.025  14.739  0.0543  0.1164  0.0462
 5242W        W22089  15.993  12.151  15.576  0.1771 -0.1552  0.0769
 5243W        W22090  10.048   9.369   0.245  0.0242  0.1040 -0.3782
 5244W        W22091   0.807   2.666  13.819  0.0985  0.0244  0.0343
 5245W        W22092  16.915   0.978   4.207 -0.0132 -0.0225 -0.0505
 5246W        W22093   8.988  14.779  13.755  0.2425  0.0407  0.2966
 5247W        W22094   2.568   2.112  13.904  0.1699 -0.1554 -0.1485
 5248W        W22095   4.684   7.638  11.539 -0.0112  0.2004 -0.0838
 5249W        W22096   1.876   2.149  13.348  0.0906  0.1328  0.0610
 5250W        W22097   5.573  16.609   5.318  0.0767  0.0759 -0.2659
 5251W        W22098   0.498   1.961   3.560 -0.1477 -0.1781  0.0507
 5252W        W22099  17.235   9.858   1.648  0.0862 -0.0971  0.0979
 5253W        W22100  11.987   9.159  13.887 -0.1664  0.0729  0.1639
 5254W        W22101   3.540  15.110   4.142  0.0523 -0.1325 -0.0760
 5255W        W22102  13.908   0.842  11.187 -0.1449 -0.0824 -0.1038
 5256W        W22103  15.427   4.337  14.546 -0.1707  0.1618  0.0469
 5257W        W22104  14.107  13.213   3.674  0.0237 -0.2815  0.1243
 5258W        W22105   1.920   0.836   5.490  0.0422  0.1282 -0.1470
 5259W        W22106   1.396  16.248   6.306  0.0846  0.1756 -0.0367
 5260W        W22107  10.371   4.917  14.162  0.0233  0.5362  0.0787
 5261W        W22108  14.485  16.300  14.361  0.0985  0.1157 -0.0392
 5262W        W22109  17.402  15.259  14.325  0.1392  0.1618  0.0397
 5263W        W22110   8.682   1.400  16.294  0.2510 -0.2274 -0.2152
 5264W        W22111  17.401  13.589   1.369  0.2756 -0.1687 -0.1384
 5265W        W22112   8.047   2.856  14.732 -0.1077  0.1060 -0.1428
 5266W        W22113  15.548   1.654   5.009 -0.0072  0.0159  0.2900
 5267W        W22114   4.651   2.009  14.321 -0.0123 -0.0325 -0.0651
 5268W        W22115   8.504   2.781  13.284 -0.0299 -0.2873  0.0705
 5269W        W22116  13.153   5.797   0.410  0.0385 -0.0672  0.1173
 5270W        W22117   0.477  14.639   2.038  0.0578 -0.1194  0.0528
 5271W        W22118  17.988  11.006   0.020  0.1888  0.0328 -0.2651
 5272W        W22119   5.916  16.958   3.010  0.3648 -0.3688  0.1030
 5273W        W22120   1.987  13.152  14.179  0.0595 -0.0446  0.0563
 5274W        W22121  14.788   8.912   4.574 -0.0022  0.1519  0.2408
 5275W        W22122  13.937  15.553  12.799  0.2005  0.3445  0.1515
 5276W        W22123   0.491   0.176  15.637  0.2867 -0.1288 -0.1949
 5277W        W22124   4.196   8.056  15.117 -0.0670  0.1119 -0.1752
 5278W        W22125  10.364   3.546   4.017 -0.1155 -0.0178  0.2391
 5279W        W22126  15.943   0.219  15.959  0.0970  0.0538 -0.1589
 5280W        W22127   3.712  13.033  12.704  0.1559 -0.0514  0.0190
 5281W        W22128   1.527   0.446   2.359  0.2158  0.0361 -0.0397
 5282W        W22129   3.942   9.747  14.810 -0.1113 -0.1900  0.0247
 5283W        W22130  17.905  12.625  15.843 -0.1414 -0.1587 -0.0973
 5284W        W22131  13.348   9.775  11.336  0.0270 -0.1015 -0.1557
 5285W        W22132   1.733   8.827   4.559 -0.0339  0.0527 -0.3062
 5286W        W22133  17.316   2.912  11.185  0.1335 -0.1691 -0.0668
 5287W        W22134   8.599   1.404  13.438  0.0866  0.1739 -0.1773
 5288W        W22135   5.920   1.879   4.495  0.0758 -0.2319  0.0735
 5289W        W22136   9.357   9.189  13.261 -0.1528  0.1677  0.1629
 5290W        W22137  14.786  11.904  15.251 -0.1607 -0.0551 -0.2767
 5291W        W22138   6.153   7.064  16.045 -0.0881 -0.2087 -0.1347
 5292W        W22139   3.627   0.511  12.281 -0.1730  0.0128 -0.2559
 5293W        W22140   0.244  11.551  14.706  0.1466 -0.1723  0.0570
 5294W        W22141   4.025  14.106   0.787  0.1067 -0.1298  0.5177
 5295W        W22142  14.761  17.942  11.893 -0.0540 -0.2142 -0.3228
 5296W        W22143   3.204  13.068  11.755 -0.2797  0.1789  0.0524
 5297W        W22144  12.622   4.777   3.819 -0.1363  0.1486  0.3953
 5298W        W22145  12.272  16.430  15.223 -0.0811  0.0046 -0.1217
 5299W        W22146   1.567   1.902  14.810 -0.3648 -0.0704 -0.2952
 5300W        W22147   3.229   8.853  14.609  0.2870  0.1271 -0.0452
 5301W        W22148  11.051   7.831  16.192 -0.0019 -0.1588  0.2448
 5302W        W22149  14.582  10.070   4.148 -0.0739  0.2382 -0.0693
 5303W        W22150  14.802   7.418  12.124  0.0866  0.0458 -0.0825
 5304W        W22151   9.097   3.953   0.518  0.1051 -0.2057 -0.1937
 5305W        W22152  13.929   8.401   2.322 -0.2115 -0.1279  0.1985
 5306W        W22153   5.703  15.070   3.394 -0.0084 -0.1686 -0.4409
 5307W        W22154  12.651  17.164   4.714  0.0887  0.0942 -0.1375
 5308W        W22155  10.576   2.523   2.066  0.0691  0.0101  0.3278
 5309W        W22156  15.242   7.866  13.604 -0.1012  0.1453  0.3066
 5310W        W22157  10.861  17.443  13.615  0.1652 -0.0319 -0.1975
 5311W        W22158  12.622  16.387   0.955  0.0669 -0.0220  0.2239
 5312W        W22159   3.689   8.077   0.184  0.1221  0.2376  0.1349
 5313W        W22160   0.871   6.582  11.019  0.2616 -0.0613  0.1797
 5314W        W22161   4.741   6.807   0.843  0.1120  0.0068  0.2310
 5315W        W22162  10.591  15.262   5.470 -0.0475  0.1142 -0.0991
 5316W        W22163  13.009   6.385   0.684 -0.1283  0.1704 -0.1839
 5317W        W22164   1.042  13.892   0.533 -0.0744 -0.0105 -0.1307
 5318W        W22165  12.396   2.817  14.466 -0.1310 -0.2228  0.1604
 5319W        W22166  12.140  15.418   1.702 -0.0460  0.2518 -0.0275
 5320W        W22167   8.420  12.632   5.102 -0.1229  0.2092  0.1234
 5321W        W22168   9.932  15.435   1.258 -0.0349 -0.0062 -0.1112
 5322W        W22169  12.525  15.540  15.155 -0.2565  0.0702  0.0412
 5323W        W22170  16.627   0.213  12.356 -0.3884  0.1094 -0.0421
 5324W        W22171   2.509   2.187  13.390 -0.2644 -0.1542 -0.1622
 5325W        W22172   2.149  12.730   3.233  0.1429 -0.2743  0.1879
 5326W        W22173   7.128   6.241  15.661  0.1457  0.1149 -0.0128
 5327W        W22174  13.280  14.876   0.573  0.1666  0.0489 -0.0348
 5328W        W22175  10.734   8.623   0.636 -0.0535 -0.2987  0.0389
 5329W        W22176   7.485   5.964  15.839  0.3104  0.1121  0.0631
 5330W        W22177   9.713   2.068   3.404 -0.0142 -0.1581  0.0494
 5331W        W22178  10.129  14.364  14.967 -0.4063 -0.0966 -0.0102
 5332W        W22179  15.187   7.053  15.865 -0.1942  0.1375  0.2863
 5333W        W22180   6.284   6.059   5.092 -0.1852  0.0953  0.2149
 5334W        W22181  16.542  11.423   1.709 -0.1435  0.1073  0.0235
 5335W        W22182  12.711   6.580   1.336 -0.3196 -0.0920 -0.1195
 5336W        W22183  18.234  10.435  15.278  0.0713 -0.2475  0.1543
 5337W        W22184   2.808   5.863  13.263 -0.0697 -0.1009 -0.1280
 5338W        W22185   7.299   9.675   2.164 -0.0535 -0.0067 -0.3188
 5339W        W22186   0.396  12.096  14.793 -0.0118 -0.1094 -0.0363
 5340W        W22187   1.652  12.882  14.588  0.0211  0.1613 -0.1593
 5341W        W22188   3.239  11.065  15.086  0.1803 -0.2759  0.0105
 5342W        W22189  15.334   9.648  15.911  0.1125  0.0191 -0.1276
 5343W        W22190  10.742  14.714   0.696  0.3670 -0.0919 -0.0737
 5344W        W22191   3.927  16.743   1.051 -0.3605 -0.1120 -0.1552
 5345W        W22192  11.825  12.926  16.197 -0.1124 -0.2364 -0.1468
 5346W        W22193   6.959   7.570  15.690  0.0517  0.4014 -0.0677
 5347W        W22194  13.221  11.579   3.413  0.1667 -0.2234  0.1921
 5348W        W22195  12.008  14.198  15.250 -0.2518 -0.0119  0.0594
 5349W        W22196   5.289  17.478  11.363  0.0619  0.1382  0.2395
 5350W        W22197   9.464   4.828  15.864  0.0058 -0.1634  0.0843
 5351W        W22198   2.460   7.081   3.567 -0.1278  0.0426 -0.0693
 5352W        W22199   8.058  10.550  12.379  0.0636 -0.0904  0.0926
 5353W        W22200   3.388   8.567  12.697 -0.1194  0.2331  0.2043
 5354W        W22201   4.058   8.052   4.505 -0.0553  0.0737 -0.4783
 5355W        W22202   9.299  15.723  11.656 -0.2801  0.0769  0.1370
 5356W        W22203   6.888   5.743  12.436 -0.0932 -0.0488  0.1083
 5357W        W22204   7.462  18.252  12.726 -0.1186 -0.4422  0.1287
 5358W        W22205  18.222   0.626   2.210 -0.3217  0.1883 -0.0734
 5359W        W22206   3.888  10.632  14.354 -0.2787  0.0645 -0.1082
 5360W        W22207  13.724   8.995  14.437 -0.1362 -0.1185  0.1015
 5361W        W22208   2.445   4.087   0.754 -0.2406 -0.1638  0.2346
 5362W        W22209   1.635  14.663   4.720 -0.3138 -0.1688  0.1106
 5363W        W22210   4.677   6.538   4.792 -0.0115 -0.1183  0.0193
 5364W        W22211  10.591  14.189  14.921  0.2978  0.2065 -0.0449
 5365W        W22212   0.783   4.611   0.019 -0.1758 -0.2664  0.3357
 5366W        W22213  13.218   9.499  15.382  0.2042  0.0797 -0.1375
 5367W        W22214   5.371   3.693   5.340 -0.1219  0.0819  0.1166
 5368W        W22215   4.503  16.294   0.505 -0.0125 -0.0497  0.0392
 5369W        W22216   0.317  17.351  12.725  0.1986 -0.1556 -0.1199
 5370W        W22217   1.663  11.927   1.862  0.3861  0.1055 -0.2921
 5371W        W22218  11.893  18.221   4.389 -0.1740  0.1693 -0.0751
 5372W        W22219  17.530   9.890   5.321 -0.2308  0.1339  0.1848
 5373W        W22220  12.989  12.891   0.370  0.1710 -0.1169  0.2295
 5374W        W22221   8.566  14.499  15.778 -0.1089  0.1966  0.5280
 5375W        W22222  12.482   1.919  10.993 -0.0272 -0.1174  0.2228
 5376W        W22223  13.682  12.119  13.819 -0.0082  0.0659  0.0856
 5377W        W22224   4.415   8.918   3.711  0.0050 -0.1042  0.2904
 5378W        W22225   3.741   2.177   5.147  0.0168 -0.3159 -0.6081
 5379W        W22226  15.568   5.178  15.862  0.1498  0.0418 -0.3282
 5380W        W22227  14.387   0.727  15.872  0.1013 -0.0359  0.1833
 5381W        W22228  11.050   4.066  14.919 -0.0286  0.1133  0.0753
 5382W        W22229  10.411  15.783  14.125 -0.1909  0.1220 -0.1328
 5383W        W22230  14.622   2.018  13.810 -0.1985 -0.0123  0.3271
 5384W        W22231  16.357  16.736  16.110  0.0619 -0.0744  0.1660
 5385W        W22232   8.411   4.692  15.181 -0.0353  0.0092 -0.0824
 5386W        W22233  14.213   8.369  10.824 -0.2013 -0.1180  0.3358
 5387W        W22234   2.102   3.503   1.307 -0.0295 -0.0723 -0.3721
 5388W        W22235   3.312  14.878   5.054  0.0511 -0.3382 -0.3498
 5389W        W22236  16.803   4.382  14.271 -0.0893  0.1429  0.3349
 5390W        W22237  14.177   0.178  11.888  0.0810  0.0002 -0.3686
 5391W        W22238  16.048   9.857  11.947  0.0747 -0.0339 -0.3596
 5392W        W22239   8.336   2.229   5.652  0.3591 -0.0873 -0.0026
 5393W        W22240   0.563   3.243  12.244 -0.0302  0.2797 -0.0940
 5394W        W22241   9.939  11.383   4.096 -0.0746 -0.0139 -0.0875
 5395W        W22242   1.021  12.354   0.601 -0.1575  0.2865 -0.1093
 5396W        W22243   2.385   9.664   2.305  0.1123  0.0014 -0.0038
 5397W        W22244  16.577   3.738   1.109 -0.1720 -0.1529 -0.1131
 5398W        W22245   8.645   4.070  13.919 -0.0490 -0.1677 -0.1098
 5399W        W22246   9.395   3.037   2.451  0.1713  0.0044 -0.0539
 5400W        W22247   6.112   5.693   3.155  0.0549 -0.3300  0.1363
 5401W        W22248   7.676   2.194  16.160  0.1239  0.0275  0.1570
 5402W        W22249   5.799  12.434   5.424 -0.3112 -0.0891  0.1906
 5403W        W22250   6.619   8.484   3.467 -0.5026  0.0267  0.0568
 5404W        W22251  11.783  10.023   5.637  0.4454 -0.1612  0.0132
 5405W        W22252  15.447  14.287   4.105  0.0317 -0.1668 -0.3038
 5406W        W22253   9.050  17.329  12.515  0.1254  0.2422 -0.0879
 5407W        W22254   8.399   5.409   0.848 -0.0575 -0.2436  0.1521
 5408W        W22255  13.643   5.862  11.802  0.1880  0.1245 -0.2617
 5409W        W22256   5.937   5.031   1.498  0.1153  0.0142 -0.0403
 5410W        W22257  15.928   4.704  13.704  0.1284 -0.1864  0.0258
 5411W        W22258   6.582   3.970  13.167  0.0956  0.0454  0.0987
 5412W        W22259   8.714   4.423   4.921 -0.2676 -0.4116  0.1335
 5413W        W22260  12.961   3.282  13.585 -0.0878 -0.2152 -0.2581
 5414W        W22261   4.240  17.256  12.767 -0.1458 -0.3484 -0.2319
 5415W        W22262   0.358   0.583   4.569  0.0856  0.1471  0.0638
 5416W        W22263  18.096   5.270  11.840 -0.0923  0.1286  0.2238
 5417W        W22264  11.004   1.876   4.109 -0.0350  0.2936 -0.1677
 5418W        W22265  13.593  17.132   4.614  0.1686  0.0331 -0.0940
 5419W        W22266   5.228   7.722   1.209  0.1482  0.1155 -0.1981
 5420W        W22267  11.357  10.428   1.922  0.1019  0.2093 -0.0666
 5421W        W22268   0.629   0.057  13.327 -0.3233 -0.0309  0.2922
 5422W        W22269   7.319   4.615   5.106  0.3899  0.2454 -0.1076
 5423W        W22270   3.479   2.265  12.073  0.1629  0.1645  0.1197
 5424W        W22271  16.437  13.328  12.179 -0.1431  0.2211  0.1002
 5425W        W22272   8.257   3.744  13.860  0.0270 -0.1353  0.3886
 5426W        W22273   2.360   7.555   1.178 -0.1385 -0.0392  0.1226
 5427W        W22274   3.299   5.888  13.342  0.0620  0.0117 -0.1904
 5428W        W22275  15.679   0.991   2.864 -0.1322 -0.0122  0.0547
 5429W        W22276  10.617  15.260  12.203 -0.1801  0.0742  0.0628
 5430W        W22277   7.167   3.081  13.158 -0.2370 -0.0061 -0.0454
 5431W        W22278   2.677   0.207  13.448  0.4439 -0.0228  0.1249
 5432W        W22279  16.859   8.660  13.323  0.2080  0.1109  0.1180
 5433W        W22280   2.064   8.263  15.782  0.0534 -0.0654  0.3063
 5434W        W22281   5.633   2.600  13.667 -0.0398 -0.0599 -0.0891
 5435W        W22282   6.871  18.405   1.967 -0.2709  0.2432 -0.0998
 5436W        W22283  13.970  14.873  15.219 -0.0727 -0.1210 -0.1103
 5437W        W22284   5.888   5.219  15.442  0.0422 -0.0070 -0.1498
 5438W        W22285  13.487   1.809   0.188  0.0873 -0.1527 -0.0210
 5439W        W22286   5.138  11.920   5.399 -0.0883 -0.0787 -0.1785
 5440W        W22287  13.921   0.465   4.684 -0.0216 -0.0457  0.1278
 5441W        W22288   7.008  13.904  15.338  0.0027  0.0033 -0.2291
 5442W        W22289   9.003  15.670  12.051 -0.0050 -0.0540  0.0133
 5443W        W22290   3.273   4.622   3.681 -0.0705 -0.0074  0.4162
 5444W        W22291  11.464   2.049  14.952  0.0965  0.1848  0.0428
 5445W        W22292   1.916   4.121   2.973 -0.1330 -0.4371 -0.1338
 5446W        W22293   4.191   6.349  14.372 -0.0588  0.1425  0.1137
 5447W        W22294  17.159  14.209  16.277  0.0564 -0.1529 -0.2820
 5448W        W22295  15.975  16.417   4.276 -0.0408  0.3674 -0.3117
 5449W        W22296   1.459   3.705  14.871 -0.0070  0.1208 -0.1904
 5450W        W22297  17.220  17.070   5.250  0.1020  0.0678  0.2816
 5451W        W22298   4.393  13.544   0.124  0.3514 -0.4257  0.0669
 5452W        W22299  10.506   7.056   0.702  0.2736 -0.0697 -0.0468
 5453W        W22300  14.336   1.035  13.943 -0.0298  0.0464  0.0437
 5454W        W22301   4.135   7.748   5.103 -0.1848  0.2914  0.2095
 5455W        W22302   4.567   4.981  11.952  0.3635 -0.3191 -0.1798
 5456W        W22303  11.491   0.053   3.118  0.1013 -0.0340  0.0823
 5457W        W22304   4.495   2.146  11.980  0.0449  0.0543  0.0826
 5458W        W22305   7.343  12.175  13.547 -0.0436  0.0527 -0.1070
 5459W        W22306   8.449  13.172   0.914 -0.1107  0.1341 -0.2833
 5460W        W22307  11.130  16.918  13.009  0.1331 -0.2602  0.1398
 5461W        W22308  16.997  13.080  15.097 -0.0222  0.3169  0.2720
 5462W        W22309  14.020   1.315  14.243  0.1115 -0.0979 -0.0599
 5463W        W22310   4.068   6.118   1.163 -0.0015 -0.3034  0.0668
 5464W        W22311  13.288   2.304   3.231 -0.2015 -0.1417  0.0705
 5465W        W22312   7.670  11.211   6.365 -0.2060  0.0444 -0.2852
 5466W        W22313  13.572   7.321  14.101  0.0604 -0.1002 -0.2547
 5467W        W22314   7.757  15.458  11.645 -0.0302  0.0021 -0.0358
 5468W        W22315   1.645  18.235  12.803  0.0255  0.0055 -0.1273
 5469W        W22316   7.085   7.819  14.512 -0.1241  0.0324 -0.4520
 5470W        W22317   9.806  18.002   2.889 -0.3479  0.0176 -0.2165
 5471W        W22318   3.407   8.065   2.680  0.1072  0.0489  0.0851
 5472W        W22319  15.044   0.231   5.462 -0.1330  0.1410 -0.0359
 5473W        W22320  13.596  14.251  16.228  0.2581 -0.3355  0.1041
 5474W        W22321  15.943   7.421   2.678 -0.3438  0.0411  0.1794
 5475W        W22322   0.946   2.153  13.739 -0.4406 -0.0199  0.1236
 5476W        W22323  15.043  13.049   0.173  0.2821  0.0409 -0.0679
 5477W        W22324   7.025   5.006  10.368 -0.1642  0.2271 -0.0863
 5478W        W22325   5.076  18.172   4.071 -0.1227 -0.1398  0.1402
 5479W        W22326   6.097   4.608   1.100  0.1525 -0.1314  0.0929
 5480W        W22327   4.360   5.276   0.874 -0.1094 -0.4534 -0.2119
 5481W        W22328  12.385  16.545   4.185 -0.0399 -0.0063 -0.0353
 5482W        W22329   2.263  12.993   4.089  0.1442  0.3412 -0.1635
 5483W        W22330  11.143  10.403  14.549 -0.0531 -0.0654 -0.2165
 5484W        W22331  13.263   1.235  11.531 -0.0359 -0.0674 -0.3178
 5485W        W22332  11.323   4.804   4.560  0.0280  0.1783  0.2625
 5486W        W22333  18.334  10.349   1.023 -0.2046  0.0685  0.0009
 5487W        W22334  12.401   7.152  15.178  0.2495  0.1041 -0.4819
 5488W        W22335   3.100  18.177  14.697 -0.0363 -0.0633  0.0368
 5489W        W22336  14.122   0.875   1.716 -0.3955  0.0721  0.0064
 5490W        W22337  11.201  13.590  13.269 -0.0051  0.0036  0.0942
 5491W        W22338  10.302  14.149  12.066  0.2173 -0.2731 -0.3203
 5492W        W22339  13.490  14.130   5.444  0.0598  0.1748  0.0954
 5493W        W22340  16.607   5.542   5.577  0.1376 -0.2347  0.1293
 5494W        W22341  17.388   1.402  11.219 -0.0312  0.0782  0.3597
 5495W        W22342  12.376  16.543  12.929  0.1404  0.0167  0.0121
 5496W        W22343  17.033   4.287   0.807 -0.1706  0.2678 -0.1040
 5497W        W22344  15.806   5.738  11.310  0.2631 -0.0620 -0.2099
 5498W        W22345   2.963   0.968  14.024  0.3886 -0.1146  0.2005
 5499W        W22346  16.561   2.373  15.888 -0.0826  0.0181 -0.1355
 5500W        W22347   9.825   2.813   1.459  0.1514 -0.0377  0.0170
 5501W        W22348  11.854  14.233  14.769  0.0433  0.0313 -0.0811
 5502W        W22349   2.520  13.575   3.368  0.2673 -0.2482 -0.0267
 5503W        W22350   8.012  16.842  13.491  0.0833  0.0245  0.1082
 5504W        W22351   7.802  14.351   5.420 -0.2247 -0.0032 -0.1744
 5505W        W22352   2.999  17.519  12.644 -0.1179 -0.0814 -0.0663
 5506W        W22353   7.136  11.827  15.182 -0.1664  0.3537 -0.0079
 5507W        W22354  14.484   1.968  16.131  0.0874  0.0722 -0.2534
 5508W        W22355   3.963   0.050   1.332 -0.1705 -0.2102  0.0455
 5509W        W22356  15.928  14.906  14.947  0.0323  0.0595 -0.2915
 5510W        W22357   1.928   2.379  12.337 -0.0392  0.4260  0.4180
 5511W        W22358   4.400   4.654   3.934  0.1597  0.0052  0.0865
 5512W        W22359   0.911   6.596   3.368  0.2943  0.1158  0.1297
 5513W        W22360   9.855   9.117   3.442 -0.0033 -0.3704 -0.0400
 5514W        W22361   0.036   0.849  15.934  0.0574  0.0557 -0.1185
 5515W        W22362  14.977  13.672   4.092  0.0359 -0.0724  0.0751
 5516W        W22363  15.093   8.004  11.299 -0.0749  0.0603 -0.1788
 5517W        W22364  13.850  14.876  15.783  0.0125 -0.0115 -0.1697
 5518W        W22365   0.334   2.396   3.731  0.1577  0.3841 -0.2371
 5519W        W22366   6.858  16.519   5.650  0.0140  0.0974 -0.1084
 5520W        W22367   5.602   3.204   2.087  0.3418  0.0722 -0.2875
 5521W        W22368   9.902   2.984  11.701 -0.2737 -0.1529  0.0806
 5522W        W22369   4.273  10.167   0.697  0.1207  0.1648  0.0910
 5523W        W22370   5.707  17.796   4.035  0.0216  0.2279  0.0080
 5524W        W22371   9.269  17.739   6.149 -0.0277 -0.1347 -0.0293
 5525W        W22372  12.412   8.325   5.530  0.1857 -0.0120 -0.4038
 5526W        W22373  12.782   1.702   2.134  0.1067  0.0990 -0.0963
 5527W        W22374  15.617   0.312   1.135 -0.3141  0.2500 -0.1739
 5528W        W22375  13.842   0.050   0.962  0.0676 -0.1939 -0.2196
 5529W        W22376  17.528   6.035   2.194  0.1214 -0.0342 -0.2293
 5530W        W22377  18.129  12.793   1.703 -0.0672  0.1968  0.0912
 5531W        W22378  13.679   2.857   3.848 -0.3008  0.0678 -0.1478
 5532W        W22379  13.414  17.577   0.039 -0.3053 -0.3775 -0.2372
 5533W        W22380   3.326   8.642   1.663 -0.2245  0.0247  0.2711
 5534W        W22381  15.192  11.233   3.444  0.1046 -0.0730  0.0395
 5535W        W22382   4.296  15.245   4.385  0.0415  0.2445 -0.1420
 5536W        W22383  11.754   8.606   0.778 -0.4150  0.0111  0.2489
 5537W        W22384   0.165   7.441  11.803 -0.0115  0.0626  0.0343
 5538W        W22385   2.563   6.041  10.894 -0.0903  0.0800  0.1249
 5539W        W22386  18.009   4.667  15.531 -0.1603 -0.0503 -0.2393
 5540W        W22387   6.372   5.254   1.547 -0.0803  0.0339  0.0429
 5541W        W22388  11.909  17.137  15.220  0.1768  0.2318  0.1315
 5542W        W22389  14.470   7.537  14.664 -0.0819 -0.3093 -0.1604
 5543W        W22390  11.134  11.862  14.011  0.0087  0.0055 -0.1974
 5544W        W22391  10.777   6.495   4.159 -0.2217 -0.0197 -0.2079
 5545W        W22392  14.897  10.401  13.820 -0.1394  0.1346  0.3755
 5546W        W22393   1.413   7.834   3.141  0.0528  0.0705 -0.2309
 5547W        W22394   9.059   8.236  15.752  0.1118 -0.0655 -0.0853
 5548W        W22395   4.245   3.945  14.525  0.1749 -0.3008 -0.1150
 5549W        W22396  13.544  14.972   4.207 -0.2264  0.1056  0.2512
 5550W        W22397  15.999  16.616   5.279  0.0408 -0.2178 -0.0696
 5551W        W22398   3.639   1.407   2.178  0.2629 -0.0667  0.1078
 5552W        W22399  11.831  16.963   4.695 -0.0053 -0.3816  0.3288
 5553W        W22400   5.430   5.570   5.933  0.0827  0.1873 -0.1521
 5554W        W22401   0.486  16.216   0.532  0.0253  0.1298  0.0349
 5555W        W22402   7.886  11.604  12.142 -0.0564  0.0895  0.1355
 5556W        W22403  14.675  16.749   5.516 -0.0865  0.0451 -0.4688
 5557W        W22404   6.499   7.453  13.564 -0.1243  0.0391 -0.1571
 5558W        W22405  16.484  17.205  11.897 -0.4551 -0.0863  0.0864
 5559W        W22406  13.535  11.761   2.353  0.1163  0.2978  0.2269
 5560W        W22407   5.677   0.476  12.479  0.2156  0.1686 -0.0686
 5561W        W22408  13.724   0.912  13.377  0.0727 -0.0707 -0.0532
 5562W        W22409   9.723   3.427   1.332 -0.0103 -0.2961 -0.2668
 5563W        W22410   9.378  17.718   1.525 -0.0420  0.0142 -0.1479
 5564W        W22411  11.002  14.278   3.728 -0.0615  0.1746 -0.0806
 5565W        W22412   4.141   3.471   4.576 -0.2281  0.1510 -0.0901
 5566W        W22413  13.534  14.767  11.878 -0.2631  0.0493  0.1568
 5567W        W22414   0.005  14.372   1.035  0.0246  0.1064  0.4538
 5568W        W22415  17.826   9.051   1.778 -0.0606  0.1351  0.1204
 5569W        W22416  14.438  15.069  13.714 -0.1368 -0.0030  0.0082
 5570W        W22417  16.552  12.978  15.926  0.1887 -0.5401  0.1460
 5571W        W22418   7.243  13.612  15.694  0.2707  0.0177 -0.2071
 5572W        W22419   9.479   9.760  10.550  0.0176  0.0256 -0.0913
 5573W        W22420   4.552   6.106   1.918 -0.0715 -0.0302  0.1313
 5574W        W22421  10.515   7.804  16.314  0.1123 -0.1383  0.1313
 5575W        W22422  16.656  10.454  16.245  0.2197  0.0877  0.0072
 5576W        W22423  16.198  16.271   5.728  0.0035  0.1340 -0.2095
 5577W        W22424   3.322  10.275  15.826 -0.1459  0.1478  0.1079
 5578W        W22425   5.630   0.484  14.733  0.1163  0.1414  0.2352
 5579W        W22426   3.672   1.611  13.185 -0.3460 -0.1320 -0.0013
 5580W        W22427   9.596  12.321   4.326 -0.2458  0.1467 -0.0094
 5581W        W22428   8.775  16.156   4.912  0.1062 -0.1159  0.1560
 5582W        W22429  13.448  17.963   4.826 -0.4544 -0.1062  0.1542
 5583W        W22430  13.258   0.640  13.351 -0.0017 -0.0703  0.0567
 5584W        W22431   4.195  17.931  13.365  0.0634 -0.0846 -0.0015
 5585W        W22432   8.349   3.359  14.233 -0.0873 -0.0176 -0.1076
 5586W        W22433   0.181   3.838   1.801  0.0655  0.1906 -0.0342
 5587W        W22434  12.883  12.474  15.879 -0.0059 -0.0904 -0.0759
 5588W        W22435   5.645   9.596   0.409 -0.0586 -0.1669  0.0810
 5589W        W22436   0.816   8.799   1.490 -0.2004  0.1449 -0.3208
 5590W        W22437   0.969   0.998   3.606  0.1557 -0.1249  0.3366
 5591W        W22438  17.666  10.017   1.345  0.2207  0.2566 -0.0413
 5592W        W22439  11.814   0.651  15.633 -0.0860 -0.0957  0.0727
 5593W        W22440  14.302   7.708   4.502  0.1697  0.4583  0.0484
 5594W        W22441  13.654   3.799   3.325 -0.1191  0.0282  0.2038
 5595W        W22442   3.716  13.655   2.639  0.0410  0.2917  0.2248
 5596W        W22443   2.686  10.754  15.582 -0.0986  0.0183 -0.2596
 5597W        W22444   4.917   8.877  15.924  0.0822  0.3214  0.1369
 5598W        W22445  16.394  14.335  15.323  0.0478  0.1850  0.0984
 5599W        W22446  11.514   6.230   4.698  0.0685  0.1707 -0.3260
 5600W        W22447  10.823  12.169  13.458 -0.0142 -0.3318 -0.0283
 5601W        W22448  13.784   4.688  11.691  0.1997  0.1042  0.1668
 5602W        W22449  10.492   9.159  12.366 -0.3796 -0.1041 -0.0755
 5603W        W22450  16.930   6.180   2.202  0.2778 -0.2366  0.0448
 5604W        W22451   4.386   6.739   1.261 -0.0167  0.2341 -0.0673
 5605W        W22452  15.110   6.286   4.057  0.3063  0.1597  0.2218
 5606W        W22453   9.406   9.130  12.366 -0.2157  0.2716  0.0841
 5607W        W22454   2.082   2.756  14.171  0.0413  0.0192 -0.1207
 5608W        W22455  14.056   7.818   0.344 -0.0201 -0.0827 -0.0305
 5609W        W22456  11.365   8.427   4.641  0.0607  0.0864  0.3146
 5610W        W22457   2.702  11.109   4.763  0.2218 -0.0584 -0.1993
 5611W        W22458  12.165  11.063  14.369  0.0957 -0.0515 -0.1716
 5612W        W22459   4.519   5.347   3.056 -0.2251 -0.2851 -0.1719
 5613W        W22460   3.430  11.180  12.885 -0.0388  0.0618 -0.1352
 5614W        W22461   9.908  13.133   2.106 -0.2217 -0.0715 -0.2114
 5615W        W22462   2.752  12.793   6.082  0.2466  0.0418  0.1384
 5616W        W22463   1.263   1.606  11.322 -0.0193  0.1261 -0.0204
 5617W        W22464   4.138  10.909  15.484 -0.3285  0.1318 -0.0599
 5618W        W22465  18.291  13.797   0.027  0.1241  0.1931 -0.0315
 5619W        W22466  15.192   6.511   4.949 -0.0953  0.0751  0.0950
 5620W        W22467  13.551   7.209  11.216 -0.3682  0.4431  0.1186
 5621W        W22468  13.205   8.668   3.929 -0.0748  0.1430  0.0561
 5622W        W22469  15.209   1.085   3.488  0.1861  0.1865  0.0211
 5623W        W22470   1.489  12.114  12.435 -0.1443 -0.0065 -0.0586
 5624W        W22471   6.333  12.905  14.545  0.1433  0.1898 -0.2449
 5625W        W22472  11.650   8.317  12.472  0.0784  0.0486  0.1405
 5626W        W22473   0.599   2.700  12.586 -0.2651  0.0710  0.1529
 5627W        W22474   7.403   0.419  14.941  0.2473 -0.0979  0.2790
 5628W        W22475  11.834  13.020   0.375 -0.0663  0.3470  0.2762
 5629W        W22476  17.614   8.023  11.312 -0.0295 -0.1195  0.3025
 5630W        W22477   0.031  16.948  12.589  0.0839 -0.1019  0.2454
 5631W        W22478   8.785  12.786   4.431 -0.2254  0.0249  0.0481
 5632W        W22479   7.962  17.299  14.214  0.1258 -0.1125  0.3156
 5633W        W22480  17.454  17.889  13.279  0.4932  0.4240 -0.4375
 5634W        W22481   0.861   1.550   2.738  0.1023  0.1267  0.0699
 5635W        W22482  11.039  16.353  16.172  0.0388 -0.2299  0.0285
 5636W        W22483   1.065  14.645   3.749 -0.0828  0.1161 -0.0792
 5637W        W22484  11.644   1.641  15.209  0.1197  0.0607  0.0982
 5638W        W22485   5.359   0.678  10.614  0.1775  0.3245 -0.3388
 5639W        W22486   9.115   4.059   5.357  0.0715  0.1043  0.1398
 5640W        W22487  16.277  11.173  10.575  0.3393 -0.0967  0.1142
 5641W        W22488  13.222  11.863  13.924  0.1866 -0.4390  0.1530
 5642W        W22489   7.144  10.471  12.621 -0.2909 -0.2467 -0.2003
 5643W        W22490  11.121   1.422  14.602  0.0135 -0.1156 -0.0345
 5644W        W22491   2.186  13.046  16.297 -0.0639 -0.0172 -0.2580
 5645W        W22492   5.492   5.880   4.001  0.1608 -0.0641  0.0618
 5646W        W22493  11.943   1.386  12.043 -0.1887 -0.2299 -0.1895
 5647W        W22494  11.066   0.226  15.626 -0.0844  0.1547 -0.3690
 5648W        W22495  17.854  12.817   0.770 -0.0239 -0.0450  0.2051
 5649W        W22496   4.600   6.326   0.970  0.3198  0.0653  0.0350
 5650W        W22497   9.307  17.671   5.649  0.1436 -0.1800  0.1839
 5651W        W22498   5.193  14.359   2.295 -0.2341 -0.1385 -0.1127
 5652W        W22499   1.366   9.422   2.521  0.1267  0.0716  0.3010
 5653W        W22500   3.883  16.102   1.891 -0.0393 -0.0007  0.2049
 5654W        W22501   2.524  16.516   3.696  0.0897  0.1155 -0.1523
 5655W        W22502   6.728   7.830  14.893  0.2189  0.3932 -0.2705
 5656W        W22503  15.338   6.152  10.933 -0.0329  0.0926  0.1798
 5657W        W22504  10.518  11.903   5.638 -0.0849  0.0862  0.1814
 5658W        W22505  10.977   5.333  15.444  0.4711  0.0733  0.0103
 5659W        W22506  15.393   3.382  14.867 -0.0070  0.3586  0.0106
 5660W        W22507  12.570  17.240  15.889  0.0438  0.2117 -0.2816
 5661W        W22508  10.037   1.853   2.127 -0.1717  0.0958  0.1717
 5662W        W22509   8.363   3.923   5.110 -0.0368  0.6468  0.3517
 5663W        W22510  10.925  14.258   4.343  0.0835 -0.1614  0.3373
 5664W        W22511   0.693   0.756  16.367  0.0424 -0.0850 -0.0477
 5665W        W22512  14.533   1.636  14.785 -0.3666  0.0676  0.1141
 5666W        W22513   5.965  17.755  16.377  0.2260 -0.2802  0.0596
 5667W        W22514  12.333   8.040   2.340  0.2384 -0.0606 -0.3682
 5668W        W22515  13.215   0.136  15.071 -0.2677 -0.0844 -0.1045
 5669W        W22516   1.278   9.194  14.870 -0.1620  0.1774  0.0377
 5670W        W22517  15.705   5.478  16.292  0.0344 -0.2091 -0.0169
 5671W        W22518  12.741   8.894   3.454 -0.1610 -0.1773 -0.1722
 5672W        W22519   1.836  14.584  14.121 -0.0170  0.1153  0.0026
 5673W        W22520  14.350   8.543  15.389 -0.3681  0.1251 -0.2704
 5674W        W22521   5.687  15.221  13.980  0.1869 -0.0231 -0.3596
 5675W        W22522   2.419  14.085   1.353 -0.1115  0.1218  0.0771
 5676W        W22523   8.567  13.570  11.923  0.2488  0.2927 -0.2968
 5677W        W22524   4.065  12.710   3.531  0.0864 -0.1450 -0.0839
 5678W        W22525  17.278  12.852  12.738  0.0052 -0.0447  0.1103
 5679W        W22526  10.417  11.064  13.108  0.1460  0.0776 -0.1804
 5680W        W22527   0.455  11.906  11.497 -0.0723  0.0483 -0.0069
 5681W        W22528   9.874  17.310  12.133  0.2527 -0.0556  0.0311
 5682W        W22529   5.034   2.410  15.211 -0.3535 -0.1782 -0.0909
 5683W        W22530   7.747  11.762  13.580 -0.2293  0.0483 -0.1631
 5684W        W22531  15.749   8.241  12.729 -0.3827 -0.0241  0.4736
 5685W        W22532  13.992   3.293   0.295 -0.1127 -0.0399 -0.1066
 5686W        W22533  11.889  12.278   1.475 -0.4761 -0.2004  0.1047
 5687W        W22534   3.265  12.277  12.888 -0.2617  0.0507  0.0897
 5688W        W22535   9.482   6.560  14.766  0.2990 -0.1806  0.1420
 5689W        W22536   7.819   6.635  13.136  0.1094 -0.1757 -0.2763
 5690W        W22537  16.065   7.452   3.154 -0.3444 -0.0437  0.0840
 5691W        W22538  17.052   8.864  15.191  0.0193  0.4252 -0.1800
 5692W        W22539  16.732   0.103  13.768 -0.0635 -0.0594  0.1194
 5693W        W22540   1.480  13.868   0.142 -0.1823  0.0323 -0.2214
 5694W        W22541   5.207  11.293  13.140  0.0523  0.2540  0.0951
 5695W        W22542  15.077   0.269  16.143 -0.3190 -0.2972 -0.0375
 5696W        W22543   0.296   7.598   0.302  0.0776 -0.3126  0.3008
 5697W        W22544   5.100  14.733   2.648 -0.0860 -0.1383  0.3221
 5698W        W22545   3.517   6.755   1.076 -0.0610 -0.2125  0.0733
 5699W        W22546  12.219   4.150  12.142 -0.0802 -0.0564  0.0065
 5700W        W22547  16.588  10.972   0.681  0.1806 -0.0778 -0.1472
 5701W        W22548  17.005  15.571  14.962 -0.1557  0.0724 -0.3267
 5702W        W22549  17.628   6.571  14.737  0.2629  0.3132 -0.2041
 5703W        W22550   8.976   8.291   5.360  0.1456 -0.1870 -0.1477
 5704W        W22551  15.748  13.379   1.223  0.0732  0.0857  0.2142
 5705W        W22552   7.115   4.806  15.158  0.1921 -0.3559  0.1557
 5706W        W22553   7.095   3.500   0.751 -0.1074  0.1902 -0.1420
 5707W        W22554  17.840  15.512   5.682  0.1386  0.0495 -0.0374
 5708W        W22555   2.681  10.947   5.676 -0.0073 -0.0802 -0.1320
 5709W        W22556   4.005  16.988   2.976 -0.1801 -0.2717  0.0147
 5710W        W22557   2.261   6.007  13.137 -0.4155  0.1015 -0.2005
 5711W        W22558   6.020  16.996   4.232  0.1213  0.0949 -0.1058
 5712W        W22559   9.209  13.366   3.415  0.0359 -0.0100  0.0280
 5713W        W22560   9.587  16.815   1.468  0.2405 -0.2286  0.0306
 5714W        W22561   5.791   7.910  15.573  0.0142 -0.2689  0.0311
 5715W        W22562   8.673   6.106   1.868  0.1723 -0.3962  0.2498
 5716W        W22563  17.972  18.120  15.239  0.1069 -0.3606  0.2050
 5717W        W22564   3.777  18.323  15.782 -0.0501  0.1589 -0.0180
 5718W        W22565   9.509  13.249   6.210 -0.0181 -0.0849  0.3917
 5719W        W22566   2.003  12.359   1.242 -0.0344 -0.3365 -0.1039
 5720W        W22567  17.741  18.377   5.144  0.0885 -0.0689  0.2231
 5721W        W22568  10.662   2.329   1.031  0.0040  0.2364 -0.1128
 5722W        W22569  15.926  13.140  11.540 -0.1289  0.0846  0.3405
 5723W        W22570  11.059  11.059  12.497  0.1056 -0.0131  0.1197
 5724W        W22571   6.201   1.465   0.035  0.0127  0.1868 -0.2483
 5725W        W22572   4.180  14.526  14.139 -0.2211 -0.1489 -0.2433
 5726W        W22573  13.959  18.347  15.789  0.1698 -0.0735 -0.2012
 5727W        W22574   8.085   3.388   2.050  0.2733 -0.0685 -0.3137
 5728W        W22575   0.099   0.322   0.749  0.0863 -0.0791 -0.1199
 5729W        W22576   0.141   5.798   1.010  0.0944 -0.0322  0.0882
 5730W        W22577  11.477  15.745   3.318 -0.0222 -0.1491  0.2354
 5731W        W22578  17.673   6.459   4.650 -0.0003  0.0539  0.0789
 5732W        W22579   3.295   1.834   1.536  0.0047  0.1654 -0.2190
 5733W        W22580   3.480  18.291   1.548 -0.3000 -0.3007 -0.1673
 5734W        W22581  17.797  17.369   3.230  0.2352  0.1882 -0.2517
 5735W        W22582  16.147   1.743   2.740  0.1401 -0.0544 -0.2886
 5736W        W22583   8.432  16.651   0.201 -0.0211  0.2528  0.0093
 5737W        W22584   1.861   5.446  12.308 -0.1417 -0.4113 -0.1946
 5738W        W22585   8.988   1.342  15.187  0.3395 -0.1568  0.1835
 5739W        W22586  15.687  17.995   5.130 -0.0718  0.3929 -0.0810
 5740W        W22587  16.214  14.038  13.888  0.1158 -0.0793 -0.0332
 5741W        W22588  10.084   9.499   2.536 -0.1690 -0.2782 -0.0042
 5742W        W22589   0.412   7.447  16.102 -0.0395 -0.1483  0.0480
 5743W        W22590  18.287   4.586   1.078  0.4905  0.0721  0.0037
 5744W        W22591   6.832  15.617  14.924 -0.2964 -0.1009  0.0936
 5745W        W22592   3.291   7.688  12.669  0.2234  0.0601  0.0128
 5746W        W22593   1.364   8.597   0.054 -0.2003  0.0295  0.2599
 5747W        W22594   9.589  13.196   5.490  0.2168 -0.0423 -0.0406
 5748W        W22595  16.636  11.927   0.543 -0.0830 -0.0095  0.1781
 5749W        W22596   1.090  16.787   4.857  0.3521 -0.1444 -0.0717
 5750W        W22597   7.803   6.697   2.746  0.0177  0.0837  0.1095
 5751W        W22598   4.069  15.851   3.182 -0.0782 -0.0661 -0.0840
 5752W        W22599   5.281   4.481   3.942  0.2671 -0.1149  0.0395
 5753W        W22600  14.139  12.984   5.164  0.0237  0.2011 -0.0457
 5754W        W22601  17.204   3.396   0.279  0.0905 -0.1097  0.3174
 5755W        W22602  14.242   1.173   0.147 -0.1214 -0.1942 -0.2101
 5756W        W22603  17.311  12.372  12.952 -0.0707 -0.0928  0.0258
 5757W        W22604   1.190   9.915   3.538 -0.0202 -0.1881  0.1687
 5758W        W22605  17.223   0.493   0.308 -0.1603 -0.0399 -0.3191
 5759W        W22606   1.044   1.327   4.546 -0.1778 -0.2361  0.0793
 5760W        W22607   0.826   6.894  11.492 -0.0532  0.2741  0.0413
 5761W        W22608   5.932  14.903   0.274 -0.2778  0.1245  0.0478
 5762W        W22609  17.042  11.188   0.429  0.1754 -0.4449  0.2916
 5763W        W22610   8.984   2.771  13.603 -0.1109 -0.1967 -0.0066
 5764W        W22611   9.442   4.281  14.662  0.1911  0.2107  0.0690
 5765W        W22612  14.872  10.264  14.848  0.3633  0.3456 -0.0343
 5766W        W22613   8.141  13.313   2.543 -0.2655 -0.1977  0.0304
 5767W        W22614  12.272   8.409   2.051 -0.0963 -0.0651  0.1491
 5768W        W22615  10.846   2.677   5.375 -0.0245 -0.0803 -0.0123
 5769W        W22616  12.195   4.354  11.427  0.0483  0.1436 -0.0768
 5770W        W22617   0.995   9.726  12.732  0.3301 -0.1831  0.2124
 5771W        W22618  13.379   7.758  12.316 -0.1868 -0.0665 -0.1594
 5772W        W22619  16.208   8.098  13.609  0.0555 -0.3157 -0.1424
 5773W        W22620  12.765  15.576  13.450 -0.2186 -0.0482 -0.0042
 5774W        W22621   7.222  11.884   1.048  0.1254 -0.0340  0.2760
 5775W        W22622   9.045   0.499   3.425 -0.2376 -0.3465  0.0544
 5776W        W22623   7.079  12.509  16.158  0.0255 -0.2989 -0.1142
 5777W        W22624   9.984   7.092   1.081  0.1810 -0.0533 -0.1726
 5778W        W22625  17.541  16.968  15.434 -0.2261 -0.1940 -0.3844
 5779W        W22626   0.559   4.300   3.072 -0.1057  0.2920  0.3410
 5780W        W22627   4.955  10.093   3.154 -0.0925  0.1152 -0.0830
 5781W        W22628  10.022  15.595   2.064  0.2580  0.0222 -0.1764
 5782W        W22629   8.249  11.232   0.104  0.0670  0.1562 -0.2262
 5783W        W22630   1.151   8.760   3.784  0.0656 -0.2097  0.0050
 5784W        W22631   9.933   7.011  16.042  0.1605 -0.0085 -0.1952
 5785W        W22632  11.479  10.331  14.214  0.2625 -0.0742 -0.4455
 5786W        W22633   4.561   3.756   1.865 -0.0664  0.2183  0.1064
 5787W        W22634  16.706   4.354  12.551 -0.1756  0.0635  0.0025
 5788W        W22635   2.382  17.699  13.656 -0.0470 -0.2428 -0.2372
 5789W        W22636  16.639  14.019  16.163  0.0400  0.1943 -0.0780
 5790W        W22637  15.392   6.787   1.557 -0.1950  0.2847  0.1261
 5791W        W22638   8.788   8.547  12.504  0.0375  0.3058  0.0034
 5792W        W22639   1.567  18.350   4.716 -0.2203  0.1243  0.1366
 5793W        W22640   8.294  14.576   6.061  0.1209 -0.0772  0.0427
 5794W        W22641   8.824   3.094  15.613  0.0658  0.0381 -0.0506
 5795W        W22642  16.463  11.841  14.817 -0.1917  0.1654  0.0687
 5796W        W22643  18.159  17.278   5.133 -0.0353  0.2078  0.3194
 5797W        W22644   5.845  13.124  13.873 -0.2726 -0.0025 -0.3606
 5798W        W22645   8.928  14.313  13.985  0.0773  0.0734  0.0907
 5799W        W22646   6.469  18.186  15.723  0.0011 -0.3459  0.1793
 5800W        W22647  16.428   7.213   1.186 -0.4284  0.0942 -0.2819
 5801W        W22648  18.243   2.298  16.313 -0.2113 -0.3392  0.2502
 5802W        W22649  15.854  17.800  11.237  0.0483 -0.0353 -0.0680
 5803W        W22650  18.306   7.214   3.935  0.2572 -0.2034 -0.1007
 5804W        W22651   1.696   7.158   4.029  0.0727  0.1981  0.2025
 5805W        W22652   6.804   2.158  14.682  0.3353 -0.0362  0.1665
 5806W        W22653   0.161   9.622  12.345  0.0199 -0.0084 -0.0282
 5807W        W22654   9.407   3.659   1.765  0.0331  0.3249 -0.0616
 5808W        W22655   1.838  11.185  11.773  0.0712  0.2044 -0.0902
 5809W        W22656   0.073   3.895  13.578  0.0474 -0.0756 -0.1591
 5810W        W22657   1.762   0.017   5.235 -0.0675  0.0477  0.0843
 5811W        W22658   5.188   1.421  11.743  0.2650 -0.0974  0.0505
 5812W        W22659   2.011   5.454  14.126  0.0531 -0.3736 -0.0942
 5813W        W22660  16.726  12.246  14.696  0.3070 -0.0931 -0.1492
 5814W        W22661   0.969  14.565   1.303  0.1605  0.2241 -0.2035
 5815W        W22662   5.665   8.620  13.944 -0.2008  0.1543  0.1402
 5816W        W22663   7.470   8.582   0.900 -0.1258 -0.1096  0.3386
 5817W        W22664   9.923  15.890   0.260  0.0839 -0.1461  0.1010
 5818W        W22665   3.424  13.414   4.752 -0.3656  0.1213 -0.0335
 5819W        W22666  10.390  12.596  14.173  0.0747 -0.0917 -0.1395
 5820W        W22667  11.019   5.444   3.377 -0.1143 -0.2527 -0.0767
 5821W        W22668   3.639  12.378  15.570 -0.0033 -0.2447 -0.2071
 5822W        W22669  17.954   9.398  15.568 -0.0703 -0.2411 -0.0010
 5823W        W22670  11.765  16.955   0.419 -0.0277 -0.1330  0.0852
 5824W        W22671  17.254   4.550   3.688 -0.2761 -0.2027 -0.0885
 5825W        W22672  13.691  10.121  12.653  0.1347  0.4105  0.2698
 5826W        W22673   6.618   9.277  15.319 -0.0286 -0.1264 -0.0583
 5827W        W22674  12.867   5.705   3.893  0.1925  0.0439  0.0257
 5828W        W22675   4.689  17.246  13.448  0.0833 -0.2199 -0.1149
 5829W        W22676  12.994   0.248  14.105 -0.1404  0.2125  0.0825
 5830W        W22677   7.313  11.327   1.177  0.1372  0.2408 -0.0897
 5831W        W22678   4.516  13.664   3.891 -0.1310  0.0772  0.0508
 5832W        W22679  11.346  14.284   0.996 -0.0560  0.3972 -0.0259
 5833W        W22680  11.634  16.718   1.870 -0.0299 -0.2040  0.2119
 5834W        W22681   6.051  11.074  16.157 -0.1426 -0.0211 -0.2308
 5835W        W22682  16.620  15.883   0.253 -0.1361 -0.2028 -0.0311
 5836W        W22683   5.859   2.957  13.399 -0.0233  0.2069  0.0654
 5837W        W22684   2.381   4.073   3.272  0.2322 -0.1020 -0.2587
 5838W        W22685   1.542   0.216   3.822 -0.3780  0.2788  0.1253
 5839W        W22686  14.845  17.017  12.594 -0.2671 -0.3220  0.2400
 5840W        W22687  10.827   0.366   3.722 -0.0241  0.1518  0.0812
 5841W        W22688  16.684  13.016   2.119  0.1602  0.1186  0.0268
 5842W        W22689  18.094   7.114  14.346  0.1651 -0.1699  0.2731
 5843W        W22690   4.178  10.210  14.719 -0.0259 -0.0233  0.0272
 5844W        W22691  17.624  13.524  11.937 -0.0847 -0.2723 -0.1865
 5845W        W22692   5.164  15.988   4.448 -0.1787 -0.0266  0.1622
 5846W        W22693  17.032   5.880  15.262  0.0520 -0.0924 -0.1823
 5847W        W22694   3.078   5.644  12.888  0.1897  0.3258 -0.1901
 5848W        W22695  16.957  13.356   1.329 -0.1888  0.0488  0.4118
 5849W        W22696   6.226   1.194  13.239  0.0484 -0.0597  0.0417
 5850W        W22697  14.724   3.759  16.329 -0.2582  0.0162 -0.1489
 5851W        W22698   3.159   6.917  11.004  0.1378 -0.0956 -0.0841
 5852W        W22699  15.907   9.711   2.795  0.1241  0.1005  0.0655
 5853W        W22700  12.572   3.282   2.644  0.0947  0.1687  0.3044
 5854W        W22701  12.140   3.275   5.320  0.0031 -0.1270  0.3744
 5855W        W22702   6.684  16.945  12.703  0.2566  0.0008 -0.0128
 5856W        W22703  15.123   9.229  13.303  0.0123 -0.0650  0.0268
 5857W        W22704   8.236  12.729   5.853 -0.1947  0.2218  0.2050
 5858W        W22705  16.460  12.039  15.733  0.0595 -0.0306 -0.0448
 5859W        W22706   4.336  11.495   1.606  0.0528 -0.0913 -0.1136
 5860W        W22707  17.748  16.552   4.348 -0.0779  0.1131 -0.1165
 5861W        W22708  11.091  12.884   1.809  0.4071  0.0072 -0.1800
 5862W        W22709  15.609   3.891  13.029 -0.0910  0.2175  0.4033
 5863W        W22710   8.603   4.415  16.075 -0.1619 -0.0821  0.1200
 5864W        W22711  14.615   4.668   4.086 -0.2397  0.1220 -0.2910
 5865W        W22712  16.711   8.195   4.541 -0.1676  0.2147 -0.0423
 5866W        W22713  15.334  12.181   0.571 -0.1608  0.1137  0.0876
 5867W        W22714   1.781   4.459   0.004 -0.2489  0.1937  0.0441
 5868W        W22715   6.250   7.658  13.187 -0.1662  0.0818  0.1766
 5869W        W22716   5.714  13.242   3.426  0.0776 -0.1360 -0.3240
 5870W        W22717  12.566  13.611   3.635 -0.0488 -0.1018 -0.0162
 5871W        W22718   4.832   1.545  15.227 -0.1879  0.1977  0.0665
 5872W        W22719  13.672  13.422   3.760  0.0438 -0.4303 -0.2114
 5873W        W22720   1.999  18.009   0.582  0.1938 -0.3328  0.2382
 5874W        W22721  14.186   4.936  13.034  0.1369 -0.2261  0.1307
 5875W        W22722  16.216  10.745   1.044 -0.2330  0.2753  0.1925
 5876W        W22723  15.188   8.521   4.424 -0.0134 -0.1013 -0.0901
 5877W        W22724   1.192   6.948  15.176 -0.0247 -0.1356 -0.2180
 5878W        W22725  11.279   9.718  10.459 -0.0730 -0.2057  0.1832
 5879W        W22726   0.857  11.681   0.176  0.1523 -0.2365  0.1028
 5880W        W22727  13.395   4.352  11.993  0.0325  0.3855 -0.0123
 5881W        W22728  17.869   4.380   2.088 -0.0991 -0.1165  0.0333
 5882W        W22729  12.802   0.671   1.905 -0.4230 -0.2500 -0.1488
 5883W        W22730   3.501   7.234  16.023 -0.1593  0.0253  0.0878
 5884W        W22731  12.735   8.647  13.676 -0.1399  0.0185  0.2543
 5885W        W22732   7.601   6.460  11.368 -0.2909 -0.0074 -0.0121
 5886W        W22733   4.947   2.486  13.083  0.0206  0.0097  0.1735
 5887W        W22734  17.575  10.172  12.409  0.0030 -0.1861 -0.3785
 5888W        W22735   8.542  11.501  15.037  0.0604 -0.0465  0.0095
 5889W        W22736   7.542   1.634   2.129 -0.0107 -0.1468 -0.0455
 5890W        W22737   2.708   5.873   4.986  0.1914  0.3729 -0.0444
 5891W        W22738   4.723   1.679  11.890  0.1570  0.0872  0.3639
 5892W        W22739   0.653   8.863  12.181  0.0018  0.1718  0.0134
 5893W        W22740   4.361  12.169  11.740 -0.2767  0.0482 -0.0423
 5894W        W22741   8.028   0.384   3.064  0.1341 -0.0142  0.1559
 5895W        W22742   0.958  11.712  12.670  0.3469 -0.1759  0.1320
 5896W        W22743  12.080  16.500   3.723  0.3316 -0.2012  0.1373
 5897W        W22744   8.872   2.361  13.897  0.3658  0.1262 -0.0758
 5898W        W22745  17.946   6.708  11.079  0.0538 -0.2235 -0.1337
 5899W        W22746   7.577   2.605  12.317 -0.0257  0.0524 -0.2432
 5900W        W22747   0.465   2.151  11.266 -0.0018  0.0418  0.0124
 5901W        W22748   6.498  17.272  15.571 -0.1772 -0.0585 -0.2978
 5902W        W22749   8.652   5.993  11.956 -0.1695 -0.1311 -0.0181
 5903W        W22750   5.260   7.111   0.001 -0.1451  0.0522  0.1045
 5904W        W22751  15.914  17.927  14.599  0.0057 -0.0891 -0.3293
 5905W        W22752  16.263   4.299  16.243 -0.0050  0.0160 -0.0216
 5906W        W22753  16.752  15.100  16.185  0.1608  0.1971  0.4361
 5907W        W22754  14.655   8.184  11.024 -0.0288  0.0883 -0.2374
 5908W        W22755   9.583  13.653  11.703 -0.1023  0.1177 -0.0260
 5909W        W22756   2.231   7.587  15.710  0.2466 -0.2324 -0.0502
 5910W        W22757  18.006   6.196  16.012  0.1748  0.0858 -0.1719
 5911W        W22758   4.540  18.150   4.828 -0.1618 -0.1397  0.3656
 5912W        W22759  12.426  17.576  14.072 -0.2339 -0.0422  0.1972
 5913W        W22760   8.067   6.025   1.690  0.1291  0.3025 -0.2194
 5914W        W22761   0.279   6.461   4.077 -0.0641 -0.1227 -0.0636
 5915W        W22762  10.980  10.832  14.067 -0.1336 -0.4515 -0.2835
 5916W        W22763   9.249  17.902  13.984 -0.0688 -0.4033 -0.3584
 5917W        W22764  11.392  15.218  13.740  0.1459  0.2324  0.4759
 5918W        W22765   6.004   4.985  13.059  0.1154  0.0348  0.1307
 5919W        W22766   6.602  11.498  12.349 -0.2750  0.1155  0.0149
 5920W        W22767  15.442  12.982   4.755 -0.3213  0.3932  0.3684
 5921W        W22768  10.460  10.981  12.645  0.3102  0.0836  0.1917
 5922W        W22769  10.403   7.260   2.639 -0.0783  0.2288 -0.4958
 5923W        W22770  15.214  18.231   3.256  0.2183  0.0180 -0.0725
 5924W        W22771  13.590   7.456   0.458 -0.3088 -0.5357  0.0795
 5925W        W22772   5.438  14.018  13.649 -0.0378  0.5699 -0.3130
 5926W        W22773  15.220   6.205   5.351 -0.2576 -0.1536 -0.2504
 5927W        W22774  12.337  17.523   4.490  0.0221  0.0729 -0.1693
 5928W        W22775  12.044   3.904  11.674  0.1759  0.7401  0.2633
 5929W        W22776  13.936   8.294   0.514  0.0106 -0.1005  0.3284
 5930W        W22777   7.866   9.764  11.750  0.0870 -0.1325 -0.2902
 5931W        W22778  16.547   8.284  13.323 -0.0604  0.3143  0.0629
 5932W        W22779  15.853  10.577  14.108  0.2130  0.0070  0.0345
 5933W        W22780   6.370   9.543   4.758 -0.0212 -0.4840 -0.0447
 5934W        W22781   0.375   4.658  14.947  0.3659 -0.2198  0.1382
 5935W        W22782  13.191  10.291  11.092 -0.1000  0.1348  0.1101
 5936W        W22783  17.606   0.982  16.221 -0.6597 -0.2803 -0.2048
 5937W        W22784   9.239   7.386  16.179 -0.2273 -0.4298  0.0690
 5938W        W22785  18.394   0.597  13.829 -0.2370 -0.0999  0.0710
 5939W        W22786  12.819   0.336   4.940 -0.1036 -0.3785  0.1520
 5940W        W22787   9.727  18.383  15.161  0.1140 -0.0255 -0.4613
 5941W        W22788   2.101   3.723  10.829  0.0197  0.3604  0.1272
 5942W        W22789  14.178  16.982   1.205 -0.2381 -0.2879  0.2602
 5943W        W22790  17.119  16.012   5.009  0.4448  0.0495  0.1609
 5944W        W22791   4.278   6.572  10.652 -0.5920 -0.0944 -0.0259
 5945W        W22792   6.776  12.398   2.316  0.1511  0.2645  0.0415
 5946W        W22793  11.743  16.896   5.584  0.0342 -0.1385  0.4028
 5947W        W22794  14.932  16.073   1.346 -0.0478 -0.2500  0.1558
 5948W        W22795  12.708   2.884   0.047  0.0439  0.1586 -0.1117
 5949W        W22796   9.646   6.705   4.352 -0.2108 -0.0535 -0.3465
 5950W        W22797  13.221  10.611  14.620 -0.0695 -0.0168 -0.0380
 5951W        W22798   5.609   8.041   1.060 -0.1195 -0.0098  0.2188
 5952W        W22799  13.946  16.922   2.418 -0.0585 -0.2262 -0.1154
 5953W        W22800   3.657   5.361   2.597 -0.3070 -0.0430  0.0225
 5954W        W22801  15.016  17.230   3.961  0.0572 -0.1528 -0.1509
 5955W        W22802  13.279   9.622   0.806  0.0548 -0.1975 -0.2858
 5956W        W22803   3.615   9.634   5.017 -0.0079  0.1402 -0.1123
 5957W        W22804   0.550   3.080  14.691 -0.2466 -0.2151  0.2145
 5958W        W22805  14.431   6.002   4.748 -0.1193 -0.2194 -0.0675
 5959W        W22806  14.177   8.201  12.695 -0.1432 -0.0744  0.1767
 5960W        W22807   6.405  16.953  14.587 -0.1828 -0.1167  0.1437
 5961W        W22808  17.974  15.942   0.188  0.3062 -0.2300 -0.3088
 5962W        W22809  12.871   6.530  12.448  0.0262  0.2169  0.3114
 5963W        W22810   8.450  11.646  12.276 -0.3458 -0.3616 -0.3184
 5964W        W22811  10.667   4.895  11.959  0.0205  0.1626 -0.1004
 5965W        W22812  10.528   8.092   1.926  0.3912  0.0155 -0.1362
 5966W        W22813  17.089   6.653   0.042  0.2210 -0.0035  0.3016
 5967W        W22814   4.243  15.037   6.013 -0.0153  0.0832 -0.0237
 5968W        W22815   5.893   3.851  11.612  0.0610 -0.0154 -0.2952
 5969W        W22816  11.469  18.286   1.342  0.0767 -0.1153  0.0411
 5970W        W22817   9.229  15.842   0.877  0.2272  0.2092  0.0971
 5971W        W22818   2.331  15.481   2.172 -0.0407  0.0284 -0.1251
 5972W        W22819  14.152  17.303   3.352 -0.2301 -0.0387 -0.2036
 5973W        W22820   3.575   1.337   3.296  0.0825  0.1036  0.2080
 5974W        W22821  11.031  17.578  14.239 -0.0196 -0.1072  0.2330
 5975W        W22822  17.470  14.048  13.463  0.0837 -0.2237 -0.0204
 5976W        W22823   6.789   0.843  15.400 -0.0504 -0.0116 -0.1019
 5977W        W22824   2.872   2.318   3.198  0.1437  0.1324  0.1276
 5978W        W22825   5.257   1.188   0.869  0.0413  0.1776 -0.0961
 5979W        W22826   3.326   0.699   0.008  0.1110  0.2378 -0.2909
 5980W        W22827  17.623   2.810   3.776  0.1535  0.2298 -0.2671
 5981W        W22828   8.215  13.357  16.371  0.2260  0.1161  0.0635
 5982W        W22829   2.784   5.869   4.207 -0.2424 -0.2234 -0.3411
 5983W        W22830   0.037  11.079  11.324  0.1034 -0.2446 -0.2127
 5984W        W22831   6.542   1.406   0.940 -0.0984  0.1957 -0.0609
 5985W        W22832  16.586   2.853   1.995 -0.0860  0.1424  0.1724
 5986W        W22833   2.963   1.068   1.031  0.1956  0.2885 -0.2129
 5987W        W22834  11.091   3.062   1.413  0.1074  0.2335 -0.0601
 5988W        W22835  14.133   2.781   4.165 -0.1360  0.3775  0.2344
 5989W        W22836   1.189   5.213  11.709  0.2127 -0.1176 -0.0986
 5990W        W22837  11.768   4.057   5.171 -0.0731  0.2431  0.2345
 5991W        W22838   9.668  10.893  12.418 -0.0866  0.4655  0.1982
 5992W        W22839   0.239  18.273   6.132  0.2548 -0.1319  0.0130
 5993W        W22840  17.118   7.201   2.477 -0.3168 -0.1690 -0.0666
 5994W        W22841   7.831  12.497   1.385 -0.2466 -0.0500 -0.0467
 5995W        W22842  14.318  12.558   4.470  0.1242  0.0409  0.1058
 5996W        W22843  16.992  13.304   2.462  0.1682 -0.0318  0.4766
 5997W        W22844   8.890   2.554   1.186  0.5545  0.0999 -0.0536
 5998W        W22845   4.403   9.565   1.805 -0.1329  0.0194  0.0369
 5999W        W22846   9.507  12.982  14.807  0.3360 -0.3325  0.1061
 6000W        W22847   4.064  15.384   0.519  0.4030 -0.0620  0.2336
 6001W        W22848  13.564  15.210   2.841  0.1335 -0.4474  0.0576
 6002W        W22849   7.076  10.969   4.920 -0.1029 -0.0024 -0.2349
 6003W        W22850  14.196  17.131  13.984 -0.0007  0.0954  0.2251
 6004W        W22851   5.112  12.069  15.486 -0.0552  0.0689 -0.0079
 6005W        W22852   8.991   0.089  15.831  0.0230  0.1607  0.2193
 6006W        W22853  15.811   6.524  16.303  0.1097  0.1621  0.0710
 6007W        W22854  10.619  17.031  12.142 -0.0582 -0.1085  0.1264
 6008W        W22855   9.493  11.220  15.414 -0.2018  0.1020 -0.2617
 6009W        W22856   7.567  12.814  12.063 -0.1288  0.0686 -0.1563
 6010W        W22857   3.563  14.138   2.502 -0.0702  0.1493  0.1853
 6011W        W22858   8.146   2.442  14.406  0.1131 -0.2483 -0.1713
 6012W        W22859   4.855   3.839  13.663 -0.0698  0.0303 -0.0789
 6013W        W22860   8.722  10.093   2.141 -0.0315  0.1201 -0.2658
 6014W        W22861   9.138   4.106  11.186  0.2293 -0.3100 -0.1559
 6015W        W22862   6.861  13.085   3.833 -0.3757 -0.0863  0.2316
 6016W        W22863   1.983   3.740  14.768  0.0741  0.2340 -0.1948
 6017W        W22864  17.484   6.052   1.701  0.3549  0.1182 -0.1395
 6018W        W22865   2.676  15.347   1.865 -0.1941  0.1553  0.2257
 6019W        W22866   6.212   6.661   0.074 -0.2976 -0.0516  0.2939
 6020W        W22867  16.662  11.459   2.215  0.0448 -0.1443  0.3829
 6021W        W22868   3.392   5.519  14.625 -0.1135  0.0187  0.1607
 6022W        W22869   4.346  16.628   0.029 -0.0391 -0.2162 -0.0368
 6023W        W22870   3.528  17.718  15.717 -0.1917  0.0124 -0.1756
 6024W        W22871  10.842   8.933  13.334 -0.1736 -0.0556 -0.2898
 6025W        W22872  12.183   5.263  12.241 -0.1712 -0.1967 -0.0803
 6026W        W22873  11.733   8.994   0.327  0.1879 -0.1232 -0.3017
 6027W        W22874  16.812   7.046  14.967  0.2905 -0.0487 -0.0184
 6028W        W22875   2.212   2.843  15.689 -0.1040 -0.5776 -0.1509
 6029W        W22876   9.218   9.681   2.821 -0.0209 -0.2700  0.0682
 6030W        W22877   1.229   4.691  15.547  0.0367 -0.0175  0.1413
 6031W        W22878  16.477   7.494   0.752  0.1135  0.1426 -0.0347
 6032W        W22879   1.505  10.669   2.806 -0.1311  0.0149  0.2714
 6033W        W22880   8.618  15.996   4.046 -0.0316  0.2770 -0.1896
 6034W        W22881   3.303   9.261   4.855  0.0402 -0.0093  0.0930
 6035W        W22882  10.081  17.197   0.283  0.3380 -0.0979 -0.0068
 6036W        W22883  15.397   4.998   1.568  0.2262  0.1885 -0.0908
 6037W        W22884  15.327   1.736   4.458  0.2132  0.2943 -0.0321
 6038W        W22885  17.378  16.783   2.663  0.3079  0.3084 -0.0037
 6039W        W22886   1.247   9.205  11.476 -0.0705 -0.0415  0.1603
 6040W        W22887   2.346  17.401   4.876 -0.0913 -0.1810  0.4620
 6041W        W22888   0.081  18.108  14.458  0.2132  0.1849  0.1830
 6042W        W22889   9.838  11.673  12.693  0.1663  0.0324 -0.2366
 6043W        W22890   3.851   7.562  14.539 -0.1773  0.2398 -0.0923
 6044W        W22891  10.429  18.164   0.417 -0.0954 -0.1278  0.3351
 6045W        W22892  13.822   3.316  11.294 -0.1222 -0.4005  0.1928
 6046W        W22893   5.968   6.131  15.562  0.2237 -0.3237 -0.0634
 6047W        W22894   8.870  12.069  15.514 -0.1086 -0.1785 -0.1750
 6048W        W22895  17.101   6.465  11.523  0.0970  0.2124  0.0894
 6049W        W22896   4.843  13.200   3.390 -0.1312  0.1645 -0.2732
 6050W        W22897   2.108  10.847  16.368  0.0203 -0.3109  0.1630
 6051W        W22898   6.680  11.531  14.165 -0.0418  0.1049  0.1864
 6052W        W22899   6.278   1.033   1.231 -0.0348 -0.1808  0.1658
 6053W        W22900  14.176  10.737   1.976  0.0881 -0.0540 -0.0023
 6054W        W22901   5.879   0.248   5.134  0.1187  0.0166 -0.1205
 6055W        W22902   5.107   4.776   3.450 -0.0336  0.3519  0.3459
 6056W        W22903   4.782   3.679   0.967  0.1630  0.1717  0.2279
 6057W        W22904   5.789  10.856  15.225 -0.1065  0.2607 -0.2283
 6058W        W22905  12.141   3.737   5.119  0.3571 -0.0738 -0.1963
 6059W        W22906   6.543  11.626   2.407 -0.2317 -0.2416 -0.1885
 6060W        W22907   1.318   1.926  14.059  0.4437 -0.2604 -0.0148
 6061W        W22908  10.517   7.072  15.170  0.3234 -0.1383 -0.0620
 6062W        W22909   7.486   9.421  11.551  0.4948  0.2269 -0.1808
 6063W        W22910   5.539  15.544   2.989  0.0226  0.0779 -0.0703
 6064W        W22911  10.302   0.886  11.825  0.0302 -0.1418  0.1225
 6065W        W22912  12.015   6.860   3.652 -0.0268  0.0955  0.2168
 6066W        W22913   6.461   5.825  12.161 -0.0171 -0.1707  0.1137
 6067W        W22914   0.217  14.460  11.511 -0.2862  0.2824 -0.0537
 6068W        W22915   3.243  15.926   0.644 -0.1279  0.4328  0.0179
 6069W        W22916   4.069  18.191   4.714  0.2313 -0.2377 -0.1163
 6070W        W22917  11.296  13.315   3.731 -0.2245 -0.0680 -0.1807
 6071W        W22918  18.340  12.510  16.140  0.1791  0.3643  0.1571
 6072W        W22919   4.063   0.400   2.942 -0.3041  0.3290  0.0442
 6073W        W22920  11.540  15.724  15.369  0.1392 -0.2252 -0.1040
 6074W        W22921  16.341   7.426  12.257 -0.3315  0.3943 -0.2304
 6075W        W22922   7.146   2.443   5.677  0.0285 -0.1489  0.0303
 6076W        W22923  16.833   3.457  15.178  0.2419  0.0311 -0.1823
 6077W        W22924  11.837  11.048  13.818 -0.1281  0.0242  0.4910
 6078W        W22925   2.551   4.441  11.127  0.0014  0.1857 -0.1244
 6079W        W22926   3.233   9.461   3.866 -0.2398 -0.0806 -0.1197
 6080W        W22927   7.548  14.819   0.953  0.1187  0.3872  0.1655
 6081W        W22928  12.357   5.307  15.631  0.2443  0.1882 -0.0575
 6082W        W22929   1.866  10.901   0.431  0.1536 -0.0131  0.0906
 6083W        W22930   4.352   3.152  12.923  0.0302  0.0572  0.1305
 6084W        W22931  14.904  15.279  11.627 -0.3019 -0.2002  0.2892
 6085W        W22932   9.142   0.735   2.416 -0.0535 -0.0765  0.0377
 6086W        W22933  12.388  14.169  12.070 -0.1545  0.2159  0.1278
 6087W        W22934   6.987   8.514  12.487 -0.3196  0.0919 -0.2575
 6088W        W22935  16.641   3.207   0.941 -0.1111  0.3596  0.4127
 6089W        W22936   5.433   1.734  12.018 -0.0845  0.0719  0.2883
 6090W        W22937   6.522  16.694  11.590 -0.0201  0.3549  0.1908
 6091W        W22938  10.286  10.241   3.741  0.1707  0.1178 -0.0145
 6092W        W22939   2.327  11.421  14.601  0.0387 -0.0994  0.0518
 6093W        W22940  13.372   4.092  15.844 -0.0423  0.0265  0.1256
 6094W        W22941  11.199   5.585  15.776 -0.0951  0.0889  0.2243
 6095W        W22942   8.185   8.486  16.228 -0.7084 -0.0131  0.0340
 6096W        W22943   2.322   9.944   1.171  0.1683  0.1853  0.0168
 6097W        W22944  11.619   1.246  14.386 -0.2877 -0.3032  0.0453
 6098W        W22945   7.950  11.735   0.511  0.1055  0.1589 -0.2906
 6099W        W22946  16.029  10.349   0.804  0.0727 -0.2267 -0.0637
 6100W        W22947   7.842   5.964   4.681 -0.1731  0.0071 -0.1405
 6101W        W22948  16.649   4.095   4.175  0.1615  0.1095 -0.0493
 6102W        W22949  15.138  17.190  13.492 -0.0983 -0.0165  0.0529
 6103W        W22950   2.971  12.058   4.356 -0.1032 -0.1781 -0.2203
 6104W        W22951  11.736  11.746  16.008 -0.3657 -0.3000  0.1661
 6105W        W22952  14.406   2.552   5.477  0.1134 -0.1136  0.2809
 6106W        W22953   6.923   1.028   0.360  0.1419 -0.0409 -0.0357
 6107W        W22954  17.076   9.251  16.035 -0.3186  0.1494  0.0654
 6108W        W22955  10.049   8.824  14.296  0.3733  0.1266 -0.1477
 6109W        W22956   7.155   6.824  14.436 -0.4940  0.1221 -0.0584
 6110W        W22957   3.983   2.546  15.538 -0.1333 -0.4375  0.1195
 6111W        W22958   3.492   7.359   1.983 -0.0290  0.5210  0.0375
 6112W        W22959   3.591  10.030   3.860 -0.1161  0.1596 -0.0684
 6113W        W22960   6.245   8.625   0.283  0.1267  0.4419 -0.2996
 6114W        W22961  13.492  13.860  13.036  0.2473  0.1227 -0.0695
 6115W        W22962  15.031   5.771  13.726 -0.0495 -0.0929  0.0610
 6116W        W22963   1.980  14.887   2.688 -0.1732  0.1857 -0.1827
 6117W        W22964  15.364   6.741  16.357  0.2641 -0.1004 -0.3856
 6118W        W22965   1.578   6.510  10.469 -0.2136 -0.0691 -0.0351
 6119W        W22966   5.655   2.194   5.836  0.0322 -0.1991  0.0437
 6120W        W22967  17.036  13.272   1.895  0.0002  0.1895 -0.2822
 6121W        W22968  13.857   7.748   0.756  0.0406  0.2050 -0.0472
 6122W        W22969   4.501   2.612  14.915 -0.0995 -0.1640  0.0494
 6123W        W22970   0.632   7.625   3.796 -0.1256  0.4302  0.2203
 6124W        W22971  17.993   3.145   3.468 -0.0406  0.0874 -0.4150
 6125W        W22972   5.503  15.026   2.864  0.1802  0.0917  0.3010
 6126W        W22973   7.603  17.056  14.735 -0.2225 -0.0014  0.2215
 6127W        W22974   7.596  13.808   2.248 -0.1672  0.3984 -0.0589
 6128W        W22975  15.383  13.209   1.662  0.1091 -0.0391  0.0554
 6129W        W22976  17.613  12.929   3.789  0.0413 -0.0338  0.1111
 6130W        W22977  12.094  13.559  11.979 -0.1038  0.1653  0.0862
 6131W        W22978   8.083   8.955   2.526 -0.0684  0.2633 -0.1489
 6132W        W22979   4.367  14.121  13.073  0.2929 -0.0184 -0.0392
 6133W        W22980  10.526  16.833   2.106 -0.0679  0.1130  0.2387
 6134W        W22981  14.363   5.512  12.050 -0.0010  0.2147  0.0443
 6135W        W22982  16.351   0.229   4.919  0.4029 -0.0890  0.1637
 6136W        W22983   0.550   8.084  13.383 -0.2308 -0.0046  0.2643
 6137W        W22984   4.653  16.305   5.387 -0.0858  0.0392  0.2533
 6138W        W22985  12.446  12.134  15.801  0.2049  0.1837  0.0569
 6139W        W22986   2.776   6.211  15.582 -0.0422  0.0699  0.2383
 6140W        W22987  13.808   2.999  10.850 -0.0368  0.1961 -0.3320
 6141W        W22988  14.997  14.106  15.506 -0.0387 -0.1733 -0.0843
 6142W        W22989  15.798  16.717   1.082  0.0417  0.0021  0.1848
 6143W        W22990   9.255   2.444  12.215 -0.0103 -0.1973  0.1182
 6144W        W22991  17.266  14.481  13.058 -0.0345 -0.1057 -0.0482
 6145W        W22992  16.117   4.943  14.133  0.0969 -0.3294  0.1542
 6146W        W22993  15.758  10.466  16.239 -0.1257  0.1985  0.1184
 6147W        W22994  17.580  10.936  11.861 -0.1872 -0.0304 -0.1162
 6148W        W22995  17.475   7.097  10.180  0.2314  0.1685 -0.1948
 6149W        W22996   1.249   1.418  13.956 -0.2330 -0.0807  0.3381
 6150W        W22997   4.667   0.668  15.625  0.4716 -0.0141 -0.1437
 6151W        W22998   0.772  13.365  15.436 -0.2538  0.3541  0.2280
 6152W        W22999   7.271   4.364  14.684 -0.0685  0.1188  0.1354
 6153W        W23000   8.266   9.983   3.215 -0.0042 -0.1522 -0.2411
 6154W        W23001   4.320  15.655   4.608 -0.0169 -0.3127  0.0110
 6155W        W23002   7.595  13.468   3.605  0.0410  0.2787  0.0921
 6156W        W23003  12.732  12.823   0.786  0.0895 -0.0385 -0.0184
 6157W        W23004   8.564   5.563  16.309  0.0634  0.3098  0.2474
 6158W        W23005  14.510  18.281  12.241  0.0439 -0.0495  0.3580
 6159W        W23006   8.931   0.126   1.829 -0.1168 -0.0905  0.0844
 6160W        W23007  13.469  13.404   0.015  0.1543 -0.0920  0.2684
 6161W        W23008  11.309  15.275   3.246 -0.1299  0.1053 -0.1175
 6162W        W23009   8.265  11.004  11.698 -0.1216 -0.2982  0.2920
 6163W        W23010  18.025  15.298  14.197 -0.0591 -0.1456  0.1734
 6164W        W23011   5.236   1.697   0.863  0.0607 -0.0319  0.0452
 6165W        W23012   8.392   2.878  15.294 -0.0629 -0.1913  0.0449
 6166W        W23013   0.767   2.013  11.609  0.0206 -0.1028  0.3008
 6167W        W23014  10.793   2.098   4.504 -0.0669  0.3775 -0.0776
 6168W        W23015  17.733  11.888  12.711  0.3613 -0.0538  0.0817
 6169W        W23016   9.271   6.476   2.160 -0.1189 -0.2503 -0.0412
 6170W        W23017   9.599  12.978   3.167  0.0205 -0.2147 -0.1477
 6171W        W23018   7.468  16.774   2.888 -0.3581  0.2577 -0.0590
 6172W        W23019  15.917   6.837  11.148 -0.1036 -0.0539  0.1591
 6173W        W23020  18.145  13.822   2.078 -0.0530  0.0977 -0.2778
 6174W        W23021   0.754   7.022   3.571 -0.0881 -0.1029  0.0711
 6175W        W23022  11.453  11.663   3.239  0.1867 -0.0783 -0.0102
 6176W        W23023   5.447   6.136   2.244  0.2394  0.2576  0.2602
 6177W        W23024   7.522  15.373  14.049 -0.2756  0.3837  0.1404
 6178W        W23025   8.788   4.914   3.395  0.0683  0.2550  0.0406
 6179W        W23026  10.417  10.003   5.262 -0.1142 -0.1985  0.2510
 6180W        W23027   8.777  13.015   0.407  0.3235  0.3543  0.0057
 6181W        W23028   8.755  13.522  12.586  0.1386  0.0528  0.0389
 6182W        W23029   8.446   4.069   1.373 -0.0810 -0.2596 -0.5378
 6183W        W23030   7.400  12.167  12.684  0.1050 -0.1099 -0.2441
 6184W        W23031  17.945   9.137  10.627 -0.0490 -0.1026  0.1830
 6185W        W23032   6.556  11.974  12.044 -0.0446  0.0244 -0.2619
 6186W        W23033  15.300  12.486   1.902  0.1589  0.0646 -0.1942
 6187W        W23034  16.276  17.508   3.750 -0.0630 -0.3133  0.2042
 6188W        W23035  11.155   1.668  11.153 -0.0873  0.1912  0.0404
 6189W        W23036  15.196   8.350   2.521 -0.1665 -0.0761  0.2456
 6190W        W23037   2.012   6.248   2.720 -0.0562  0.1217 -0.0426
 6191W        W23038   5.710   4.943   2.803  0.1707 -0.0446  0.1807
 6192W        W23039   3.739   1.853   0.631 -0.2540 -0.0148 -0.1981
 6193W        W23040   8.123  16.292  13.604 -0.1333 -0.2021 -0.0498
 6194W        W23041  14.305   9.680   3.948 -0.0922 -0.2228 -0.0633
 6195W        W23042  15.102  11.146   1.579  0.0765 -0.4216 -0.0146
 6196W        W23043   1.821   4.535  11.807  0.3403  0.1968 -0.1636
 6197W        W23044  14.689  12.126   0.171  0.1547  0.1804 -0.1806
 6198W        W23045  13.700  11.082  13.668  0.0557 -0.2180  0.1534
 6199W        W23046   9.629  12.682  12.561  0.0130 -0.0123  0.0280
 6200W        W23047  14.589   6.876  10.110  0.0276  0.4812 -0.0924
 6201W        W23048   4.533   9.684  12.062  0.1301 -0.3506 -0.1616
 6202W        W23049   4.403   4.852   2.917  0.0092  0.1887 -0.1367
 6203W        W23050  15.920   2.802   0.126  0.1588  0.0099 -0.2242
 6204W        W23051  13.885   4.424   2.646  0.1372 -0.0167 -0.2346
 6205W        W23052  14.348  15.895  11.982 -0.0806  0.0102 -0.0335
 6206W        W23053  18.029   5.032   4.470 -0.0399 -0.0359 -0.1513
 6207W        W23054   2.765   6.905  14.971 -0.1830 -0.4157  0.2736
 6208W        W23055   3.682  15.617  14.376  0.0184 -0.1303  0.1031
 6209W        W23056   1.032   3.275   0.350 -0.0389 -0.0562 -0.1014
 6210W        W23057   6.279  15.944   2.977  0.1126 -0.1804  0.0599
 6211W        W23058  12.761   6.546  11.165 -0.1591 -0.2245  0.2735
 6212W        W23059   4.522   7.078  13.384  0.1051 -0.0062  0.0327
 6213W        W23060   1.367  11.976   3.008 -0.1104  0.1061  0.0254
 6214W        W23061  17.814   6.963  12.528 -0.3928 -0.0355  0.3341
 6215W        W23062   2.257  11.111   2.707 -0.2156  0.1721  0.2770
 6216W        W23063   8.103  14.786   1.672 -0.0242 -0.0512  0.0633
 6217W        W23064  15.619   5.674   2.925  0.0839  0.1588 -0.0825
 6218W        W23065  11.221  16.105   3.645 -0.0053  0.1366  0.0109
 6219W        W23066  11.590   4.500   1.917  0.1819  0.1307 -0.0302
 6220W        W23067   5.639  17.851  15.919 -0.0232  0.0454 -0.0480
 6221W        W23068   1.088   8.160   0.688  0.0431 -0.0064  0.0396
 6222W        W23069  17.431   9.298  14.329 -0.0550 -0.0493 -0.1526
 6223W        W23070   5.641   1.065   3.489  0.2085 -0.2386  0.1048
 6224W        W23071  13.669  15.881   5.454  0.2016  0.1335 -0.0395
 6225W        W23072  10.893   9.150   1.547  0.1449 -0.2640  0.1527
 6226W        W23073   8.769   1.093  13.977 -0.1441 -0.2478 -0.2898
 6227W        W23074  14.768  16.065  12.476  0.0428 -0.0177 -0.1257
 6228W        W23075   6.961  12.500  14.498  0.0462  0.1485  0.1354
 6229W        W23076   9.635  10.783   0.172  0.0110  0.2898  0.2757
 6230W        W23077   8.728   5.653   0.395  0.3751  0.3847 -0.0715
 6231W        W23078   5.483   5.824  12.593 -0.2796 -0.2839  0.1691
 6232W        W23079  16.134   8.547  14.512 -0.2922  0.3584  0.0472
 6233W        W23080  10.812   7.412  12.496  0.1005 -0.0123  0.0976
 6234W        W23081   6.580  12.888  15.962 -0.1175  0.3261 -0.2907
 6235W        W23082  16.346   8.393  12.077  0.1346 -0.3626 -0.0873
 6236W        W23083   0.901   9.115   4.052  0.3121  0.0083 -0.2448
 6237W        W23084  16.284   1.510   1.757 -0.0113  0.3084  0.0402
 6238W        W23085  14.854  10.892  14.016  0.3711  0.0264  0.0384
 6239W        W23086   7.909  16.469  13.204 -0.0336  0.0602 -0.0616
 6240W        W23087  15.505  16.091   6.372 -0.2395  0.0029 -0.2746
 6241W        W23088   2.815   3.428   3.691 -0.2770  0.2663  0.0229
 6242W        W23089  10.761  13.185   0.216  0.1706  0.0184 -0.0766
 6243W        W23090  12.209  12.603   4.590 -0.1342  0.2030  0.1419
 6244W        W23091  12.359   9.778  13.134 -0.1087  0.0130  0.2285
 6245W        W23092  17.853   7.067   3.785 -0.0314  0.2361 -0.2234
 6246W        W23093  14.175   2.696  13.356  0.0439 -0.4160 -0.3193
 6247W        W23094   2.466   6.352   3.351  0.0308 -0.0798 -0.1380
 6248W        W23095   0.591  14.167  14.259 -0.2882 -0.3143  0.3323
 6249W        W23096   4.450   8.551  12.102  0.2202  0.0101  0.0985
 6250W        W23097   2.390   5.251   1.584  0.0181  0.4170  0.2802
 6251W        W23098   2.550   6.603  12.782  0.1054 -0.0244 -0.2582
 6252W        W23099   5.348   5.993   4.583 -0.0126 -0.1953  0.1118
 6253W        W23100   0.419  15.444   0.166 -0.1515 -0.0729  0.0239
 6254W        W23101   3.787   0.415   0.054  0.4120 -0.1905  0.2390
 6255W        W23102   6.371  11.385  14.628  0.0000  0.0552  0.1440
 6256W        W23103   6.060   6.484  13.379  0.0990  0.1896  0.0412
 6257W        W23104  17.451  10.931   0.303 -0.1692  0.6794 -0.1510
 6258W        W23105  15.810   8.535  12.302  0.1836 -0.2158  0.0065
 6259W        W23106  11.686   8.739  13.762  0.2995 -0.1545  0.0154
 6260W        W23107  14.156   0.628  15.095  0.1180 -0.2099 -0.1970
 6261W        W23108  16.111   7.888   3.499 -0.1475  0.0636  0.2076
 6262W        W23109   8.370   4.243  12.832  0.1304 -0.1582  0.1560
 6263W        W23110  11.707  10.704  14.482 -0.3919 -0.2045  0.4056
 6264W        W23111   5.513  17.383   3.722 -0.0610 -0.0758  0.1891
 6265W        W23112  17.494   5.737  14.310 -0.2524 -0.0802 -0.1221
 6266W        W23113   0.518   1.982   4.455 -0.0613 -0.1083 -0.2736
 6267W        W23114   2.030  11.114   3.427 -0.1100  0.0033  0.0957
 6268W        W23115  17.042   6.625  15.931 -0.1567 -0.2140  0.1422
 6269W        W23116   6.529  10.207  15.069 -0.1251  0.1079  0.0514
 6270W        W23117   8.730   0.572   3.793 -0.2304 -0.0071 -0.0398
 6271W        W23118  16.554  12.754  12.868  0.0770 -0.0171 -0.0643
 6272W        W23119   3.206   0.084  13.653 -0.0361 -0.1841  0.1775
 6273W        W23120  12.796   1.568  14.169  0.0450 -0.0165 -0.1733
 6274W        W23121  15.072   2.150  12.079 -0.0924 -0.6194 -0.4128
 6275W        W23122   6.225  13.681   2.618 -0.3578  0.2567 -0.1664
 6276W        W23123  14.937   7.502  13.765  0.0490 -0.3826 -0.3943
 6277W        W23124  16.662   3.547   3.017 -0.0274 -0.2802 -0.0905
 6278W        W23125   7.246  13.545   5.478 -0.0650  0.0859  0.2595
 6279W        W23126   7.487   0.600   1.141 -0.3245 -0.3262  0.4013
 6280W        W23127  16.325  14.580  11.872  0.0304 -0.2138  0.1506
 6281W        W23128  12.294   0.944  15.123 -0.3054  0.4175 -0.1624
 6282W        W23129  10.188   7.959   0.805  0.0080  0.0638 -0.0722
 6283W        W23130  17.470  16.177   2.580  0.2775  0.0628  0.1927
 6284W        W23131   5.425  11.456   1.233 -0.1085  0.1329 -0.2432
 6285W        W23132   1.397  16.658   4.090  0.4245 -0.1417 -0.4252
 6286W        W23133   6.197   9.857   2.944  0.0797 -0.0284 -0.0312
 6287W        W23134   4.473   5.706  15.903 -0.0655 -0.0888 -0.1382
 6288W        W23135  12.258  11.292   0.055 -0.1312  0.3035 -0.0064
 6289W        W23136  17.808   4.879   3.981 -0.3256  0.0005  0.2854
 6290W        W23137  12.924   7.642  12.970 -0.0043  0.0477  0.1215
 6291W        W23138   8.725   2.435  15.254 -0.0734 -0.2953 -0.1091
 6292W        W23139   8.561   1.179   3.107  0.0559 -0.0864 -0.1103
 6293W        W23140  10.235  16.756   0.801 -0.0931  0.1504 -0.2281
 6294W        W23141   8.804   6.664  14.644  0.0248 -0.1567 -0.3089
 6295W        W23142   6.453   7.645  14.430 -0.0464 -0.1845 -0.0630
 6296W        W23143   4.443  15.560   2.877 -0.1498  0.0114  0.0592
 6297W        W23144   1.279   7.513   0.501 -0.2647  0.0944  0.1605
 6298W        W23145   1.742   6.561  15.548 -0.1087 -0.0390 -0.0699
 6299W        W23146  10.795  17.464  11.631 -0.0148 -0.0430 -0.2135
 6300W        W23147   7.626  14.179  14.072  0.4863 -0.1291 -0.1356
 6301W        W23148   4.247   3.333   2.019  0.0591 -0.1906  0.2181
 6302W        W23149   8.462   7.025   0.970 -0.1041  0.0281 -0.5071
 6303W        W23150   8.216   2.304  11.150 -0.1493 -0.0527  0.3101
 6304W        W23151  13.667   4.909  13.074 -0.0089 -0.1926 -0.1044
 6305W        W23152   8.374  14.103  13.237  0.4585 -0.4049 -0.1152
 6306W        W23153  15.411   5.268  14.952 -0.0257  0.1927  0.1841
 6307W        W23154   7.000   0.397  15.769  0.3156 -0.3070 -0.0313
 6308W        W23155   3.796   8.522   4.797 -0.0283 -0.2859  0.1503
 6309W        W23156  13.070   7.617  13.472  0.0730  0.1829 -0.0220
 6310W        W23157   4.716   5.124  12.930  0.1909  0.1456  0.2346
 6311W        W23158  14.802  11.519  15.964  0.1300  0.3334 -0.0302
 6312W        W23159   0.882   7.271   1.126  0.0245 -0.0383 -0.3211
 6313W        W23160  12.113   6.593   2.013 -0.2177  0.0774  0.1314
 6314W        W23161   6.126  10.006   4.546 -0.1017 -0.0031 -0.0350
 6315W        W23162  12.370  11.752  14.398 -0.0699 -0.1264  0.0526
 6316W        W23163  14.824   7.171  14.644 -0.1811 -0.0025  0.2363
 6317W        W23164   5.016   5.255   3.556 -0.0468 -0.1188  0.2614
 6318W        W23165   6.542   7.639   5.187  0.0983 -0.0969 -0.0677
 6319W        W23166   2.488   2.594   3.288 -0.0072  0.0091  0.0525
 6320W        W23167   6.694  17.532   3.561  0.0501  0.3975 -0.1285
 6321W        W23168  12.846   3.734  11.988 -0.0763  0.2395  0.0346
 6322W        W23169  10.282   1.246   4.270 -0.2119 -0.2436  0.1242
 6323W        W23170   3.817   0.583   1.529 -0.1102 -0.2475 -0.1420
 6324W        W23171   9.753   1.762  11.027 -0.0426  0.0211 -0.3533
 6325W        W23172  13.344   7.633   0.883  0.1029 -0.0432  0.1885
 6326W        W23173  12.269  17.972  11.466  0.3548  0.0880  0.0937
 6327W        W23174   8.677   8.551   2.132  0.0844 -0.3172 -0.2215
 6328W        W23175   2.606  10.415  13.799  0.2306 -0.2705  0.3008
 6329W        W23176   2.309   4.220   4.693 -0.0807 -0.1009  0.2039
 6330W        W23177  12.376  17.581   3.340  0.2550  0.0530  0.0957
 6331W        W23178  11.594   0.684  16.270  0.0070 -0.2349 -0.1535
 6332W        W23179   5.866  10.362  11.901 -0.2991 -0.0079 -0.0226
 6333W        W23180  17.724   3.560   2.280  0.2178 -0.0470  0.2918
 6334W        W23181   8.251   5.486   0.307  0.0737 -0.0310  0.2388
 6335W        W23182   8.900   3.020  16.096 -0.2789  0.0150 -0.0323
 6336W        W23183   7.287   9.071   4.669  0.1500  0.0145  0.3316
 6337W        W23184   7.926   6.859  11.384  0.1071 -0.1205 -0.0388
 6338W        W23185   6.835   6.640   4.802  0.0597  0.0128  0.2716
 6339W        W23186   8.681   1.469   4.474 -0.4144 -0.2661 -0.4604
 6340W        W23187   0.274   3.760   0.552  0.2000 -0.0698 -0.0630
 6341W        W23188   6.179   7.479   3.298  0.1774  0.1152 -0.1101
 6342W        W23189   8.388   9.698   4.218 -0.2258  0.3285 -0.0087
 6343W        W23190   6.164   9.935   5.564 -0.1795  0.2347  0.1531
 6344W        W23191  10.275   5.801   3.497  0.1677  0.3428 -0.0624
 6345W        W23192   3.821   2.366   2.460  0.0297 -0.0867 -0.0311
 6346W        W23193  13.232   1.047  12.046  0.1658  0.1517 -0.1114
 6347W        W23194   0.649  12.570   1.541 -0.1981 -0.0306 -0.2456
 6348W        W23195  11.045  15.093  14.074  0.0639  0.0802 -0.0947
 6349W        W23196  13.740  15.116   3.298  0.4770 -0.0656  0.1572
 6350W        W23197  13.527   1.414  15.279  0.4092  0.0813  0.0938
 6351W        W23198   9.457   6.703  13.298  0.3568 -0.1334  0.0495
 6352W        W23199   2.621  11.703  11.797  0.3256 -0.0846  0.0216
 6353W        W23200   5.845  15.221   1.546  0.0774  0.2893 -0.2751
 6354W        W23201   8.124  10.152   2.233 -0.0578 -0.0446 -0.1818
 6355W        W23202  12.278   6.624   1.544  0.1347  0.1885  0.0504
 6356W        W23203  17.683   7.048  14.824 -0.1603 -0.2372  0.1922
 6357W        W23204   2.979  15.682   2.946 -0.0801 -0.0508 -0.1493
 6358W        W23205  15.688  16.105  12.981 -0.0613  0.2290  0.1016
 6359W        W23206   2.685   1.255   3.116 -0.1732  0.3106 -0.0257
 6360W        W23207   7.975   9.680  15.856  0.2010  0.0946 -0.1577
 6361W        W23208   6.709  11.764   5.402 -0.2244 -0.0041  0.0875
 6362W        W23209  15.162  12.032   4.701 -0.1133  0.1207  0.0855
 6363W        W23210  15.793  10.017   1.560 -0.2310 -0.0880 -0.2586
 6364W        W23211   9.373   1.981  13.109  0.0668  0.1373 -0.3277
 6365W        W23212  14.201   6.577   3.565 -0.0595  0.0469 -0.2313
 6366W        W23213   9.153   3.620   3.796  0.1821 -0.2741 -0.2431
 6367W        W23214   4.305  15.096  13.562 -0.0761 -0.3229  0.3755
 6368W        W23215   0.388   7.861   2.854  0.1555 -0.0179  0.2046
 6369W        W23216   2.152  10.543  12.500 -0.1471  0.1350  0.0887
 6370W        W23217  12.181   1.708   0.337  0.2173 -0.1529  0.0443
 6371W        W23218  17.565  14.419  14.873 -0.1497 -0.2637 -0.2597
 6372W        W23219  17.204   7.551  16.351  0.0082 -0.0335 -0.0131
 6373W        W23220  10.089   0.686  15.037  0.1350 -0.0536 -0.1489
 6374W        W23221  11.252   3.452   3.677  0.2647 -0.3218  0.2826
 6375W        W23222   0.995   0.294  10.750 -0.3475 -0.0375  0.0558
 6376W        W23223   9.191   0.997  14.278 -0.0214 -0.1243 -0.0632
 6377W        W23224  16.804   4.554   2.762  0.1014 -0.0115 -0.1871
 6378W        W23225  12.477  16.218   3.020  0.0187  0.1235 -0.1071
 6379W        W23226  14.732  14.617  12.569  0.1598 -0.0783 -0.0432
 6380W        W23227  11.314   2.029   3.151 -0.1176  0.1240  0.0513
 6381W        W23228  18.134  15.480  13.685 -0.1705 -0.3442 -0.1676
 6382W        W23229   3.989   4.932   3.869  0.1991  0.3107  0.2894
 6383W        W23230   3.865  13.680   4.947 -0.3133  0.0232  0.1333
 6384W        W23231   7.346  16.423   1.254  0.0498  0.0229 -0.0262
 6385W        W23232  13.340   4.561   2.535  0.1312  0.2765  0.0915
 6386W        W23233   0.739   2.456   3.417 -0.1415 -0.1959  0.3474
 6387W        W23234   0.351  11.804   3.289 -0.4405  0.0636 -0.0230
 6388W        W23235   9.591  12.632  11.955 -0.0212  0.0554 -0.1610
 6389W        W23236  16.717   1.533  16.063  0.0873  0.2530 -0.1414
 6390W        W23237  11.298   4.083  14.011  0.1462 -0.0951  0.1838
 6391W        W23238   7.972  13.000  11.773  0.2763 -0.1808 -0.0723
 6392W        W23239  12.733  17.849  13.081  0.0493  0.2959 -0.1144
 6393W        W23240   7.982   5.633  12.777 -0.4829  0.2333  0.2546
 6394W        W23241  11.973   0.216   1.488  0.3326  0.1923  0.3150
 6395W        W23242  14.573   9.023  15.519 -0.2364  0.1974  0.0186
 6396W        W23243   9.264   7.584   2.475  0.1943  0.0566 -0.0197
 6397W        W23244   1.296   3.859  15.540 -0.1012  0.1892 -0.1893
 6398W        W23245   0.499   7.230   2.083 -0.3213  0.0475  0.1498
 6399W        W23246  15.097  11.629   1.391  0.0523 -0.0611  0.2103
 6400W        W23247   0.869  17.308  16.198 -0.0914 -0.0079  0.0614
 6401W        W23248   9.858   7.893   1.703 -0.1495  0.1575  0.1221
 6402W        W23249  12.215  11.586  15.786  0.0234  0.1465  0.0832
 6403W        W23250   1.969  15.184   3.573  0.1144 -0.2329  0.2858
 6404W        W23251   7.951  12.485  11.873  0.0552  0.1451 -0.2275
 6405W        W23252  16.117  16.018  13.287 -0.1337  0.1701 -0.3773
 6406W        W23253  18.009   5.086  14.750 -0.3273  0.3504  0.1386
 6407W        W23254  17.343  10.607  11.566 -0.1320 -0.0812  0.1989
 6408W        W23255   8.984   1.078   5.588 -0.0382  0.0680 -0.3376
 6409W        W23256   9.299  10.275   0.198  0.1227  0.3156  0.0263
 6410W        W23257  16.755  12.609  15.147  0.0088 -0.0028  0.0193
 6411W        W23258  17.307  13.044   0.685  0.0366  0.0147 -0.2043
 6412W        W23259  16.900  18.000   4.968 -0.1118 -0.0176  0.2332
 6413W        W23260   9.022   4.643  14.405 -0.0541  0.2551 -0.0238
 6414W        W23261   1.067  10.880   5.078  0.1048 -0.0257 -0.0121
 6415W        W23262   7.203  15.370  11.947  0.1567  0.3930  0.3387
 6416W        W23263  17.988   2.350   4.559 -0.0759 -0.0553 -0.0813
 6417W        W23264   7.334  13.254   5.048 -0.1645 -0.2235  0.1034
 6418W        W23265   0.704  10.440   4.938  0.2906  0.0459  0.0567
 6419W        W23266  11.829  14.238  14.108  0.2523 -0.1883 -0.0885
 6420W        W23267   0.898   4.556  15.169 -0.1282  0.2305  0.1179
 6421W        W23268   7.518   3.455   0.993 -0.0668 -0.4874 -0.2361
 6422W        W23269  10.442   7.742   3.019 -0.1954 -0.2345  0.4164
 6423W        W23270   5.151  14.617  11.867 -0.0526 -0.1847 -0.6907
 6424W        W23271  15.039   6.423   3.397 -0.4267 -0.1895 -0.1238
 6425W        W23272   3.516   4.978   4.190  0.2626  0.0154 -0.1824
 6426W        W23273  10.170   9.291   0.771 -0.2875 -0.2191 -0.2217
 6427W        W23274   6.115   3.270  14.225  0.1687 -0.2109  0.0612
 6428W        W23275  12.511   1.490  13.234 -0.1584  0.1528  0.0309
 6429W        W23276   9.609   0.371  12.118 -0.1124  0.2917  0.1633
 6430W        W23277   5.669   4.486  12.316  0.0460  0.2865 -0.2207
 6431W        W23278   4.448   8.803  15.655 -0.2688 -0.0128  0.1170
 6432W        W23279  13.316   6.422  13.663  0.0206  0.0726  0.3390
 6433W        W23280  15.813  15.533  14.976 -0.2853 -0.0752 -0.1296
 6434W        W23281   5.695  17.791  12.388  0.0609  0.0824 -0.2347
 6435W        W23282  15.395   3.473  13.206  0.1936  0.0157  0.2185
 6436W        W23283  15.247   2.651   1.781 -0.5148  0.1688 -0.3833
 6437W        W23284   2.113  14.705   3.429 -0.0065 -0.0667 -0.1446
 6438W        W23285  11.326  13.141  12.972 -0.1081  0.4043  0.1410
 6439W        W23286   1.879   8.505  12.136 -0.0237  0.1299 -0.1576
 6440W        W23287   6.294   1.653   3.276  0.1619 -0.2136  0.4138
 6441W        W23288   2.156   3.438  12.248  0.0517  0.2763  0.1954
 6442W        W23289   5.990   2.648   4.608 -0.2164 -0.0068 -0.1148
 6443W        W23290  10.346  11.766   4.854  0.1723  0.2375 -0.1216
 6444W        W23291  16.443  17.040   3.604  0.3490 -0.1178 -0.1124
 6445W        W23292  14.977   6.964  12.308  0.1955 -0.1907  0.2399
 6446W        W23293  14.670   9.236   5.362  0.0500 -0.2536 -0.2988
 6447W        W23294   6.982  14.949   4.878  0.1021 -0.0161  0.1679
 6448W        W23295   2.145   2.694  11.841 -0.2422  0.1588 -0.1090
 6449W        W23296   4.520   9.997   3.599 -0.0889  0.2792 -0.1378
 6450W        W23297   9.533  12.794  15.329  0.3445  0.1050  0.0844
 6451W        W23298   2.728  18.175   5.445  0.1051  0.1045  0.2393
 6452W        W23299  12.891  11.923  15.861 -0.1494  0.4293  0.2469
 6453W        W23300  11.314   0.671  13.182 -0.3651  0.3107  0.0911
 6454W        W23301  13.345  14.791  15.814 -0.2742 -0.2602 -0.1254
 6455W        W23302  17.035  12.900  13.592 -0.3027 -0.0581 -0.2807
 6456W        W23303   4.221  16.857   4.055  0.2566 -0.2855  0.1080
 6457W        W23304  13.007  17.144  13.517  0.0117  0.0870  0.2275
 6458W        W23305   5.642  18.224  13.082  0.2739  0.3651  0.1711
 6459W        W23306  12.497   6.163  12.762 -0.1076  0.1989  0.0057
 6460W        W23307   0.462   9.965   4.916 -0.0874 -0.1688  0.2103
 6461W        W23308  11.357   6.043  11.562  0.2516 -0.2736  0.2893
 6462W        W23309  12.722   7.449   1.700  0.1622 -0.1463 -0.0606
 6463W        W23310  13.774  10.589   4.505  0.1767  0.0396 -0.0816
 6464W        W23311  16.594   6.629   2.866 -0.4260 -0.1021  0.0393
 6465W        W23312   9.444   8.799  13.610 -0.0335  0.0052  0.3871
 6466W        W23313   4.635   8.030   0.975  0.1834  0.1509 -0.0199
 6467W        W23314  12.575   5.145  13.923 -0.1734  0.0115 -0.0117
 6468W        W23315  17.997  11.904   2.772 -0.0983  0.3773  0.0717
 6469W        W23316   7.209  12.217   4.085 -0.0670 -0.0466 -0.1632
 6470W        W23317   9.957   4.144  15.506 -0.1896 -0.0926  0.1748
 6471W        W23318  15.097  10.333  11.890  0.1366  0.1419  0.1017
 6472W        W23319   8.536  12.750  14.347 -0.1763  0.2486 -0.1250
 6473W        W23320  14.027   9.812   3.568  0.2261 -0.3003  0.0463
 6474W        W23321  13.235  12.318  15.176 -0.0573 -0.0140 -0.2273
 6475W        W23322  15.784   7.757  15.370  0.2745 -0.1018 -0.3204
 6476W        W23323   3.331   5.313  15.538  0.0272 -0.3206  0.1600
 6477W        W23324  13.330   3.558  12.776  0.0242 -0.1477  0.1935
 6478W        W23325   7.223  10.602   0.662 -0.2066 -0.0160 -0.0970
 6479W        W23326   9.537   4.130  13.254 -0.1034 -0.3758  0.3709
 6480W        W23327   7.804  11.195  11.739  0.0923  0.2444 -0.2170
 6481W        W23328  10.780   9.588   3.974  0.0829 -0.3750  0.2612
 6482W        W23329  16.980  15.135  11.752  0.1960 -0.0096 -0.0507
 6483W        W23330  18.388  12.807  14.903 -0.3574  0.0204  0.0143
 6484W        W23331   1.463  11.211  11.414 -0.1254 -0.0412 -0.1709
 6485W        W23332  14.714   8.384  13.634  0.2586 -0.0564  0.0971
 6486W        W23333   1.929   1.994   1.596  0.1305 -0.0075  0.0961
 6487W        W23334  12.514  10.754   0.165  0.1887  0.1642  0.0487
 6488W        W23335  15.279   4.602   3.978  0.1997 -0.1108 -0.3011
 6489W        W23336  13.811   6.876   1.202 -0.1632 -0.1701  0.0762
 6490W        W23337  12.050   1.561   1.350 -0.1170  0.1334 -0.1694
 6491W        W23338  11.442   8.849   4.318  0.0387  0.2014 -0.2954
 6492W        W23339   7.617   8.050  12.065 -0.5328  0.0114 -0.0571
 6493W        W23340   6.748   2.111   3.880  0.2084 -0.1395  0.1807
 6494W        W23341   8.249   7.592  12.791  0.0095  0.4675 -0.0896
 6495W        W23342   5.555   4.130  14.232 -0.0837 -0.1605 -0.0724
 6496W        W23343   4.697   3.302  15.616  0.0986  0.0022  0.1197
 6497W        W23344  10.475  17.690  13.376 -0.0880  0.1806  0.0524
 6498W        W23345  18.038  16.284  13.164  0.0641  0.0150  0.1199
 6499W        W23346   7.448   6.603   3.105 -0.0329  0.0993 -0.1335
 6500W        W23347  13.636   0.097   1.796 -0.0244  0.1945 -0.0000
 6501W        W23348   5.835  17.701   0.859  0.1061 -0.0994  0.1222
 6502W        W23349  10.117   3.346  15.876  0.4682 -0.2359 -0.2113
 6503W        W23350   0.870  11.953  13.083  0.0666  0.0746 -0.1468
 6504W        W23351  15.565   4.627  10.594 -0.0006  0.1082  0.2200
 6505W        W23352  10.292   0.451  12.059 -0.2025  0.4074 -0.1394
 6506W        W23353  10.553   2.146  14.659  0.0482 -0.2765  0.1003
 6507W        W23354   4.662   4.853  14.981  0.0604  0.0652 -0.2915
 6508W        W23355   2.532   2.092  12.451  0.1157 -0.0376  0.4091
 6509W        W23356  17.646   5.565   1.024  0.0509  0.2591 -0.2123
 6510W        W23357  17.799   9.274  11.698 -0.3345  0.5427 -0.1850
 6511W        W23358   8.773   6.265  13.836 -0.2722  0.1865  0.0462
 6512W        W23359   5.928   7.346   2.232  0.2544 -0.0170 -0.1403
 6513W        W23360   4.399   4.478   1.130 -0.0453  0.0069  0.1809
 6514W        W23361   6.166  11.882   5.507  0.1039 -0.3477  0.0636
 6515W        W23362   1.015  17.460   1.321  0.1491  0.1159 -0.2676
 6516W        W23363  17.717   4.637  11.231 -0.0276  0.2239  0.2527
 6517W        W23364  18.131  11.603  14.552 -0.0559  0.2036  0.0204
 6518W        W23365  17.799  15.832   2.359 -0.1371 -0.0769 -0.1579
 6519W        W23366  12.396   0.879  11.705  0.0229 -0.2994 -0.0594
 6520W        W23367   7.208   7.079  13.513 -0.2546  0.0150  0.3144
 6521W        W23368   2.263  17.452   3.193 -0.1567 -0.1220 -0.0115
 6522W        W23369   4.889   7.073  13.777  0.2165 -0.2651  0.2945
 6523W        W23370  10.524   3.351   3.025  0.2997  0.1117 -0.2491
 6524W        W23371  12.382   6.482  15.083  0.1128  0.0548 -0.1418
 6525W        W23372  14.882   4.822   3.718  0.3107  0.3647 -0.2737
 6526W        W23373  18.410  16.877  13.527  0.2082 -0.2036  0.1566
 6527W        W23374   5.688   4.090   1.554  0.0520  0.0658 -0.1062
 6528W        W23375   6.324   0.519   3.042 -0.1894  0.0969 -0.0936
 6529W        W23376   1.215   4.125   2.275  0.3262  0.4822 -0.0562
 6530W        W23377   0.633  13.766  13.541 -0.0552 -0.0729  0.0529
 6531W        W23378   2.933  10.876  13.688  0.1731 -0.0609  0.0194
 6532W        W23379   6.130   0.656   4.241 -0.1106 -0.3197  0.3439
 6533W        W23380   9.574   2.034  14.296 -0.2072  0.2001 -0.2457
 6534W        W23381  13.116   0.588  16.332  0.0801  0.3183  0.1019
 6535W        W23382  12.544   7.337   1.222 -0.3359  0.2692 -0.0742
 6536W        W23383   7.881   5.515  11.401 -0.0932  0.2325  0.2106
 6537W        W23384   0.802   6.214   1.374 -0.3854 -0.3328 -0.0957
 6538W        W23385  13.574   7.676   2.057  0.1601 -0.0831  0.0930
 6539W        W23386   5.985   5.001   4.682 -0.2100  0.1052 -0.0844
 6540W        W23387  15.468   8.920  13.484 -0.0542 -0.1276  0.1559
 6541W        W23388  17.346   0.459  12.109  0.2172  0.0529 -0.4790
 6542W        W23389  15.269   6.413  14.222 -0.1683 -0.0372  0.2266
 6543W        W23390   3.342   5.682  12.474  0.1205 -0.2387  0.0018
 6544W        W23391   5.308   2.454   5.583  0.0615 -0.4098  0.0226
 6545W        W23392  14.498  12.977   3.126 -0.0676  0.3308  0.0192
 6546W        W23393   1.020  16.265   4.175 -0.0755  0.0808 -0.0945
 6547W        W23394  12.144   5.384  14.753  0.2699 -0.0128  0.0895
 6548W        W23395   2.930   5.254  12.452 -0.0207 -0.1716 -0.0340
 6549W        W23396  12.771   6.185  11.523  0.1532  0.1116 -0.1045
 6550W        W23397   3.710   6.229  15.504 -0.0383  0.1138 -0.0304
 6551W        W23398   5.348   2.263  15.744 -0.1554  0.1730 -0.0864
 6552W        W23399  17.480   5.604   3.387  0.2090 -0.1592  0.1140
 6553W        W23400  18.045  11.553   5.433  0.3173  0.0899  0.0193
 6554W        W23401   8.071   4.306  12.292  0.0596  0.0768  0.4774
 6555W        W23402  12.627  18.035   2.893  0.0854  0.0102 -0.0954
 6556W        W23403   3.591  10.707   1.779  0.0710 -0.4823 -0.0666
 6557W        W23404   2.792   7.986   1.096 -0.0796 -0.2071  0.0372
 6558W        W23405   4.138   6.327   0.499 -0.2213  0.0957  0.1611
 6559W        W23406  13.996   2.220   0.331  0.1016 -0.0698 -0.3369
 6560W        W23407  13.119   4.690   3.482  0.1637 -0.4714  0.1756
 6561W        W23408   4.033   4.800  15.617  0.2325  0.1067 -0.2983
 6562W        W23409   2.570   7.353  12.172  0.2554 -0.0268  0.0239
 6563W        W23410   5.838  16.883  12.201  0.3136  0.3075 -0.2300
 6564W        W23411  11.208   6.395   0.761 -0.2139 -0.1636 -0.1603
 6565W        W23412   0.813   4.901   0.967  0.0482  0.2033 -0.1344
 6566W        W23413  11.088   0.908  14.914  0.0207 -0.0828  0.0337
 6567W        W23414  16.475  15.493   5.150 -0.0328 -0.6167  0.1705
 6568W        W23415  14.085  10.067  12.124 -0.2009  0.3597  0.0049
 6569W        W23416  17.280   1.564  15.863 -0.1909 -0.0523 -0.3960
 6570W        W23417   6.706   4.187   3.651  0.0216 -0.1197 -0.0890
 6571W        W23418  17.449  16.962  13.847 -0.2112 -0.2797 -0.2019
 6572W        W23419   9.948  17.335  15.902  0.0376  0.1129  0.0335
 6573W        W23420   9.827   1.084   0.453  0.0024  0.1481  0.5942
 6574W        W23421   8.532  16.226  16.247  0.1522  0.3563  0.0223
 6575W        W23422  13.173  11.557   0.224 -0.0259  0.1141 -0.0969
 6576W        W23423  14.934   6.531   2.802  0.0337 -0.2626 -0.2773
 6577W        W23424   5.885  11.408  14.893 -0.1796  0.0683 -0.0321
 6578W        W23425  11.190  12.980   0.785  0.1391 -0.1542  0.1342
 6579W        W23426  12.536   5.809  11.310 -0.0327 -0.2624 -0.0587
 6580W        W23427  13.743   3.660  11.656 -0.0538 -0.1768  0.1416
 6581W        W23428  17.616   3.008  13.422  0.0557  0.0313 -0.1684
 6582W        W23429  12.328  12.514   1.150 -0.0011  0.0064 -0.0611
 6583W        W23430   4.515  14.627  13.732  0.2711 -0.0764  0.0789
 6584W        W23431  15.172  17.109  14.381 -0.1839  0.0923  0.1831
 6585W        W23432  12.218   6.051   0.718  0.1003 -0.0630 -0.4623
 6586W        W23433  14.067   2.131   2.693 -0.2502 -0.1898 -0.0229
 6587W        W23434   6.560  15.075   5.711 -0.2932  0.0646  0.1277
 6588W        W23435  14.856  14.793   4.451 -0.3818  0.1951 -0.0179
 6589W        W23436  15.771  17.665   3.910 -0.0988  0.1211 -0.1456
 6590W        W23437   0.990   4.819   2.991  0.0988  0.1296  0.1962
 6591W        W23438  14.672   8.581  15.750  0.0622  0.0587  0.0477
 6592W        W23439   8.289   5.014   6.102  0.6080 -0.2514 -0.2968
 6593W        W23440   1.601  18.387  13.789  0.0757 -0.1768 -0.2924
 6594W        W23441  12.783   1.082  11.424  0.0237  0.0147  0.0925
 6595W        W23442   3.101  10.709  11.711  0.0802 -0.2500 -0.3659
 6596W        W23443   7.138   9.439   1.711  0.0423  0.1261 -0.1923
 6597W        W23444   3.108   8.839   3.008  0.1730  0.3136 -0.1851
 6598W        W23445   0.633   6.789   1.157 -0.0549 -0.1525  0.1689
 6599W        W23446   7.083  14.974  10.588 -0.0078 -0.0523  0.2895
 6600W        W23447   5.062  14.866   1.338  0.3259  0.1013  0.2246
 6601W        W23448   6.416   6.524   2.130  0.1186  0.0982  0.0232
 6602W        W23449  18.222   1.953   4.397 -0.0227  0.0861  0.1992
 6603W        W23450   2.348  11.613  15.612 -0.0444 -0.2106 -0.1585
 6604W        W23451  13.105   1.461   5.812  0.3723  0.2689 -0.0339
 6605W        W23452   7.356  15.328  15.319  0.0337  0.0452 -0.2509
 6606W        W23453  10.145  15.522   5.649  0.4106  0.0416 -0.3192
 6607W        W23454   7.382  12.508   6.226  0.3287  0.0412 -0.0559
 6608W        W23455  18.145  12.013  16.176  0.0005 -0.0478  0.1578
 6609W        W23456   0.926   0.068  12.442 -0.1598 -0.1266  0.4605
 6610W        W23457  17.011   7.649  12.973 -0.1195 -0.0461 -0.1164
 6611W        W23458   8.052  17.376  15.173  0.3839 -0.0608 -0.4090
 6612W        W23459  16.855   2.824  12.713  0.2089  0.0526  0.1012
 6613W        W23460   8.526   7.978  14.396  0.2312 -0.2429  0.0368
 6614W        W23461   2.114   6.136  15.398 -0.1393  0.2252 -0.0741
 6615W        W23462  11.121   3.739  12.585  0.2360 -0.0761  0.1847
 6616W        W23463   3.303  12.264   0.021  0.1792  0.1082 -0.1489
 6617W        W23464  13.604  12.237   0.551 -0.0823 -0.0713 -0.0485
 6618W        W23465  13.276  13.584  15.522 -0.0474  0.0789 -0.0782
 6619W        W23466  16.790  16.672   4.100  0.3107  0.2371  0.2481
 6620W        W23467  12.999   7.010  12.226 -0.1604  0.1257  0.2180
 6621W        W23468  11.517   5.528  13.632 -0.1270  0.0142 -0.2451
 6622W        W23469   2.209   4.166  15.025  0.0678 -0.1882  0.2197
 6623W        W23470   2.584  11.489   5.598  0.0001 -0.3054  0.1316
 6624W        W23471   8.664   9.406   4.737 -0.2089 -0.1747 -0.1001
 6625W        W23472  12.344   8.172  15.374 -0.0486 -0.1432 -0.2801
 6626W        W23473  12.931   5.880  12.292 -0.1674 -0.1242 -0.1717
 6627W        W23474   7.494  13.916   3.556 -0.0554 -0.0762  0.3717
 6628W        W23475   2.895  15.872   4.102 -0.0173 -0.1718 -0.2546
 6629W        W23476   0.406  14.658   5.036 -0.0708  0.1755  0.0108
 6630W        W23477  10.130  13.845  14.822 -0.1986 -0.0102  0.4346
 6631W        W23478  17.128  12.333   1.776  0.1516 -0.0131 -0.5608
 6632W        W23479   9.968   4.781   1.393 -0.2373  0.0141 -0.1116
 6633W        W23480   4.260   3.636  10.420 -0.1627  0.1318  0.1661
 6634W        W23481  12.626   3.088  12.555  0.1671  0.0154  0.0099
 6635W        W23482  13.868  16.983   1.885  0.1227  0.0871  0.1223
 6636W        W23483   3.568  14.252   1.986 -0.0648 -0.2841  0.6027
 6637W        W23484  12.863   8.328   3.137  0.3147 -0.0620  0.0729
 6638W        W23485  12.678  14.167  14.049 -0.1022  0.0296  0.1658
 6639W        W23486  16.770   0.271   0.576 -0.0530 -0.0535  0.0218
 6640W        W23487   5.807   0.263  13.261  0.0284  0.2534  0.2894
 6641W        W23488   1.598  10.976   3.993 -0.2078  0.1055 -0.2496
 6642W        W23489   4.809   0.904   5.673  0.2396  0.0882 -0.2197
 6643W        W23490   7.628  17.766  15.058 -0.2555 -0.1063  0.0786
 6644W        W23491   5.696  12.599   4.921 -0.0158  0.3180 -0.1299
 6645W        W23492   2.064   4.506   2.503  0.3932  0.4184  0.0269
 6646W        W23493  17.446   5.443   9.692  0.0289  0.0418  0.2731
 6647W        W23494   4.692  16.856  11.851 -0.1395  0.3104 -0.1474
 6648W        W23495   0.160  13.469   0.219 -0.0228 -0.0011  0.1006
 6649W        W23496   0.451   5.918  10.431 -0.2160 -0.1047  0.0648
 6650W        W23497   3.350   2.104  12.490  0.3923  0.1384  0.0845
 6651W        W23498   3.387  12.900   2.851  0.0420 -0.0497 -0.2060
 6652W        W23499   3.302   6.725   3.298  0.4746 -0.0572  0.2073
 6653W        W23500   1.217  17.942   1.236  0.1479 -0.3411  0.3162
 6654W        W23501  13.687  10.094  11.808 -0.1244  0.1992  0.2603
 6655W        W23502   0.543  16.024   4.224  0.1371  0.4501 -0.1146
 6656W        W23503   4.420  13.710  12.123 -0.1651  0.2455 -0.0286
 6657W        W23504   9.601  17.841   3.790  0.0364  0.0024 -0.2671
 6658W        W23505   2.164   4.885   1.176 -0.0028  0.0235  0.0659
 6659W        W23506  11.739  10.725  10.948 -0.0978  0.0925  0.0965
 6660W        W23507  17.360  12.577   0.895 -0.2702 -0.2601  0.0230
 6661W        W23508  10.529  10.263  15.624 -0.2428  0.0715 -0.2388
 6662W        W23509   7.858   8.477   5.789  0.1141 -0.2148 -0.2638
 6663W        W23510   8.629   8.833   2.651  0.2542 -0.0475  0.2794
 6664W        W23511   8.782   2.849   3.246  0.0668  0.0753  0.2784
 6665W        W23512  17.394  18.261  12.340  0.3470  0.0710 -0.1481
 6666W        W23513  14.818  13.370   0.520  0.1099 -0.0271  0.3040
 6667W        W23514   6.230   0.515   1.347 -0.0693  0.0525  0.2156
 6668W        W23515  18.372  13.533  13.257  0.1352  0.1571 -0.2130
 6669W        W23516   7.108  14.183   2.506  0.0268  0.2134 -0.1551
 6670W        W23517  13.875  16.639  14.666  0.0782  0.0930 -0.2652
 6671W        W23518   7.803   4.111  15.555  0.0390 -0.0181 -0.1494
 6672W        W23519  12.234   1.258   5.516  0.0620 -0.4280 -0.2349
 6673W        W23520  15.295  18.253   1.242 -0.2786  0.1952 -0.1008
 6674W        W23521  17.180   8.730   2.330  0.1848  0.2169  0.0074
 6675W        W23522   7.107   3.362   3.127 -0.2412  0.1118  0.3226
 6676W        W23523  11.891  16.433  11.363 -0.0341  0.1654  0.2553
 6677W        W23524  14.449  17.599   0.297 -0.2095  0.1169 -0.1804
 6678W        W23525  13.327  10.829  15.484  0.0482 -0.1284  0.4311
 6679W        W23526   1.199   4.182   4.717  0.2594 -0.1204  0.3182
 6680W        W23527   9.200  12.838  12.744 -0.0795  0.1953  0.0957
 6681W        W23528  16.273   2.433   0.785 -0.1646 -0.0522 -0.1318
 6682W        W23529   9.136   0.724  13.289  0.1658  0.0449  0.1827
 6683W        W23530  18.217   0.206  13.581 -0.1839  0.0737 -0.2378
 6684W        W23531  13.281   0.180  12.556  0.0924 -0.3187 -0.3433
 6685W        W23532  10.017  12.916   0.844  0.1574 -0.3264 -0.0072
 6686W        W23533   1.545  12.830   1.400 -0.1054  0.0217  0.1555
 6687W        W23534  11.824   8.814  11.855 -0.1372 -0.0750 -0.1385
 6688W        W23535  18.007   8.621  11.881 -0.0774  0.0149  0.2462
 6689W        W23536   8.127  15.150   2.459 -0.1241 -0.2875 -0.0110
 6690W        W23537   2.697  11.972  13.584  0.1051  0.2300  0.0002
 6691W        W23538   4.697   4.093  14.355  0.0756  0.1389 -0.2347
 6692W        W23539   7.111   0.747   1.561 -0.0144 -0.1953 -0.1515
 6693W        W23540  17.920  11.643   3.177  0.0170 -0.2176 -0.1401
 6694W        W23541  10.821   9.411  12.636  0.0267  0.0287 -0.1809
 6695W        W23542  12.871   4.740   0.849 -0.2567 -0.0664 -0.0461
 6696W        W23543  13.791  14.036   1.525 -0.2551 -0.0047  0.4477
 6697W        W23544  14.322  16.311  14.861  0.1263 -0.4567 -0.1397
 6698W        W23545   6.354   0.370   2.551 -0.1027  0.0753  0.1044
 6699W        W23546   6.384   2.855   5.504  0.4538  0.1488  0.2137
 6700W        W23547  15.627   6.991   2.656 -0.4085  0.0379 -0.0141
 6701W        W23548   7.480  14.706  15.682 -0.1790 -0.0316  0.1526
 6702W        W23549   8.659   5.614  12.880  0.1461  0.1711  0.0268
 6703W        W23550  14.958  13.298   1.358 -0.1988  0.4624  0.3055
 6704W        W23551  13.850  10.594  16.284  0.0393 -0.1581  0.1849
 6705W        W23552   3.895  10.817  13.582  0.4097 -0.2149  0.0853
 6706W        W23553   1.766   0.046   0.599 -0.1876  0.1231 -0.3431
 6707W        W23554   9.987  14.722  15.943 -0.1769 -0.0715  0.1208
 6708W        W23555  17.235  10.961  14.704  0.1359  0.4098 -0.0123
 6709W        W23556  10.439   4.365  15.687  0.3330  0.2341 -0.0635
 6710W        W23557   2.655   7.019  13.032 -0.1749 -0.1796  0.0153
 6711W        W23558   7.635  16.107  11.858  0.1436 -0.0797  0.2869
 6712W        W23559  11.450   2.891   0.854  0.1460  0.0799 -0.2232
 6713W        W23560  13.044   9.563  15.853  0.2273 -0.3349 -0.0066
 6714W        W23561   0.382  16.036  16.357 -0.1932 -0.3034 -0.0479
 6715W        W23562   6.259  17.138   4.695 -0.1900  0.4987  0.0863
 6716W        W23563  10.644   8.107   0.564 -0.0021  0.0463  0.0806
 6717W        W23564  17.063  15.455   2.929  0.2409  0.1633  0.1392
 6718W        W23565   7.957   7.208  12.990 -0.0785 -0.1092 -0.0869
 6719W        W23566   1.811  10.666   3.304 -0.3093 -0.1628 -0.1693
 6720W        W23567   4.732  16.167   1.108  0.1171 -0.0893 -0.1039
 6721W        W23568  18.053  15.728  12.897 -0.0334  0.1444 -0.1411
 6722W        W23569  14.089   3.635  12.963 -0.0466  0.0640 -0.2890
 6723W        W23570   3.288   5.070  10.966 -0.0683 -0.4043  0.5301
 6724W        W23571  16.777   6.681  14.659 -0.2310  0.2599  0.0710
 6725W        W23572  11.478  16.878  11.791 -0.3018  0.0430 -0.2786
 6726W        W23573  15.737  10.217   4.529 -0.1649 -0.1089  0.0721
 6727W        W23574   2.113   8.896   5.297  0.1650  0.2010 -0.2154
 6728W        W23575   1.865   2.659  15.373 -0.3160 -0.0211 -0.2253
 6729W        W23576  15.312  12.091  15.187  0.0204  0.4218  0.1770
 6730W        W23577   0.232   5.789  16.158 -0.2453 -0.0199  0.1440
 6731W        W23578   6.526   2.847   4.894 -0.2200 -0.0213  0.2876
 6732W        W23579   3.602  10.131   2.610  0.1811  0.2600 -0.2033
 6733W        W23580   9.139  17.218  14.084 -0.0121 -0.1052  0.0825
 6734W        W23581   8.122  15.130  13.308 -0.0913  0.0668  0.2739
 6735W        W23582   0.390  11.071  15.371  0.0867  0.0560  0.3032
 6736W        W23583   5.907  10.904   1.600  0.2339 -0.0138 -0.1580
 6737W        W23584   8.753  10.287   1.539 -0.2037 -0.3963  0.2347
 6738W        W23585  17.693   3.844   3.411 -0.4006 -0.0215 -0.1481
 6739W        W23586   8.900  18.004  15.109 -0.0738 -0.1100  0.4186
 6740W        W23587  16.194   4.385  15.277 -0.0859  0.2597 -0.2757
 6741W        W23588   9.946   8.065  13.875 -0.0928  0.2319  0.2073
 6742W        W23589   8.237   4.621  11.886  0.1745  0.0709  0.0303
 6743W        W23590   1.199  14.517   4.475 -0.0315 -0.0466  0.2799
 6744W        W23591   2.685   5.384   4.999 -0.0266  0.2027 -0.1939
 6745W        W23592   9.746   3.555  12.290 -0.2035  0.1984 -0.1752
 6746W        W23593  13.590   3.298  14.852  0.1293 -0.0285 -0.2450
 6747W        W23594  13.531   2.184   2.648 -0.1098  0.2838 -0.1940
 6748W        W23595   0.755   7.053  16.224  0.1220  0.1505  0.0884
 6749W        W23596   9.935  16.159   4.241 -0.0298  0.1461 -0.1024
 6750W        W23597  15.994  13.425   2.587 -0.0124  0.0782  0.0297
 6751W        W23598   6.637   1.283  10.963 -0.0498  0.1249 -0.1012
 6752W        W23599  12.187   1.376  14.436 -0.1331  0.0430 -0.0306
 6753W        W23600  12.668  10.158  11.934 -0.0534  0.0961 -0.1545
 6754W        W23601  11.444   1.537  12.372  0.0331  0.2768 -0.0907
 6755W        W23602  11.489   4.497  12.852  0.2426 -0.0128  0.2303
 6756W        W23603  17.023   9.823   3.451  0.0831 -0.1790 -0.1045
 6757W        W23604   1.688   6.728  13.090 -0.3203  0.1343  0.0287
 6758W        W23605   4.343   7.228   3.102  0.0255 -0.1217  0.0820
 6759W        W23606  12.234   3.003   0.384 -0.1388 -0.0626 -0.3700
 6760W        W23607   5.441   4.025   5.696 -0.0479  0.0763  0.0223
 6761W        W23608  13.140   6.034   5.689 -0.0607  0.4584  0.0948
 6762W        W23609  10.466  15.526   2.243  0.0630 -0.2699  0.1234
 6763W        W23610  13.516   6.721  13.042  0.1761 -0.1260 -0.0916
 6764W        W23611   2.232  12.809   0.733  0.1405  0.1459  0.0387
 6765W        W23612   4.718  17.410   5.355 -0.0243  0.1325 -0.0438
 6766W        W23613  13.314   1.756  11.596 -0.1148 -0.2226  0.1553
 6767W        W23614   6.694   3.292   3.466  0.2152 -0.2584  0.1104
 6768W        W23615   8.405  16.625  13.273  0.2437  0.0249 -0.0211
 6769W        W23616   4.011  14.457  13.659 -0.2305 -0.1339  0.2410
 6770W        W23617  17.727  16.286  13.604 -0.4996  0.1118 -0.1760
 6771W        W23618   8.834  10.806  13.861  0.0161  0.3782 -0.2538
 6772W        W23619   5.265  12.682  14.153 -0.0880  0.0514  0.0329
 6773W        W23620  17.231  18.324   4.667  0.0266 -0.2815 -0.0673
 6774W        W23621  14.968  17.678  11.432 -0.0471 -0.0703  0.0683
 6775W        W23622   2.292   9.395   0.145 -0.2278  0.0900  0.0456
 6776W        W23623  11.787  18.109  11.550  0.0051  0.0145 -0.1649
 6777W        W23624  10.988  10.723  12.043  0.1009 -0.0666  0.4256
 6778W        W23625  12.289   1.543   1.789  0.3470  0.0789  0.3046
 6779W        W23626  12.026   2.124   2.646  0.2031 -0.1082 -0.0868
 6780W        W23627  10.975   2.795   1.937  0.0613 -0.0579  0.1404
 6781W        W23628  13.575   1.774  11.171  0.0513  0.4297 -0.3965
 6782W        W23629   3.967  10.501   3.126 -0.0231  0.0818  0.0241
 6783W        W23630  12.608  14.613   5.057 -0.2273 -0.0524 -0.1897
 6784W        W23631   8.597   0.381   1.549 -0.2861  0.1209  0.1127
 6785W        W23632   6.388   1.725   2.272 -0.0580  0.0068 -0.0793
 6786W        W23633  15.309  17.334  16.307 -0.2284 -0.0581  0.1378
 6787W        W23634  14.226   1.432   1.061  0.2088  0.1089  0.2633
 6788W        W23635  12.075   4.591  14.360  0.0978  0.0632  0.0164
 6789W        W23636  16.649   5.735   1.716 -0.0648  0.5093  0.1707
 6790W        W23637   5.578  13.443   5.112 -0.0167  0.0015  0.0552
 6791W        W23638   7.649  12.927  15.828  0.2427  0.0133  0.2785
 6792W        W23639   3.548   7.829   0.560 -0.0105  0.1138 -0.0889
 6793W        W23640  13.447   2.459   4.733  0.0959 -0.1508  0.0030
 6794W        W23641   5.127  12.308   3.165 -0.1257  0.1827  0.2363
 6795W        W23642   3.795  15.439   4.452 -0.0585 -0.0743  0.0991
 6796W        W23643  13.100   0.776  14.337  0.1535 -0.1512 -0.0216
 6797W        W23644  15.919  15.628   3.647  0.0240 -0.0823 -0.0795
 6798W        W23645  10.496   7.096   3.661  0.2445  0.1434  0.3401
 6799W        W23646  17.061  10.705   0.544  0.0465 -0.1052  0.2279
 6800W        W23647  15.428  15.569   3.537 -0.2971  0.0195  0.2740
 6801W        W23648   1.061  10.752   1.059 -0.0364 -0.0182  0.0489
 6802W        W23649  17.453   7.951   1.918  0.0333  0.0698  0.0467
 6803W        W23650   3.631   2.854  15.239  0.0857  0.1269 -0.1492
 6804W        W23651   6.353   9.260   1.595 -0.0012  0.0579 -0.2807
 6805W        W23652   2.185  10.895  12.045 -0.0591  0.5631 -0.0358
 6806W        W23653   5.284  16.421  16.301  0.1336 -0.0316  0.3493
 6807W        W23654  16.792   1.830   3.978 -0.1897 -0.0308  0.0335
 6808W        W23655  15.293   1.321   3.039 -0.1177 -0.2093  0.0736
 6809W        W23656   0.458  12.120   6.182  0.0392  0.0261  0.0713
 6810W        W23657  13.572  14.856  14.883  0.2388  0.0057 -0.3529
 6811W        W23658   7.980  16.085   3.913  0.1000  0.5440  0.0732
 6812W        W23659  18.059  15.648   3.048  0.0307 -0.0482  0.0360
 6813W        W23660   9.323  11.707  11.898  0.0432  0.0144  0.0208
 6814W        W23661  14.970  17.797  16.217 -0.1998 -0.0008  0.2935
 6815W        W23662   0.307  11.029   1.395  0.1589  0.3488  0.0182
 6816W        W23663  13.812   1.151   1.979  0.0300 -0.1473  0.2456
 6817W        W23664   7.588  16.398  14.977 -0.2863  0.0324  0.0222
 6818W        W23665  17.825   7.260   0.224 -0.0493  0.1478 -0.0999
 6819W        W23666   6.244  17.366  11.342 -0.1412  0.0277 -0.0087
 6820W        W23667  12.981  16.950   0.345 -0.1853 -0.2381  0.0350
 6821W        W23668  11.058  14.302  11.882 -0.2404 -0.0908  0.3815
 6822W        W23669   8.510  11.265   5.223 -0.0412 -0.4135  0.1002
 6823W        W23670  15.034   5.112   4.229  0.3979 -0.3803 -0.0421
 6824W        W23671  13.113  17.261  14.547 -0.5205 -0.0319  0.1648
 6825W        W23672  10.838  12.217  15.103 -0.0117  0.0049 -0.0249
 6826W        W23673   4.213   6.443   4.781  0.1801 -0.0742  0.0993
 6827W        W23674  16.163  10.795  13.834 -0.3321 -0.1021 -0.2115
 6828W        W23675   3.301   6.549   4.561  0.0029  0.2891 -0.1080
 6829W        W23676  18.001  10.278   0.498 -0.0526 -0.0693  0.3631
 6830W        W23677   0.074  18.319   5.633  0.0497  0.2723  0.0532
 6831W        W23678  14.989  17.053   0.614  0.1512  0.0304 -0.0215
 6832W        W23679  11.722  12.053  11.336 -0.2262  0.1543  0.1602
 6833W        W23680   6.471   5.938  14.615 -0.1392  0.1128 -0.0384
 6834W        W23681  14.008   6.058  12.200  0.1740 -0.2794 -0.1461
 6835W        W23682  10.165   5.127  14.548  0.0347  0.0104 -0.2635
 6836W        W23683  16.295   7.727   1.175  0.0749 -0.1153 -0.0161
 6837W        W23684  12.963  17.837   2.475  0.0655 -0.1976 -0.0233
 6838W        W23685   2.285  13.945   2.978 -0.2037 -0.0578 -0.2020
 6839W        W23686  16.890   9.854  13.186 -0.1117  0.1588 -0.0408
 6840W        W23687   1.688   2.029   3.051  0.0842  0.3489 -0.0158
 6841W        W23688   1.830   6.489   4.650 -0.1991 -0.2572 -0.1067
 6842W        W23689   3.030  11.120  14.574  0.0136 -0.0132  0.5158
 6843W        W23690  10.028   5.213  11.091 -0.2230  0.0430 -0.4569
 6844W        W23691   4.372  15.203  15.408 -0.0526 -0.0304 -0.2471
 6845W        W23692  13.050  11.726  11.866  0.0700 -0.0602  0.2135
 6846W        W23693  10.197   2.563   2.673 -0.0551  0.0222  0.0084
 6847W        W23694   9.758   6.012  12.137 -0.1943 -0.2078  0.0354
 6848W        W23695   7.042   0.080   2.398 -0.2449 -0.3746  0.1119
 6849W        W23696   1.936  18.074  12.374 -0.0561  0.2074  0.0257
 6850W        W23697  14.642  16.153   4.770  0.1911 -0.3675 -0.0017
 6851W        W23698  16.759  13.751  12.263 -0.0436  0.2997  0.1725
 6852W        W23699   9.938   6.878   5.084  0.0052 -0.2555 -0.0266
 6853W        W23700   4.384  10.768   2.437 -0.0500 -0.0033 -0.1872
 6854W        W23701   9.536   5.191   0.119  0.0909 -0.2328  0.0229
 6855W        W23702  11.389   6.975  10.823  0.2096  0.2574 -0.0447
 6856W        W23703  16.431   5.915   0.320  0.2498 -0.2393 -0.0081
 6857W        W23704   9.370  16.361  11.831  0.5677  0.0284 -0.0145
 6858W        W23705   3.005  14.899  13.545 -0.3630  0.1405  0.0575
 6859W        W23706   7.826   7.836  14.710  0.3117  0.2016  0.4155
 6860W        W23707   7.030  11.068   1.880  0.0171  0.2915  0.1213
 6861W        W23708  13.222  16.291   1.743 -0.1116 -0.0805  0.4224
 6862W        W23709  15.915   2.055  14.543  0.1204 -0.0237 -0.1058
 6863W        W23710   8.126   3.129  11.806  0.0384  0.3084  0.0243
 6864W        W23711   1.853   2.195  11.475  0.0405 -0.0788 -0.0850
 6865W        W23712  16.023  17.268  12.388 -0.1994  0.2565  0.0247
 6866W        W23713  18.374   1.096  14.614 -0.0358  0.0424  0.0006
 6867W        W23714   5.845   9.917  12.139 -0.0348 -0.0735 -0.2405
 6868W        W23715   9.826  17.818   0.448 -0.2317 -0.2161  0.1982
 6869W        W23716  11.088   0.027   1.818  0.1431 -0.0857  0.0600
 6870W        W23717  15.801   1.841   0.169 -0.0973 -0.2124  0.0455
 6871W        W23718  12.088  11.508  14.758  0.3053  0.0381 -0.1953
 6872W        W23719   7.884   3.000   4.517  0.0199 -0.1638  0.0312
 6873W        W23720   7.185   3.242  11.798  0.0843 -0.0970 -0.1756
 6874W        W23721  12.087   0.205   2.593 -0.1553 -0.1154 -0.1854
 6875W        W23722  12.077  13.729   1.155  0.0276 -0.2318  0.2183
 6876W        W23723  12.526  14.049   2.086 -0.3029 -0.1425  0.2603
 6877W        W23724   2.366   0.916   0.884  0.2132 -0.1759  0.2514
 6878W        W23725  10.371   0.211  13.240  0.0846  0.0143  0.2293
 6879W        W23726  10.316   0.747   4.136  0.1550  0.2422  0.2260
 6880W        W23727  10.784   4.202   3.422  0.0650 -0.1340 -0.1137
 6881W        W23728   9.138  10.266   1.165 -0.1806  0.2453 -0.0747
 6882W        W23729  13.673   5.264   0.071  0.0027  0.1489  0.0615
 6883W        W23730   4.092  16.077   1.035 -0.2250 -0.0256 -0.2580
 6884W        W23731  11.928  12.568   3.689  0.0974  0.0436  0.4216
 6885W        W23732   3.915  12.260  14.004 -0.1588  0.1006  0.4314
 6886W        W23733   5.109   0.475   3.373  0.0019  0.1788 -0.3441
 6887W        W23734  16.643   4.561   0.962 -0.3498 -0.1699  0.1422
 6888W        W23735  18.015  16.500  12.485 -0.2093 -0.1258  0.1158
 6889W        W23736   9.010  16.262  12.631  0.2756 -0.0090  0.1213
 6890W        W23737  16.420  14.540   5.597 -0.2188 -0.0824 -0.2906
 6891W        W23738   6.080  16.691   0.399 -0.0013  0.1520  0.1541
 6892W        W23739  17.379  12.804   2.591  0.2347 -0.1239 -0.1036
 6893W        W23740  10.677  13.348   4.697 -0.2072  0.1930  0.1682
 6894W        W23741   2.898  12.393   0.823  0.1660 -0.2920  0.1706
 6895W        W23742   0.895  17.851  16.275  0.1840 -0.0040 -0.1562
 6896W        W23743  10.322   3.278   0.143 -0.4025  0.1171  0.1402
 6897W        W23744   6.596   8.566  14.731  0.2033 -0.0742  0.0401
 6898W        W23745  15.643  15.732   1.051 -0.0177 -0.0137 -0.2243
 6899W        W23746   3.686  17.280  11.330 -0.0494  0.1009  0.4035
 6900W        W23747  11.203   3.735   3.233 -0.0409 -0.0768 -0.2289
 6901W        W23748   4.496  12.601   5.901 -0.0606  0.0234  0.1220
 6902W        W23749  11.132   2.563   1.146 -0.0855 -0.0879  0.1253
 6903W        W23750  18.355   6.758  11.373  0.2031 -0.0446 -0.2563
 6904W        W23751   0.715   4.453  13.112  0.1905 -0.0959 -0.1771
 6905W        W23752   7.672   9.659   0.874  0.0086  0.5547 -0.0465
 6906W        W23753  11.711   1.308   2.489  0.0575 -0.1484  0.0107
 6907W        W23754   7.244   5.908  14.900  0.1101  0.0385  0.3672
 6908W        W23755   2.163   7.518   0.663 -0.3805 -0.0138 -0.0183
 6909W        W23756  14.450   9.267   2.673  0.0100 -0.1547 -0.0732
 6910W        W23757   5.096  12.056  16.048  0.0118  0.2219 -0.0170
 6911W        W23758   3.359   4.307   1.196 -0.1318 -0.1846  0.3797
 6912W        W23759   1.060   7.767  11.598  0.3326 -0.0633 -0.0412
 6913W        W23760   8.973   2.795   5.476 -0.0605  0.0073  0.0055
 6914W        W23761   1.328   8.169  11.554 -0.0841 -0.1928  0.2241
 6915W        W23762  13.381  16.391  16.080  0.0735  0.1653  0.0907
 6916W        W23763   1.523  13.105   5.628  0.0957  0.0460  0.0295
 6917W        W23764   3.373   5.177  12.682  0.0947  0.1891  0.4624
 6918W        W23765  16.090  11.767   3.436 -0.0451  0.0647  0.0309
 6919W        W23766  13.163  14.668  11.609  0.0219  0.1902  0.3155
 6920W        W23767  16.446   5.032   1.265 -0.0099 -0.3961  0.2808
 6921W        W23768  17.800   2.710  13.011 -0.0233 -0.1599 -0.4231
 6922W        W23769  16.415  13.996   3.470 -0.1379  0.0183  0.0850
 6923W        W23770   3.506   2.831  16.276 -0.0554  0.0461 -0.2551
 6924W        W23771  16.277  17.673  10.192  0.2470  0.0113 -0.0056
 6925W        W23772   9.376  15.990  12.317 -0.0380  0.3972 -0.2398
 6926W        W23773  11.341   5.934   4.361  0.3598 -0.1220  0.1207
 6927W        W23774   0.492   5.311  14.651  0.0743 -0.2489  0.2476
 6928W        W23775   0.996   1.393   1.550 -0.3697 -0.2412  0.1186
 6929W        W23776   7.187  10.776  14.790 -0.0276  0.2566 -0.0825
 6930W        W23777  16.318  10.211  13.348 -0.0429  0.2015 -0.2547
 6931W        W23778  12.404   0.079   5.671 -0.3214 -0.0263  0.0928
 6932W        W23779  15.443   6.188  11.435  0.1797 -0.0720  0.1747
 6933W        W23780   1.678   8.048  12.317 -0.2573 -0.1587 -0.1125
 6934W        W23781   2.609  13.865  14.148 -0.2625  0.0431 -0.0111
 6935W        W23782  17.447   0.718  14.905 -0.0557  0.0089 -0.0926
 6936W        W23783  15.364   2.698  14.739  0.0049  0.1166  0.0028
 6937W        W23784   8.422  15.009   5.748  0.0157 -0.1392  0.3154
 6938W        W23785   9.961  10.466   3.469 -0.0815 -0.2933  0.0273
 6939W        W23786   2.344  17.439  11.568  0.0550 -0.2248 -0.0125
 6940W        W23787  15.006   7.503  12.586 -0.0201 -0.1640 -0.2552
 6941W        W23788   2.820   7.013  14.347  0.3152  0.0417  0.0147
 6942W        W23789  14.280   3.198  11.157 -0.1845  0.1760  0.0143
 6943W        W23790   5.718   8.631   0.376 -0.0825 -0.3243  0.0695
 6944W        W23791   0.126  14.484   2.625  0.2126 -0.6226  0.0195
 6945W        W23792   3.508  10.617   5.117 -0.3514 -0.0500  0.0383
 6946W        W23793   9.604  15.058  12.578  0.0841  0.2100 -0.2120
 6947W        W23794   4.873  16.412   2.718 -0.0072 -0.0434 -0.0580
 6948W        W23795   2.502   2.884   0.572 -0.0054 -0.3576  0.0740
 6949W        W23796   0.521   9.373   4.291 -0.3781 -0.1226  0.0753
 6950W        W23797   5.490   1.494   1.264 -0.0965  0.0851 -0.0378
 6951W        W23798   0.653   2.645  14.447  0.0366 -0.1756 -0.0740
 6952W        W23799   9.950  11.461   3.390  0.3197  0.2990 -0.2017
 6953W        W23800   6.808  15.458   5.987 -0.0878 -0.2594 -0.3619
 6954W        W23801  10.694  10.010   1.407 -0.1950 -0.4806 -0.2389
 6955W        W23802  13.376   1.080  12.958 -0.0906 -0.1401 -0.0679
 6956W        W23803   2.050  13.467   4.117 -0.3112  0.0936  0.3263
 6957W        W23804   5.490   1.068  12.618  0.1323 -0.1117 -0.0634
 6958W        W23805   8.848   0.166   1.126  0.2392 -0.1899 -0.0442
 6959W        W23806   8.254  15.381  14.713 -0.2483  0.1149  0.0330
 6960W        W23807  11.286  16.352   4.088  0.0342 -0.2540 -0.1891
 6961W        W23808   7.953  16.279  14.146 -0.1119  0.0203  0.1609
 6962W        W23809  10.662   7.385  11.085 -0.0747 -0.1100  0.0251
 6963W        W23810  12.608   7.503  14.869 -0.4976 -0.1784 -0.3057
 6964W        W23811  11.070  12.574   0.506 -0.2368  0.1115  0.0322
 6965W        W23812   5.236   8.960  13.074  0.0649 -0.0645 -0.3278
 6966W        W23813   2.652  13.703   1.040 -0.1513  0.0881  0.2782
 6967W        W23814  13.071  14.643   3.126 -0.0713 -0.2279 -0.3131
 6968W        W23815   3.207  18.351   0.656  0.0348 -0.2427  0.1095
 6969W        W23816  12.310   0.873   4.215  0.1867 -0.1312  0.1307
 6970W        W23817   6.256   1.905   5.251  0.2783  0.0507  0.1686
 6971W        W23818  15.654   8.565   0.418 -0.0868 -0.3393  0.0124
 6972W        W23819  16.252   0.586   2.826 -0.2862  0.0113 -0.0061
 6973W        W23820  12.035   8.601   1.606  0.0916  0.1331 -0.0084
 6974W        W23821  14.989  16.826   0.122 -0.0551 -0.0974  0.2139
 6975W        W23822   1.237   7.868   3.589 -0.2664 -0.2236  0.1922
 6976W        W23823   3.392   0.608   2.774  0.1551  0.0284  0.1919
 6977W        W23824  14.693   1.734  13.390 -0.0506  0.3039 -0.2660
 6978W        W23825   6.543   0.695  15.870  0.0521 -0.4740  0.0242
 6979W        W23826  14.918   7.385  11.296 -0.1029 -0.0387  0.0759
 6980W        W23827   4.164  10.616  11.971  0.0822  0.1971  0.2121
 6981W        W23828  16.301  11.529   0.458 -0.0108  0.1364 -0.3201
 6982W        W23829   3.915   2.777  14.117  0.1288  0.3196  0.1093
 6983W        W23830  15.254  13.587  14.290  0.0075 -0.2900  0.3560
 6984W        W23831   4.049   5.626  13.151  0.0889  0.0972 -0.2017
 6985W        W23832   0.896  10.752  12.678 -0.1247 -0.2203 -0.1280
 6986W        W23833  14.947  15.622  15.365 -0.0331  0.2666 -0.0951
 6987W        W23834   1.552  16.529   1.674 -0.1516  0.1992  0.0251
 6988W        W23835  14.755  15.043   0.130  0.0748 -0.1123  0.0630
 6989W        W23836  16.200   3.976  12.242  0.1550  0.1950  0.0572
 6990W        W23837  18.370  11.453   0.168 -0.0381  0.0709  0.0056
 6991W        W23838   3.207  15.978  15.908  0.0916 -0.1417  0.2912
 6992W        W23839  10.973   0.123   3.229  0.1297 -0.0311 -0.1332
 6993W        W23840  12.644   8.905   0.785 -0.2661  0.0309 -0.0116
 6994W        W23841  14.560   4.688   0.018  0.2444  0.0618  0.1190
 6995W        W23842   3.814   9.904   4.515  0.2350  0.1581  0.2044
 6996W        W23843  12.000  12.800   4.089 -0.0181 -0.1305 -0.3659
 6997W        W23844   7.949   5.083   4.697  0.3822  0.1847  0.3499
 6998W        W23845   3.537   0.595  12.778 -0.2188  0.0931 -0.2522
 6999W        W23846  12.462   4.518  14.631  0.2661  0.0098  0.0348
 7000W        W23847  13.437   6.320   4.856 -0.0497 -0.1826 -0.3497
 7001W        W23848  13.287   3.699  13.671  0.0196 -0.0249 -0.0358
 7002W        W23849  11.319   7.748   2.926 -0.1737 -0.0383  0.0850
 7003W        W23850   4.631   0.163   3.588 -0.4313  0.1337  0.2378
 7004W        W23851   2.095   0.429   4.924 -0.2230 -0.0235 -0.2136
 7005W        W23852   9.564  11.136  13.527 -0.2506  0.1853 -0.3503
 7006W        W23853   2.744  12.787   3.994  0.1527 -0.1205 -0.1908
 7007W        W23854   7.039   5.283   0.911 -0.1151 -0.4176  0.1427
 7008W        W23855   8.129  17.828  14.382  0.1477  0.2554 -0.0038
 7009W        W23856   7.453  15.343   1.876  0.2281 -0.2423  0.2347
 7010W        W23857  17.196  11.284  11.869  0.2938  0.3164  0.2131
 7011W        W23858  15.251  15.722  12.379  0.0796  0.3843  0.1774
 7012W        W23859  13.548  15.851  14.613  0.0801 -0.1004  0.1338
 7013W        W23860   1.582  11.679   5.136 -0.1633  0.2607  0.0577
 7014W        W23861  11.721  17.134   3.549 -0.1174 -0.0729  0.0852
 7015W        W23862  17.540  14.244   4.028 -0.1642 -0.1703 -0.2177
 7016W        W23863   4.484  16.918   4.562  0.3185  0.2793 -0.1705
 7017W        W23864   0.110   0.635   0.023 -0.1406  0.0698  0.1853
 7018W        W23865   5.506   4.903  15.258  0.0941 -0.0342  0.1912
 7019W        W23866   2.349   7.281  14.381  0.0205  0.0222  0.1938
 7020W        W23867  15.600   3.566  11.739  0.1435  0.2772 -0.0719
 7021W        W23868   0.373  13.389  11.777 -0.3748 -0.3694  0.0133
 7022W        W23869   7.496   4.409   2.917  0.0342 -0.0201 -0.0905
 7023W        W23870   1.059   8.172   0.152  0.1476 -0.0643  0.0668
 7024W        W23871  11.230   8.360   4.200  0.0266  0.0199  0.3838
 7025W        W23872   6.080  17.460   3.833 -0.0231 -0.1673 -0.2278
 7026W        W23873   2.869   1.470   3.592  0.1619  0.2381  0.1758
 7027W        W23874  14.317   4.737   5.116  0.1151  0.0444 -0.1262
 7028W        W23875  14.904  13.558  14.631 -0.0196  0.4010  0.1511
 7029W        W23876   6.537  15.398   0.017 -0.3836 -0.0776 -0.1214
 7030W        W23877   7.088   4.845  11.358  0.1222 -0.1098 -0.1921
 7031W        W23878   8.865  13.472   1.189 -0.0955  0.3693  0.1082
 7032W        W23879   8.744  10.548   2.040 -0.2023 -0.1916 -0.0076
 7033W        W23880   9.018   6.879   1.128 -0.2103 -0.0943 -0.0552
 7034W        W23881   2.001  10.085  15.773 -0.1331  0.0222 -0.1834
 7035W        W23882  15.216  17.248  11.349  0.1092  0.1415  0.0943
 7036W        W23883   5.014  12.034   3.984  0.1384  0.2487 -0.2135
 7037W        W23884   2.658  17.141   3.063  0.1728 -0.0131 -0.4293
 7038W        W23885  16.843   6.685  15.391  0.0265 -0.0214 -0.0528
 7039W        W23886  13.874   8.403   4.494 -0.0317  0.3861  0.1945
 7040W        W23887   1.506   2.683   2.934  0.0079 -0.1901 -0.1128
 7041W        W23888   3.956   7.593  15.083 -0.2466 -0.2743 -0.2884
 7042W        W23889  11.145  17.512   2.175 -0.2511 -0.0791  0.2041
 7043W        W23890   8.412   0.511   0.174 -0.1103 -0.1710 -0.4714
 7044W        W23891  14.792  15.963   1.989 -0.1496 -0.2660 -0.0089
 7045W        W23892   4.726   9.213   1.921  0.0012  0.2312  0.0075
 7046W        W23893  10.953   5.750   4.615  0.0929  0.0864 -0.3929
 7047W        W23894   4.066   2.100   1.167 -0.0582  0.1324  0.2374
 7048W        W23895  12.094  12.953   1.321  0.2440 -0.1371  0.1198
 7049W        W23896   9.030   0.657   4.245  0.1784 -0.2030 -0.0467
 7050W        W23897  10.296  10.560  16.037 -0.0593  0.0823 -0.2987
 7051W        W23898   9.690   7.116  13.213 -0.0047  0.0654  0.1231
 7052W        W23899   5.380  12.613   2.844  0.0376 -0.1927 -0.2770
 7053W        W23900   9.786   9.396   2.095 -0.1854 -0.1434  0.0906
 7054W        W23901  16.091   1.474  12.675  0.0232 -0.0227  0.2507
 7055W        W23902   8.714  10.880   4.241  0.0353  0.1459  0.1409
 7056W        W23903   5.767  17.391  11.507  0.3622 -0.0059  0.1579
 7057W        W23904  17.374   3.335  15.786  0.0324 -0.2605 -0.1531
 7058W        W23905   1.509  16.808   5.214  0.1051  0.0020  0.6396
 7059W        W23906   9.055   3.311   1.939 -0.2571  0.3202  0.2597
 7060W        W23907   3.438  12.038   2.178 -0.2508  0.1935  0.2843
 7061W        W23908   9.327  13.933   2.815 -0.2145  0.5285  0.0554
 7062W        W23909  13.250   4.236  16.246 -0.1100  0.1896 -0.0088
 7063W        W23910   8.711  15.514   4.075  0.0545  0.0548  0.0171
 7064W        W23911   3.844   4.840  12.363 -0.1314 -0.1125 -0.0345
 7065W        W23912  12.762  12.057  12.614 -0.3561 -0.1414  0.3140
 7066W        W23913  12.247   2.676  14.886 -0.0933 -0.0350 -0.1994
 7067W        W23914   7.196   6.332   4.955 -0.0536 -0.1634 -0.0506
 7068W        W23915  12.159  12.439   5.547  0.0709 -0.1088  0.0277
 7069W        W23916  18.357   8.954  10.926 -0.0104 -0.0817  0.3363
 7070W        W23917  10.807   7.544   4.834  0.0099 -0.1657  0.1747
 7071W        W23918   3.387  11.362  12.331  0.2407 -0.0554  0.0161
 7072W        W23919  15.533   4.370   3.396 -0.0010  0.1236 -0.2396
 7073W        W23920   1.530  12.848   4.000  0.2401  0.3709  0.1094
 7074W        W23921  11.329   0.032  14.647 -0.0827  0.2325 -0.1247
 7075W        W23922   8.748   9.950   4.767  0.2534  0.0338 -0.0941
 7076W        W23923   7.410   6.032   4.444 -0.0058  0.2075  0.2432
 7077W        W23924  16.180  15.907   2.186  0.0097  0.2893  0.1003
 7078W        W23925   8.739   4.392  13.129 -0.1086  0.2023  0.1310
 7079W        W23926   4.959   0.592  15.148 -0.2810  0.0122  0.0776
 7080W        W23927  18.125   4.349  12.215 -0.1331  0.1025  0.1934
 7081W        W23928  14.382   0.200   0.169  0.1048  0.0780  0.0900
 7082W        W23929  15.726   7.787   1.217  0.5038 -0.0917  0.1630
 7083W        W23930  14.553   7.848   5.386  0.0270  0.0709  0.0841
 7084W        W23931  13.184  13.213  11.548 -0.0055  0.0232  0.1818
 7085W        W23932  11.389  12.696  15.407 -0.1246  0.1050 -0.3109
 7086W        W23933  15.908  16.991   1.712 -0.0365  0.2261 -0.2782
 7087W        W23934   4.718  18.183   5.968  0.3289 -0.1462  0.0428
 7088W        W23935   5.161   8.332   2.869  0.1325 -0.1019 -0.0538
 7089W        W23936   3.449  16.631  14.063  0.1645 -0.2082  0.0130
 7090W        W23937   5.896   2.473  12.650 -0.5436 -0.2228  0.1079
 7091W        W23938   1.686   5.936   2.549  0.0290 -0.3050 -0.1322
 7092W        W23939  17.197   0.040   0.639 -0.1652 -0.2531 -0.1208
 7093W        W23940   3.310   6.456  11.224 -0.3587 -0.0409 -0.1587
 7094W        W23941   0.591   1.733   4.048  0.0620  0.0036 -0.2126
 7095W        W23942   8.452  13.650  15.982  0.0598 -0.4060 -0.0265
 7096W        W23943  14.734   2.403  10.745  0.1436 -0.1172 -0.0920
 7097W        W23944  17.958  13.613  14.939 -0.0340 -0.0713  0.2668
 7098W        W23945   8.976   8.987  11.539  0.1326 -0.3310  0.2855
 7099W        W23946  11.536  15.742  12.899  0.1563  0.0277 -0.1974
 7100W        W23947  11.905  15.802  13.705 -0.2529 -0.1017 -0.1272
 7101W        W23948   7.538   7.395  13.300 -0.3441 -0.1698 -0.0477
 7102W        W23949   9.405   6.192   3.555  0.1756 -0.0666 -0.1478
 7103W        W23950  14.792   0.237   2.099 -0.1799  0.2465  0.1981
 7104W        W23951  14.177   7.459  13.405  0.0606 -0.1132  0.3123
 7105W        W23952   6.721  12.094   3.966 -0.1958 -0.0705 -0.2819
 7106W        W23953  12.104   4.979  13.788  0.3857  0.1341  0.0438
 7107W        W23954   0.264  15.160   5.171  0.0871  0.1111  0.1938
 7108W        W23955   8.371  14.071  11.947 -0.2123  0.1999  0.2409
 7109W        W23956  14.310  17.235  14.497 -0.0810  0.1014  0.1553
 7110W        W23957   6.335   8.822  12.163 -0.0707 -0.1120 -0.2793
 7111W        W23958  11.136   1.676   4.548 -0.0503  0.0601  0.0072
 7112W        W23959   1.904  14.698  16.085  0.0890 -0.0589  0.3309
 7113W        W23960   7.806  17.505   3.817 -0.0459 -0.0236  0.1134
 7114W        W23961   6.124  10.478   4.100 -0.0497  0.0741 -0.0247
 7115W        W23962  14.355  15.044  16.029  0.2948 -0.0653 -0.3340
 7116W        W23963   9.991  16.609   5.080  0.0876 -0.0394  0.0596
 7117W        W23964   7.368  15.251   0.318 -0.0331 -0.2101 -0.0635
 7118W        W23965   4.848  12.490  13.519  0.1903  0.2458  0.0549
 7119W        W23966  11.770   3.748   1.962 -0.1583 -0.2718  0.2164
 7120W        W23967   8.648  10.943   0.134 -0.1443 -0.0276 -0.1329
 7121W        W23968  10.463   8.827   4.925  0.1270 -0.2576 -0.2348
 7122W        W23969   2.205  13.114  15.107 -0.0755  0.0781 -0.0697
 7123W        W23970   1.505   6.769  12.665 -0.0732  0.1877 -0.0025
 7124W        W23971   2.894  16.171   3.663 -0.6268 -0.1181 -0.2900
 7125W        W23972  10.896  14.353  13.777  0.2140 -0.2095 -0.2158
 7126W        W23973  16.927  12.683  16.125 -0.1573 -0.0238  0.2542
 7127W        W23974   3.722  15.775   2.338 -0.0939  0.1533 -0.2879
 7128W        W23975  17.062   5.701   1.962  0.0865 -0.0164 -0.0291
 7129W        W23976   9.012   1.203   4.195 -0.1643 -0.1443  0.1822
 7130W        W23977   5.255  11.129   3.233  0.2558  0.0961  0.0316
 7131W        W23978  10.261   5.044   2.268 -0.2379 -0.0493 -0.0983
 7132W        W23979   1.622   8.718  13.347  0.1160 -0.0404 -0.0447
 7133W        W23980  11.793   0.196  14.530  0.2268 -0.0962 -0.2132
 7134W        W23981   1.395   2.098   0.285 -0.0173 -0.0879  0.0723
 7135W        W23982   4.955  17.089   1.993  0.0688 -0.3113  0.2251
 7136W        W23983   4.943   0.860   1.932 -0.3171 -0.1905  0.0102
 7137W        W23984  13.240   7.378   0.110 -0.1845  0.0296  0.0503
 7138W        W23985  12.573   0.004   4.554 -0.3388 -0.0055  0.0830
 7139W        W23986   4.391   1.885   0.367  0.1481 -0.0474  0.0303
 7140W        W23987  17.629  17.658  12.396 -0.1722 -0.3146  0.0762
 7141W        W23988  12.523   5.061   0.068 -0.0775  0.0711  0.2209
 7142W        W23989   0.321  12.977   2.698 -0.0818 -0.2647  0.1729
 7143W        W23990  12.272  16.971   4.372  0.1279  0.0641  0.0502
 7144W        W23991  18.372  10.149   5.002  0.0072  0.0257 -0.0494
 7145W        W23992   0.220  12.028  11.976  0.2658 -0.1914 -0.0301
 7146W        W23993   4.049   3.373  11.306 -0.1030  0.3499  0.1697
 7147W        W23994   1.564   5.268  14.468  0.0169  0.0205  0.2897
 7148W        W23995   7.868   2.860   5.102 -0.0181  0.2685 -0.1964
 7149W        W23996   1.231   2.429  11.527 -0.2467 -0.0773  0.3200
 7150W        W23997   8.686  11.426  13.543  0.0607 -0.1457 -0.1312
 7151W        W23998  10.926  14.811  15.730  0.1506 -0.0059 -0.0553
 7152W        W23999   5.514  10.227   3.376  0.3201  0.2559  0.0044
 7153W        W24000   3.181   9.349  12.086 -0.0099  0.0011 -0.1799
 7154W        W24001   2.576   1.018  15.977 -0.1900  0.1262  0.1134
 7155W        W24002  11.398   1.470  13.831 -0.2856 -0.0057 -0.1760
 7156W        W24003  12.225  15.325   2.205 -0.0405  0.0413 -0.0398
 7157W        W24004  11.803  13.611  11.557 -0.1182 -0.1542 -0.1799
 7158W        W24005   6.623  18.408   0.108  0.1491 -0.4721  0.1612
 7159W        W24006   4.918   6.384  11.268 -0.0282  0.0772 -0.2725
 7160W        W24007  16.144   0.553   3.689  0.2309  0.1293 -0.2604
 7161W        W24008  16.522   2.937  16.136 -0.0433  0.0920  0.3576
 7162W        W24009  13.730  17.469   3.706 -0.4270  0.1911  0.0503
 7163W        W24010   5.489   4.079   4.483 -0.2970 -0.0184 -0.0340
 7164W        W24011   0.531  12.416  13.195  0.0239 -0.0350 -0.2058
 7165W        W24012  18.281   0.638   1.712 -0.0439 -0.1418 -0.0622
 7166W        W24013   1.295   9.595   4.721  0.0955  0.2999 -0.0947
 7167W        W24014  11.316  13.323  13.770 -0.0819 -0.0977 -0.0781
 7168W        W24015   5.377  12.930   5.987  0.0552  0.1583 -0.0096
 7169W        W24016   6.285  14.480  14.623 -0.0623  0.1009  0.0387
 7170W        W24017  15.789   4.510   4.007  0.0770 -0.1528 -0.0924
 7171W        W24018   5.822  14.026   0.802  0.0255 -0.0413 -0.0739
 7172W        W24019  11.281   9.790   1.961 -0.0042 -0.0090 -0.3340
 7173W        W24020   5.468  11.688  13.082  0.2375  0.0489 -0.2518
 7174W        W24021  12.393   2.230   2.117 -0.2654 -0.2735  0.1088
 7175W        W24022   0.638  16.976   4.772 -0.4081 -0.0348  0.0259
 7176W        W24023   4.701  15.231   3.195  0.3069  0.0558  0.1613
 7177W        W24024  13.208   0.802   4.287  0.0498  0.0087  0.0324
 7178W        W24025   7.857  13.493   1.580  0.0744  0.0391 -0.1993
 7179W        W24026  10.914   5.501   4.130 -0.1646  0.1046  0.0135
 7180W        W24027   3.145  15.038   0.051  0.0650  0.0359  0.1037
 7181W        W24028   0.793  11.797  14.729 -0.1283 -0.2416 -0.0990
 7182W        W24029  16.793  16.951  14.650  0.2507  0.3313 -0.0518
 7183W        W24030  12.172  14.964   0.712 -0.1756 -0.1627  0.1225
 7184W        W24031   6.361   8.913  15.633  0.0170 -0.1438 -0.1050
 7185W        W24032   2.606   1.338  14.393 -0.0904  0.0409 -0.1954
 7186W        W24033   6.066  17.727  11.680  0.1706 -0.0744  0.0262
 7187W        W24034  11.015   8.078  12.278  0.0487  0.2188  0.2751
 7188W        W24035   7.589  12.106   0.548  0.2801  0.2555 -0.1669
 7189W        W24036  17.074   5.463   3.789  0.0512 -0.0476  0.2613
 7190W        W24037  11.943  15.723  13.219  0.2556 -0.1062  0.0132
 7191W        W24038   2.392  15.176  14.391  0.5486 -0.0071  0.2692
 7192W        W24039  16.584  14.054   2.893  0.1919 -0.0261  0.1124
 7193W        W24040   2.840   6.749   1.679  0.0797 -0.0850  0.0119
 7194W        W24041  12.541   2.583   3.303 -0.1509 -0.5022  0.1250
 7195W        W24042  14.785   3.253  11.058 -0.1608  0.2481 -0.1293
 7196W        W24043   7.885   2.191   5.882  0.0316  0.1986 -0.2174
 7197W        W24044  11.262   5.194   2.875  0.2361  0.1042 -0.1328
 7198W        W24045   4.711   0.129  15.663  0.2169 -0.0795 -0.0709
 7199W        W24046  16.894   0.874   0.446  0.1880  0.0990 -0.4857
 7200W        W24047   3.625   8.206   3.667  0.0543 -0.1094  0.4162
 7201W        W24048   0.928   2.415  11.905  0.2543 -0.1377  0.1492
 7202W        W24049   8.747  15.334  14.708  0.2997 -0.0434  0.1662
 7203W        W24050   0.550   9.832   0.202 -0.3184 -0.1232  0.2548
 7204W        W24051  12.909   2.270   1.972 -0.4625 -0.1453  0.0732
 7205W        W24052  13.426   4.116   2.774 -0.1759  0.0702  0.1666
 7206W        W24053  10.910  15.285   4.117  0.2866  0.1133 -0.0949
 7207W        W24054  12.664   7.313  15.646  0.1084 -0.1195 -0.1395
 7208W        W24055  10.628  15.454  14.479 -0.1674 -0.1325  0.3492
 7209W        W24056   2.796   8.695  13.982  0.1982  0.0581  0.0381
 7210W        W24057   5.692   3.576  11.998 -0.0866 -0.0574  0.1489
 7211W        W24058   2.326  11.282  12.845 -0.1271  0.1926 -0.0290
 7212W        W24059   1.780  11.662  11.404  0.0177  0.0033 -0.1950
 7213W        W24060   0.969   9.840  16.285  0.5426  0.0435 -0.0315
 7214W        W24061   3.926   6.019   3.211  0.1115 -0.0840  0.0895
 7215W        W24062   2.396  15.880   4.251 -0.1510  0.0976 -0.0678
 7216W        W24063   1.309   6.658  15.747 -0.2541  0.0928 -0.1376
 7217W        W24064  11.593   6.037  11.149  0.2376 -0.2389 -0.0816
 7218W        W24065   7.049   1.209   5.128 -0.2160  0.1108 -0.1417
 7219W        W24066   3.050   7.063   3.625 -0.3016 -0.0182 -0.0043
 7220W        W24067   7.475   0.677   3.658 -0.1386  0.0625  0.1978
 7221W        W24068  11.045   0.289  10.550 -0.0048 -0.2183  0.0336
 7222W        W24069  10.009   7.188  11.432  0.0007  0.1533 -0.0261
 7223W        W24070   7.428   2.032  12.569 -0.1322  0.1847 -0.1521
 7224W        W24071   8.768   9.184  15.937  0.0039 -0.1407 -0.0012
 7225W        W24072   6.578  11.477  11.822 -0.4104 -0.1295 -0.0220
 7226W        W24073  10.269   6.681   1.732 -0.1252  0.1877 -0.0742
 7227W        W24074  14.382   2.435  12.903 -0.1513  0.0283  0.0276
 7228W        W24075  10.506   9.983  11.241 -0.0550 -0.1922 -0.0619
 7229W        W24076  10.536   9.616   0.571  0.2844 -0.1816  0.0892
 7230W        W24077  16.239   2.563   1.654  0.2912  0.1784  0.3339
 7231W        W24078   4.883  17.538  13.953  0.0260 -0.0343  0.1288
 7232W        W24079   2.308   6.166  10.252  0.4292 -0.0666  0.1402
 7233W        W24080  18.404   3.851  14.551  0.0711  0.0393 -0.1692
 7234W        W24081   9.237  10.345   2.196 -0.0770  0.3271  0.1728
 7235W        W24082  10.876   3.394   0.663  0.1898  0.2446 -0.1489
 7236W        W24083   5.194   9.888  11.735 -0.2171 -0.3306  0.0612
 7237W        W24084   1.586  17.100  15.122 -0.0293  0.1506  0.1552
 7238W        W24085   9.955   0.967   1.882 -0.2248 -0.2560  0.3548
 7239W        W24086  10.968   4.557   0.505 -0.0440  0.1552 -0.1592
 7240W        W24087   1.300  13.758  12.967 -0.1731  0.1119  0.4133
 7241W        W24088  13.971   6.134   1.132  0.0071 -0.0230 -0.0292
 7242W        W24089   8.674  14.495   2.462  0.0206 -0.0573  0.4572
 7243W        W24090   0.401   5.700   1.392  0.0993 -0.5519  0.4060
 7244W        W24091   3.673  13.694   3.251  0.2565  0.2034  0.2741
 7245W        W24092   5.222  12.566   0.559  0.0459  0.0890  0.1531
 7246W        W24093   2.012  16.021  14.155  0.1146 -0.0679 -0.3116
 7247W        W24094   4.115  13.694   5.400 -0.0438 -0.1773  0.1980
 7248W        W24095   6.521  16.234   2.217  0.1835 -0.0562  0.1388
 7249W        W24096   7.123   3.605  14.462 -0.3394 -0.1710  0.1191
 7250W        W24097   3.777  14.493  15.206 -0.2479  0.0555  0.3414
 7251W        W24098   6.930   5.791   0.860 -0.2089  0.0654 -0.3421
 7252W        W24099   0.093   2.915  15.497  0.2015 -0.1117  0.1346
 7253W        W24100   2.798  11.988   5.629  0.0365 -0.0887  0.0976
 7254W        W24101   9.192  11.967   6.101  0.0430  0.2808 -0.2268
 7255W        W24102   3.670   6.454  14.187 -0.1710 -0.0355 -0.2827
 7256W        W24103   2.858   3.585  14.022  0.0271  0.2326  0.0388
 7257W        W24104   4.261   7.749   2.304  0.1411 -0.0175  0.0229
 7258W        W24105  12.584  11.044   1.570  0.0131  0.3341 -0.0723
 7259W        W24106   4.330  17.187  11.634  0.1914 -0.2058 -0.1635
 7260W        W24107   5.997  14.895  15.489 -0.1517 -0.3069 -0.3422
 7261W        W24108   8.899   9.345   3.379 -0.1039 -0.5815  0.1029
 7262W        W24109   3.327   1.530   4.557  0.3691 -0.0609 -0.0565
 7263W        W24110  15.077   0.063  15.494  0.3190 -0.0531 -0.0602
 7264W        W24111   5.297   8.056  15.656  0.1303  0.0672  0.2945
 7265W        W24112   2.637  11.394  13.703  0.2300  0.0320  0.3011
 7266W        W24113  13.453   1.166   2.389  0.3191 -0.1950  0.0161
 7267W        W24114   2.330   7.530   3.490  0.1609 -0.3013 -0.3617
 7268W        W24115   8.902  16.328  15.952  0.2638 -0.0199 -0.0873
 7269W        W24116  16.789   3.533   0.574  0.4416 -0.2070 -0.0733
 7270W        W24117  12.328  17.047  12.775  0.1437  0.1096  0.0242
 7271W        W24118   1.865   8.680   0.927 -0.1007 -0.0278 -0.0415
 7272W        W24119  17.697   0.204  11.071 -0.3439 -0.0046  0.3082
 7273W        W24120  14.114   2.576  15.493 -0.0422 -0.0929 -0.3136
 7274W        W24121  16.738   6.230   0.694  0.0834  0.2841  0.2679
 7275W        W24122   4.626  14.329  15.859 -0.0070  0.0929 -0.0502
 7276W        W24123   1.035  15.889   5.044 -0.1706  0.4597  0.2292
 7277W        W24124   3.884   6.974   4.854 -0.1418  0.2133 -0.1314
 7278W        W24125  15.168  11.213   4.436 -0.3146 -0.1469  0.1129
 7279W        W24126   7.595   4.076  12.270  0.2894  0.0847 -0.0649
 7280W        W24127  15.341  13.026   1.165  0.2285 -0.0094  0.1033
 7281W        W24128  15.851  11.203   4.227  0.0096  0.1147 -0.0406
 7282W        W24129  11.164  18.212  12.493 -0.3368 -0.2019  0.1775
 7283W        W24130   1.107   1.171   0.299 -0.2978  0.1241 -0.0910
 7284W        W24131  14.621   4.267  14.566 -0.0248 -0.1585 -0.3946
 7285W        W24132   5.727   6.104   3.192  0.0561  0.1328  0.2214
 7286W        W24133  16.192   1.999  13.251 -0.0548 -0.2728  0.1580
 7287W        W24134   1.352  18.379   0.305  0.2050 -0.1571 -0.1970
 7288W        W24135  13.462  11.280  15.767  0.1374  0.2140 -0.2021
 7289W        W24136  13.733   9.583   5.303  0.1690  0.1456 -0.3540
 7290W        W24137   1.597   7.605  14.788  0.2440  0.0886  0.1492
 7291W        W24138   2.822   5.136   0.797 -0.1856 -0.0134  0.1310
 7292W        W24139   9.250   0.004  15.028  0.0341  0.1327 -0.0466
 7293W        W24140  14.360   5.750  14.187 -0.1710 -0.3110 -0.0579
 7294W        W24141   0.826   7.318  12.503  0.0001 -0.1542  0.2057
 7295W        W24142   2.604   2.340   1.289 -0.0978  0.0799 -0.0054
 7296W        W24143  10.622   4.904   1.382  0.3156  0.1582  0.1351
 7297W        W24144  13.467   1.902  12.545 -0.0833  0.1403 -0.1334
 7298W        W24145  10.091  16.290  13.329  0.3025 -0.1199 -0.1503
 7299W        W24146  16.818  13.628  14.903 -0.0383  0.1917  0.1103
 7300W        W24147  12.361   4.351   3.777 -0.1378  0.0597  0.2599
 7301W        W24148   7.687  12.044  13.157 -0.0654 -0.2534  0.0333
 7302W        W24149   5.838   4.538   2.230 -0.2206 -0.1576 -0.0312
 7303W        W24150   5.623  10.265  15.490 -0.0017  0.1154 -0.1573
 7304W        W24151  15.308   5.289   2.040  0.2031  0.4119 -0.3986
 7305W        W24152  14.889  12.826   0.815  0.1350  0.1778  0.2430
 7306W        W24153   8.610  15.147   0.628 -0.2697 -0.0730  0.4183
 7307W        W24154   0.136   9.894   1.040 -0.0476  0.1473  0.0774
 7308W        W24155   8.022   5.805   1.166  0.0421  0.0662 -0.2267
 7309W        W24156   9.855   1.515  11.412  0.0668  0.0278 -0.3283
 7310W        W24157   9.277   3.376  14.749 -0.0856 -0.1013 -0.0700
 7311W        W24158   3.295   9.323   2.871  0.1524 -0.0381 -0.0981
 7312W        W24159   5.543   2.246  15.260  0.2591  0.3793  0.0476
 7313W        W24160  11.687  14.955   5.253 -0.0863  0.2951 -0.2069
 7314W        W24161  17.860   4.233  10.929 -0.2370  0.0386 -0.2069
 7315W        W24162   1.008   4.965  13.058 -0.1888  0.0179  0.0491
 7316W        W24163  10.342   3.000  14.443 -0.1958  0.1222  0.0476
 7317W        W24164   7.704  10.746   4.981 -0.1473  0.2305 -0.0730
 7318W        W24165  10.911  14.253  15.807  0.1586 -0.0854  0.1209
 7319W        W24166   8.232  13.641   2.889  0.0822 -0.0063  0.1450
 7320W        W24167  12.750   4.256   0.075 -0.0477  0.0954  0.0944
 7321W        W24168  13.733  17.851   2.811 -0.1953  0.1208 -0.0357
 7322W        W24169  14.667   2.310  14.192  0.1587 -0.3290  0.1508
 7323W        W24170  16.150   0.307   3.263 -0.0090 -0.2297 -0.0095
 7324W        W24171   8.116   0.234  14.123  0.1668  0.0270 -0.0028
 7325W        W24172   0.969   9.559  15.068  0.2002  0.3635 -0.1903
 7326W        W24173   8.893   3.560  15.108 -0.0987 -0.4621 -0.1791
 7327W        W24174   0.329  15.958   1.493  0.1755 -0.0967  0.3028
 7328W        W24175   6.077  16.048  13.499 -0.1567  0.0423  0.2222
 7329W        W24176   3.319   3.252   2.177 -0.2874  0.1343 -0.0074
 7330W        W24177  14.132  14.630   1.978 -0.0276  0.0880  0.3822
 7331W        W24178  14.645  14.157  11.110 -0.1549 -0.1053 -0.1742
 7332W        W24179   5.639   1.456  11.552 -0.0791  0.1163  0.1008
 7333W        W24180   9.623  16.919   1.924  0.0541 -0.3068 -0.2393
 7334W        W24181   9.908   8.033  14.778  0.3657 -0.3588 -0.4549
 7335W        W24182  12.690   3.995  14.016  0.1263 -0.0799 -0.1259
 7336W        W24183   1.144  11.425   5.293 -0.2629  0.1945 -0.0625
 7337W        W24184   0.949   3.129  13.629 -0.1389 -0.0778  0.0106
 7338W        W24185  12.727   4.408  11.373 -0.0963 -0.1090 -0.0595
 7339W        W24186   8.374  14.154  14.041  0.3143  0.0615  0.0680
 7340W        W24187   0.422   1.115  12.008 -0.0527 -0.4360 -0.0352
 7341W        W24188  13.348  16.560  11.946 -0.1499  0.2240  0.1466
 7342W        W24189  11.488   3.701  12.227 -0.1480 -0.2606  0.2576
 7343W        W24190  17.735  16.056  16.127  0.0415 -0.1349 -0.0023
 7344W        W24191  18.210   4.375  13.744  0.1230  0.2316 -0.2416
 7345W        W24192   4.397  14.797   4.110 -0.1389 -0.1009  0.1045
 7346W        W24193  12.457   5.008   4.436  0.1503  0.0486 -0.0988
 7347W        W24194  17.500  13.462  14.736 -0.0585 -0.0255 -0.2622
 7348W        W24195  17.617   9.089   1.280 -0.2213  0.1541 -0.0067
 7349W        W24196   4.327  17.597   0.231  0.3642  0.4277  0.0809
 7350W        W24197   7.809   7.751  15.805 -0.0028  0.0866 -0.0837
 7351W        W24198   3.163  17.958   0.916  0.2885  0.1243 -0.0643
 7352W        W24199  13.203  10.937   4.520 -0.2622 -0.3151  0.0275
 7353W        W24200   5.961  11.596  13.613 -0.1249  0.0394  0.0869
 7354W        W24201  13.463  16.778  15.131 -0.1844 -0.1679 -0.1681
 7355W        W24202   5.633   4.576   4.410 -0.0490 -0.1273 -0.1114
 7356W        W24203  15.087   2.796  10.829  0.0650 -0.2660 -0.1471
 7357W        W24204  14.312   6.722   4.085  0.0198  0.3573  0.0683
 7358W        W24205  14.029  10.237  15.129  0.0622  0.0215 -0.2032
 7359W        W24206  14.573  11.433  13.964 -0.2150  0.0190 -0.0766
 7360W        W24207   3.805  10.632  16.357 -0.2020 -0.1951  0.0704
 7361W        W24208   0.766   9.475  13.171 -0.3100 -0.2834  0.1134
 7362W        W24209   4.342   2.771   5.080  0.1319  0.2904  0.0024
 7363W        W24210   2.643  14.999   4.355  0.1950 -0.0235  0.0957
 7364W        W24211   0.550   4.830   1.968  0.1396  0.1034 -0.0712
 7365W        W24212   5.219   2.986   0.141  0.2998 -0.2896  0.0559
 7366W        W24213  12.195   8.853   3.594 -0.2364 -0.0323  0.0271
 7367W        W24214  11.960  12.228  12.128 -0.0152 -0.0587  0.1562
 7368W        W24215  16.207  15.017  13.578  0.0892 -0.1928  0.1396
 7369W        W24216   5.354  13.147   3.003  0.3933  0.0549  0.0178
 7370W        W24217   8.829  13.660   5.742 -0.0428 -0.0111 -0.0785
 7371W        W24218   4.775  15.748   1.369  0.0031 -0.0741  0.1100
 7372W        W24219   3.189   1.710  12.811 -0.0127 -0.2507 -0.2452
 7373W        W24220  16.952   0.688  13.311  0.1083  0.1630 -0.0506
 7374W        W24221   5.259  17.352  13.058  0.1574 -0.0087 -0.2062
 7375W        W24222   4.981  10.825  14.462 -0.1341  0.0336  0.3184
 7376W        W24223   0.217   2.009   4.019 -0.1108 -0.0441 -0.0756
 7377W        W24224   8.323  10.144  15.532 -0.1038 -0.2342 -0.0790
 7378W        W24225  11.112   0.559   5.340 -0.3706 -0.0296 -0.1136
 7379W        W24226  12.076   2.203  12.049 -0.0297  0.0730 -0.2250
 7380W        W24227   7.699   7.814  12.777  0.1063  0.0582 -0.1384
 7381W        W24228  16.402   7.454   5.130 -0.2026  0.0428 -0.3458
 7382W        W24229  10.245  14.642   1.827  0.0037 -0.1013 -0.0272
 7383W        W24230  17.740  14.656  15.536 -0.0239  0.0188 -0.2117
 7384W        W24231   9.140  14.628  11.665  0.0247 -0.2791  0.0503
 7385W        W24232   7.129   3.856   0.392 -0.2902  0.1442 -0.1927
 7386W        W24233   8.846  14.582   5.303 -0.0693 -0.2120 -0.0376
 7387W        W24234   5.855  15.358  12.059  0.2182 -0.1714 -0.4411
 7388W        W24235   4.599  12.874  13.711  0.1925 -0.2788  0.1837
 7389W        W24236   4.109  14.333  12.671 -0.5206  0.0570  0.1624
 7390W        W24237   6.891   5.710  15.524 -0.0252  0.3811 -0.2478
 7391W        W24238  13.828  15.935  12.279  0.3363 -0.0327  0.0388
 7392W        W24239   6.500   6.267   2.537  0.3062 -0.5259  0.2588
 7393W        W24240  15.123   3.545   3.201 -0.0519 -0.0227  0.1693
 7394W        W24241  12.556   6.248   2.525  0.0672 -0.0282 -0.0679
 7395W        W24242  11.997   7.392  14.993 -0.1419  0.0140 -0.3362
 7396W        W24243  13.038  11.021  11.655 -0.4327 -0.1814 -0.3236
 7397W        W24244  16.657   3.796   1.590 -0.0682  0.0106 -0.1495
 7398W        W24245  14.290   5.279   3.051  0.0267  0.0248 -0.0703
 7399W        W24246  14.192  11.319   1.642 -0.1278  0.0052 -0.0453
 7400W        W24247  17.240  15.127   2.250 -0.1160 -0.2117 -0.0855
 7401W        W24248  13.212   9.760   3.112 -0.2251 -0.1595  0.0989
 7402W        W24249  17.759   7.066   0.695 -0.1164  0.3200  0.0580
 7403W        W24250  13.874   1.032  14.643 -0.1368 -0.2544  0.2251
 7404W        W24251   9.257  12.450  12.405  0.1482 -0.1417 -0.0660
 7405W        W24252   1.234  17.155  15.492 -0.2910 -0.0413 -0.2326
 7406W        W24253   7.838  11.664  15.561 -0.1313 -0.2244 -0.1538
 7407W        W24254   4.960   3.302  11.657 -0.1183 -0.1001 -0.0983
 7408W        W24255  14.828   7.235  12.964 -0.2228 -0.3189  0.2823
 7409W        W24256  10.693   9.883  15.276  0.1716  0.1576 -0.1403
 7410W        W24257   3.618  12.600   2.498 -0.0841  0.0275 -0.0704
 7411W        W24258  14.601   4.696  11.575  0.1113 -0.1295 -0.1121
 7412W        W24259  18.046   9.950   3.600  0.1065 -0.2753  0.0326
 7413W        W24260   5.141   5.099   0.164  0.0685 -0.1995 -0.1336
 7414W        W24261   9.656   9.512  16.357  0.0192 -0.1498  0.2075
 7415W        W24262   8.274  13.681  14.443  0.0583 -0.0091  0.3219
 7416W        W24263  17.417  15.444  13.058  0.0227  0.4694 -0.0871
 7417W        W24264   8.173   8.850   4.517  0.1804  0.3320  0.1153
 7418W        W24265   0.935   8.085  16.023  0.0115  0.1771 -0.0123
 7419W        W24266  10.258   3.775  15.657 -0.2220 -0.1056  0.1658
 7420W        W24267   2.034   5.952  14.505 -0.0500 -0.0741 -0.3660
 7421W        W24268  12.802   5.340  16.163 -0.0643 -0.1586  0.1787
 7422W        W24269  12.102   7.780  14.318  0.1444 -0.3160  0.2190
 7423W        W24270  10.627  10.388  14.846  0.1886  0.0087 -0.0090
 7424W        W24271   8.734  17.945  14.152  0.1368  0.4456  0.2185
 7425W        W24272  13.912   2.441   3.577  0.0743  0.1159 -0.0132
 7426W        W24273   4.127  17.666  12.106 -0.0866 -0.1325  0.0687
 7427W        W24274   1.236  16.993  15.955 -0.0617  0.0799  0.2005
 7428W        W24275  15.948  11.315  11.655 -0.0400  0.2127 -0.2895
 7429W        W24276  13.934   3.187  12.797  0.3298 -0.1017 -0.2994
 7430W        W24277   9.678  11.726   3.847  0.3756 -0.0757  0.3908
 7431W        W24278   2.722   2.614   0.260  0.2010  0.3677 -0.0336
 7432W        W24279   6.511  18.291   3.532 -0.0207  0.2457  0.0234
 7433W        W24280  11.044   1.192  12.388  0.2161  0.2055  0.2030
 7434W        W24281  14.066   8.851   2.699  0.0328 -0.0400 -0.0751
 7435W        W24282   4.020   7.072   4.406 -0.0901  0.0518 -0.2593
 7436W        W24283  11.168   3.247   4.191  0.0495  0.2518  0.2595
 7437W        W24284  12.180   9.712  16.139  0.5052  0.1730 -0.2964
 7438W        W24285   9.491   6.423  11.969  0.0619  0.3089  0.0341
 7439W        W24286   2.775   6.997   0.078  0.1667  0.0409  0.0003
 7440W        W24287   6.958  16.126  15.834  0.1521 -0.4861  0.0777
 7441W        W24288   5.936  18.146   0.715 -0.0100 -0.1421 -0.0870
 7442W        W24289  10.993   7.051  11.490 -0.0332 -0.0102 -0.0377
 7443W        W24290   8.579   4.525   3.698 -0.4964  0.1350 -0.1466
 7444W        W24291   5.219   1.112  16.305 -0.1236  0.1350 -0.2283
 7445W        W24292   9.803  12.014   3.360  0.1237 -0.0777  0.0940
 7446W        W24293   9.083  15.339   2.354  0.0233  0.0416 -0.1519
 7447W        W24294  18.318   4.238  13.257 -0.0511 -0.0191 -0.3169
 7448W        W24295  14.742  16.480   1.911 -0.0294  0.1218  0.0573
 7449W        W24296   1.626  16.118   1.402 -0.1757  0.2303 -0.0110
 7450W        W24297  15.029  15.063   5.234 -0.2902  0.1984 -0.2452
 7451W        W24298   9.741   8.280   1.985  0.1063  0.0770  0.0576
 7452W        W24299   3.159  12.826   3.747  0.3745  0.0991 -0.0991
 7453W        W24300   5.759  10.146   1.739  0.0036  0.0939  0.5099
 7454W        W24301  10.167   7.299   0.075 -0.0688 -0.0798 -0.2349
 7455W        W24302  17.124   0.295   4.362  0.1984 -0.0620  0.2125
 7456W        W24303   0.824  12.593   0.109 -0.2352  0.3162 -0.1246
 7457W        W24304   7.655  10.212  14.170  0.1957 -0.0031  0.1477
 7458W        W24305   8.676   1.643   2.197 -0.1587  0.2426  0.0657
 7459W        W24306  16.419   2.384   2.075 -0.1553 -0.1638 -0.1091
 7460W        W24307  14.506  16.636   1.283 -0.2081  0.3179 -0.0977
 7461W        W24308   2.353   1.200  16.345  0.0136  0.2771 -0.0940
 7462W        W24309   1.942  10.527   5.909  0.0880 -0.0719 -0.0473
 7463W        W24310   9.381  15.760   1.416  0.0503  0.0845 -0.0035
 7464W        W24311  16.661  14.809  13.485 -0.1975  0.1512 -0.0096
 7465W        W24312  14.023  18.110  13.419  0.2540  0.3342  0.0804
 7466W        W24313  16.261  14.868  12.798  0.0892 -0.0180 -0.1613
 7467W        W24314  10.401   5.917  14.078 -0.0359 -0.2520 -0.0082
 7468W        W24315  16.605  10.569   1.596 -0.1041  0.1902 -0.0258
 7469W        W24316  10.288   4.633   4.158 -0.0945  0.0579  0.1020
 7470W        W24317  15.430   6.751   3.328  0.2746 -0.2119  0.0075
 7471W        W24318   3.958  13.801  11.838  0.4917  0.1235 -0.4362
 7472W        W24319   7.527  17.808  11.269  0.1134 -0.1652 -0.2280
 7473W        W24320  16.774   9.039   1.204 -0.1269 -0.3225  0.1786
 7474W        W24321   0.623   4.321   4.624  0.0774  0.0998  0.0522
 7475W        W24322   8.017  12.840  12.286  0.1373 -0.2761  0.3879
 7476W        W24323   1.861  10.989  15.950  0.0891 -0.2223 -0.2572
 7477W        W24324   0.528   1.969   4.984 -0.0414 -0.1321 -0.0515
 7478W        W24325  17.478   9.424   0.029  0.5222  0.0318 -0.2000
 7479W        W24326   0.472   5.869   0.622 -0.0093 -0.0206  0.2238
 7480W        W24327  17.159  16.246   5.503 -0.0116  0.0188 -0.1470
 7481W        W24328   2.465  14.222  11.760 -0.4230  0.0926  0.1112
 7482W        W24329  14.531  13.605  13.485 -0.0852 -0.4598  0.0366
 7483W        W24330   7.996  11.711   3.431 -0.5325  0.0053  0.0362
 7484W        W24331  16.116   8.397  15.958 -0.0814 -0.3450  0.2419
 7485W        W24332   0.601   1.014  15.246 -0.0440 -0.1488 -0.2967
 7486W        W24333  15.079  12.901   3.047  0.1290  0.0714  0.0647
 7487W        W24334  14.715   2.899   0.017  0.3227 -0.2931  0.1339
 7488W        W24335   1.507  11.280  12.284  0.0219 -0.2194  0.1792
 7489W        W24336  14.461   8.273   3.724 -0.1209 -0.1304 -0.1370
 7490W        W24337   8.296   6.011  12.817  0.2146  0.3277  0.1253
 7491W        W24338   6.570   4.115  13.686  0.0567  0.1003 -0.0371
 7492W        W24339   0.865  16.092   3.412 -0.2132  0.1850 -0.0602
 7493W        W24340   1.070   6.232   9.555 -0.3012  0.1840  0.1691
 7494W        W24341   0.930   8.794  14.973 -0.0720 -0.0996  0.3630
 7495W        W24342   6.808  11.102   0.368  0.0591 -0.0982 -0.2914
 7496W        W24343  15.023   4.977  11.717 -0.1269  0.0787  0.0819
 7497W        W24344   9.389   1.540  14.992  0.2865 -0.0410  0.2041
 7498W        W24345  15.839   1.718   4.588  0.0462  0.2952  0.1356
 7499W        W24346  11.503  14.568  11.968 -0.1445  0.2175 -0.3981
 7500W        W24347   0.897  14.926  14.982 -0.0670 -0.1206 -0.1762
 7501W        W24348   6.029   7.522   3.808 -0.2660  0.0382 -0.1225
 7502W        W24349  14.726  17.574   0.826 -0.2542 -0.1431  0.3807
 7503W        W24350  14.469  12.998  15.710  0.1653 -0.3881  0.0890
 7504W        W24351   6.197  17.419   2.040 -0.1299  0.1705  0.0747
 7505W        W24352   7.188   6.669   1.907 -0.2741 -0.1788  0.1333
 7506W        W24353  10.864  12.415   1.867  0.0770 -0.2009  0.3348
 7507W        W24354  16.548  10.685  13.489 -0.0796  0.0177  0.0153
 7508W        W24355  11.129   6.730  13.391 -0.1617  0.1945 -0.1972
 7509W        W24356  14.976   7.573   4.711  0.4114  0.1852  0.0060
 7510W        W24357   7.088   5.471   4.914 -0.0883  0.0035 -0.2695
 7511W        W24358   0.587  16.236   2.272  0.0674 -0.2192 -0.1328
 7512W        W24359  13.174  13.360   5.368 -0.2428  0.0852  0.3683
 7513W        W24360  10.741   0.049  11.771  0.2191  0.1625  0.1574
 7514W        W24361   0.694   8.581  13.377  0.1555  0.0107 -0.0805
 7515W        W24362  11.753  13.324   1.317 -0.1227 -0.3167  0.2027
 7516W        W24363   8.831   2.259  12.065 -0.0009  0.0190 -0.1797
 7517W        W24364  14.645  10.400   2.661  0.2244  0.0402 -0.0418
 7518W        W24365   1.725  10.940   1.886  0.0251 -0.3096  0.1868
 7519W        W24366   9.125   5.267   3.639  0.0089  0.1190  0.4340
 7520W        W24367  13.445  12.906   2.955 -0.1484 -0.0164 -0.0304
 7521W        W24368   2.539  14.253  14.499  0.0461 -0.0766  0.1033
 7522W        W24369  16.448  10.366   0.440  0.0175  0.5270  0.0701
 7523W        W24370  10.679   8.728  14.415 -0.2294 -0.1515  0.0283
 7524W        W24371  11.511  13.723  16.008  0.2833 -0.4019  0.2535
 7525W        W24372   9.580  10.046  16.234  0.0284 -0.1927 -0.3415
 7526W        W24373   5.290   2.050   4.305  0.3149 -0.0301 -0.0082
 7527W        W24374  16.268  10.168   1.728 -0.0350 -0.0439  0.0170
 7528W        W24375  12.759  12.369   0.337  0.4424 -0.0782 -0.0888
 7529W        W24376  12.927   7.906  13.946 -0.1406  0.0105 -0.0760
 7530W        W24377   3.352  10.395  16.321 -0.0336 -0.1278  0.0077
 7531W        W24378  13.168   3.395  11.916  0.1737 -0.1299 -0.2216
 7532W        W24379   6.344   3.099  11.377  0.0500  0.1563  0.0967
 7533W        W24380   8.454  13.381  13.218 -0.0892 -0.0426  0.1707
 7534W        W24381   7.863  10.585   0.687 -0.2831 -0.0450 -0.0352
 7535W        W24382   9.991   0.818  12.791 -0.0624  0.1464 -0.1545
 7536W        W24383   9.505   6.531  14.266 -0.0665  0.0473 -0.0611
 7537W        W24384   1.226  10.062   4.491 -0.0732 -0.0621  0.0826
 7538W        W24385   0.322   6.755  15.786 -0.4410  0.0459 -0.4805
 7539W        W24386   6.626   0.005   4.588  0.0727 -0.2196  0.0292
 7540W        W24387  15.484   6.786  12.005  0.3043 -0.0682  0.2374
 7541W        W24388  10.677  10.510   5.241 -0.0859  0.1334 -0.4836
 7542W        W24389  16.681   6.216   3.961 -0.3204  0.1219  0.2436
 7543W        W24390   9.954   7.129  12.764 -0.0203  0.2369  0.0242
 7544W        W24391   0.649  13.278  11.401  0.2135 -0.0101  0.0491
 7545W        W24392   3.054   5.108  11.448  0.2555  0.2886 -0.2947
 7546W        W24393   4.154  11.895  15.013  0.1894  0.0478  0.0850
 7547W        W24394  13.131  11.276   5.034  0.2839 -0.0650  0.0669
 7548W        W24395   9.784   8.552  13.891 -0.0285  0.1029  0.0727
 7549W        W24396   8.334  15.433  11.680  0.1016  0.2804  0.2140
 7550W        W24397   6.120   1.571   1.237 -0.0381 -0.0888  0.1338
 7551W        W24398  10.675   9.404  11.810  0.2930  0.1056  0.3433
 7552W        W24399   8.146  13.084  12.785  0.3035  0.1461  0.0843
 7553W        W24400  11.698   6.699  14.339  0.0161  0.1741 -0.0588
 7554W        W24401  16.861   3.605   4.898  0.0264  0.0145  0.1250
 7555W        W24402  16.288  15.629  15.246 -0.2026  0.2066 -0.0686
 7556W        W24403  16.961  16.177  15.645  0.2218  0.1447  0.1343
 7557W        W24404  14.325  17.591  14.145  0.2505 -0.2184  0.0201
 7558W        W24405   3.818  11.097   4.929  0.0909  0.1668  0.2093
 7559W        W24406  16.353  10.313   5.298 -0.0474  0.2781  0.0800
 7560W        W24407   3.299  17.619   5.074 -0.0055 -0.2951 -0.3202
 7561W        W24408  14.569  14.141  15.839 -0.3456 -0.0374  0.1736
 7562W        W24409  15.830   4.966   0.748  0.0506  0.1976 -0.1725
 7563W        W24410   4.640  17.760   6.227  0.2077  0.1162  0.2268
 7564W        W24411   5.953   3.808  14.271  0.2316  0.0892 -0.0782
 7565W        W24412  14.955   9.606   4.606 -0.1050  0.2970 -0.1455
 7566W        W24413   1.987   1.214  11.243 -0.0276 -0.1252  0.1008
 7567W        W24414  10.111   1.318   1.076  0.0569  0.2128  0.1367
 7568W        W24415  10.818   8.813  14.892 -0.1726 -0.1397 -0.2157
 7569W        W24416  17.230  17.569   4.845  0.1976 -0.1242 -0.0460
 7570W        W24417  15.533  11.088  11.941  0.0049  0.1361 -0.2806
 7571W        W24418   6.151   7.287   1.217 -0.0071  0.0203  0.0151
 7572W        W24419  12.908   0.609  11.294  0.2351  0.0564 -0.0849
 7573W        W24420  17.618   0.093  15.120  0.1596 -0.1247  0.1268
 7574W        W24421   2.844  13.036  13.934 -0.1380  0.2261 -0.0044
 7575W        W24422  12.333   6.435  11.479  0.2783  0.0061 -0.3827
 7576W        W24423   5.527   5.443  14.990  0.0033 -0.1835  0.1084
 7577W        W24424  15.022  13.203   3.926 -0.0388  0.2543  0.1141
 7578W        W24425  16.967  12.667  13.197  0.1912 -0.0203  0.0274
 7579W        W24426  10.797   7.481   1.418  0.2353  0.1520 -0.0159
 7580W        W24427   1.374   8.018  13.030 -0.0300  0.0235  0.1353
 7581W        W24428   0.227  17.184   5.365  0.2155  0.1413  0.2146
 7582W        W24429  14.257  10.710  15.386  0.2727  0.1322  0.0891
 7583W        W24430   0.010   9.567  11.017 -0.0290 -0.1774 -0.0690
 7584W        W24431   5.834  12.811   3.069  0.3093  0.1764  0.2075
 7585W        W24432  14.638   5.477  13.808 -0.2865  0.0402 -0.0466
 7586W        W24433  16.553   3.955  15.243 -0.1611 -0.2676 -0.0026
 7587W        W24434  15.270   4.139   0.462  0.2403 -0.1813  0.4391
 7588W        W24435   1.087  14.249   0.160 -0.0487 -0.0895  0.1185
 7589W        W24436  10.572   8.352   4.660 -0.2325  0.1447  0.0995
 7590W        W24437  14.565  16.909  11.559  0.0280 -0.0724  0.1431
 7591W        W24438   5.685   6.758   0.108 -0.0350 -0.2589 -0.0493
 7592W        W24439   7.294   8.731  12.862  0.0043 -0.0724 -0.4811
 7593W        W24440   3.734   9.761   1.141 -0.1131 -0.0185 -0.0699
 7594W        W24441   3.543   4.246   2.320 -0.0704  0.4537 -0.1509
 7595W        W24442   2.526   0.698   2.116  0.3566  0.0773 -0.0557
 7596W        W24443   5.945  14.856  12.248 -0.1575  0.1127  0.0816
 7597W        W24444   9.738   2.375  12.082  0.0556 -0.2687 -0.3032
 7598W        W24445   7.275  15.484   2.735  0.1218  0.1160 -0.0035
 7599W        W24446   6.729  17.095   2.031  0.0229  0.0084 -0.0889
 7600W        W24447   2.664  12.840  13.498  0.1008 -0.0101 -0.0946
 7601W        W24448  13.218  11.757  12.334  0.2803  0.0460 -0.1929
 7602W        W24449  15.343   9.862   4.759  0.3165 -0.2601 -0.2161
 7603W        W24450  15.060   1.500   2.652  0.2157  0.1232  0.1107
 7604W        W24451  10.118  12.862   3.017  0.3573 -0.2605  0.0173
 7605W        W24452   6.209  16.552  15.020  0.0129 -0.0844  0.0387
 7606W        W24453   6.789   3.868   3.232 -0.2549 -0.0192 -0.1680
 7607W        W24454  17.388  15.585   1.071  0.1085 -0.0910 -0.0277
 7608W        W24455   2.878  11.369  12.097 -0.1158 -0.2447 -0.1655
 7609W        W24456  11.485   6.317   0.229  0.2544  0.0236 -0.1202
 7610W        W24457  17.375   6.152  10.757  0.1100  0.2638  0.0384
 7611W        W24458   8.117   2.695   1.501 -0.0511  0.2244  0.1152
 7612W        W24459   9.620   0.460   5.095  0.0228 -0.1443 -0.2144
 7613W        W24460   1.541  17.430  12.699 -0.3342  0.1814  0.3091
 7614W        W24461  11.000  15.979  13.394  0.0861  0.0477 -0.2897
 7615W        W24462  16.923  10.209   0.586  0.1327 -0.0641  0.0099
 7616W        W24463   6.349   1.883  14.797  0.1321  0.0576  0.1892
 7617W        W24464   0.842  14.739   0.199 -0.2297 -0.2427  0.1833
 7618W        W24465   0.623  17.640  15.855 -0.3168 -0.0575 -0.2310
 7619W        W24466   2.490  15.743   0.984 -0.1744  0.3932 -0.0167
 7620W        W24467   1.490  11.865   4.095 -0.1809 -0.1024 -0.1727
 7621W        W24468   9.377  17.982  12.382  0.0942 -0.2198 -0.3364
 7622W        W24469  14.661  15.886   4.166  0.0833  0.2012 -0.2087
 7623W        W24470   5.022   6.091   3.951  0.3148  0.1536 -0.0845
 7624W        W24471   1.379  10.921  16.193 -0.1004 -0.0129  0.0011
 7625W        W24472   1.756   7.499   5.005  0.2797  0.0766  0.0146
 7626W        W24473  10.906   6.878  11.005  0.0723 -0.1683 -0.1230
 7627W        W24474  15.688   6.658   2.130 -0.3242  0.0026 -0.1347
 7628W        W24475  13.739  17.038   3.372 -0.3523 -0.2298 -0.1540
 7629W        W24476  13.745   6.185  13.455 -0.2450 -0.3169 -0.0723
 7630W        W24477   8.699   3.234  13.259 -0.1947  0.0553 -0.0339
 7631W        W24478   7.649  10.931  14.008 -0.1288 -0.0042  0.0994
 7632W        W24479   3.957   8.121   1.546 -0.1290 -0.0263 -0.1363
 7633W        W24480   0.931   1.367  15.159  0.1041  0.0803 -0.2255
 7634W        W24481   2.574   5.300  11.571  0.3944 -0.0979 -0.0558
 7635W        W24482  14.072   9.815   4.341  0.1681 -0.1530  0.1816
 7636W        W24483   2.242   1.821  13.120 -0.3344 -0.1946  0.1396
 7637W        W24484   4.451  15.905  13.345 -0.0765  0.2912  0.0904
 7638W        W24485   8.296   5.851  12.344  0.1166 -0.0741 -0.1273
 7639W        W24486  17.037   3.370  12.854  0.1552 -0.0048  0.0055
 7640W        W24487   5.051  13.586   3.115 -0.1852  0.0615  0.0532
 7641W        W24488  17.413  17.358   2.940  0.2056 -0.0684 -0.1400
 7642W        W24489  13.842  13.712  13.437  0.2119  0.2033 -0.0776
 7643W        W24490   4.491   8.965  14.170 -0.0987  0.2127 -0.1466
 7644W        W24491  17.780  10.026  13.368 -0.2169  0.1567 -0.0967
 7645W        W24492   6.850   4.603   4.738 -0.0204 -0.1970  0.1270
 7646W        W24493   9.577   1.183   1.449  0.1849  0.1272  0.0096
 7647W        W24494  14.361  10.613   3.571  0.0142 -0.0391  0.3130
 7648W        W24495  16.763   1.257  14.518 -0.2764  0.0316 -0.3563
 7649W        W24496  14.047   0.005   2.192  0.2751 -0.0859 -0.0060
 7650W        W24497  15.462   3.754   4.632  0.1162  0.1448  0.0569
 7651W        W24498  11.748  10.777  12.049  0.1216  0.2227  0.3465
 7652W        W24499   0.126   0.655  14.364  0.0160  0.1149 -0.0925
 7653W        W24500  13.850   9.805   2.458  0.0995  0.2175  0.0926
 7654W        W24501  10.069  18.123   1.502  0.3887 -0.0287  0.1265
 7655W        W24502   9.099  16.443  14.403 -0.1428 -0.3601 -0.1428
 7656W        W24503   5.813  11.034   6.732 -0.1108 -0.1546  0.0061
 7657W        W24504  11.644   5.154  12.336 -0.0184  0.1901  0.0469
 7658W        W24505   9.061   2.740   4.131  0.1619 -0.1931  0.1394
 7659W        W24506  14.307  10.339   1.149  0.1574 -0.2758 -0.1081
 7660W        W24507   9.941   3.045   5.676  0.1517  0.3179 -0.0260
 7661W        W24508   9.210   5.253   4.704  0.0989 -0.0594  0.1453
 7662W        W24509   3.580  15.521   5.095  0.2369 -0.0575 -0.2045
 7663W        W24510  14.220   9.112  14.470 -0.3409 -0.3122 -0.0565
 7664W        W24511   3.387   4.016  13.478  0.0365 -0.1505 -0.1342
 7665W        W24512   2.307   2.374   4.847 -0.1663  0.1799 -0.1492
 7666W        W24513   7.925  18.132   3.105  0.0205  0.1956  0.1236
 7667W        W24514  11.430  10.815  14.032 -0.1017  0.4045 -0.2074
 7668W        W24515  17.634  11.936   4.072  0.2936  0.1528 -0.1515
 7669W        W24516  10.138   1.365   4.872  0.2812 -0.0368 -0.0664
 7670W        W24517   1.795   0.877  11.724  0.4846 -0.1018  0.1844
 7671W        W24518   7.131   7.135  15.847 -0.0571  0.0130 -0.1823
 7672W        W24519   7.671   1.702  15.890  0.0430  0.2300  0.1787
 7673W        W24520  12.316  11.392   4.527  0.2352 -0.1062 -0.0052
 7674W        W24521   6.293  10.628   0.854  0.0272  0.1644  0.2564
 7675W        W24522   0.362   0.771  14.737 -0.3159 -0.0033 -0.3193
 7676W        W24523   8.766  15.769   1.606  0.2083  0.0564 -0.4596
 7677W        W24524   4.353   9.320  10.664  0.2038 -0.2201 -0.0023
 7678W        W24525   7.946  12.241  14.993 -0.1466 -0.2145  0.1296
 7679W        W24526   4.614   3.910  11.649  0.1514 -0.0776  0.1791
 7680W        W24527  12.503  16.375  14.292  0.1990  0.0117 -0.2982
 7681W        W24528  18.077  12.224  12.802 -0.4080  0.2504  0.0844
 7682W        W24529  14.884   4.574  11.971  0.1206  0.1631 -0.1694
 7683W        W24530   5.609  11.046   1.989 -0.0989  0.1937 -0.1498
 7684W        W24531   9.114   0.697   1.549  0.0616  0.0252  0.1996
 7685W        W24532   4.941   2.541  12.581  0.1662 -0.2442 -0.0703
 7686W        W24533   9.918  11.479   1.600  0.0172  0.1296 -0.1434
 7687W        W24534   9.506   7.439  12.077  0.5309  0.1659  0.1556
 7688W        W24535   3.045  18.014   2.429 -0.1383 -0.1008  0.0005
 7689W        W24536   7.132   6.103   1.760 -0.0172 -0.1777 -0.0101
 7690W        W24537   3.618   0.300  14.547  0.1603  0.1227 -0.0579
 7691W        W24538  16.140  15.065  14.390  0.0685 -0.0172 -0.0445
 7692W        W24539  12.795  11.789   3.623  0.0232 -0.2964 -0.0385
 7693W        W24540  14.514   6.614  14.093 -0.0424 -0.1839  0.0203
 7694W        W24541   6.319   0.605  13.147  0.1427 -0.1373  0.1672
 7695W        W24542   0.813  14.204   3.084 -0.3132  0.0645  0.0527
 7696W        W24543  15.434   6.272   3.578 -0.6017  0.1104 -0.1666
 7697W        W24544   6.004   1.088  12.780  0.0607  0.1500 -0.1610
 7698W        W24545  10.138   2.565   1.763 -0.0923 -0.2348  0.2426
 7699W        W24546   7.148  14.460  16.323  0.3099 -0.1100 -0.0449
 7700W        W24547  14.080  13.756  14.599 -0.1649  0.3361 -0.2101
 7701W        W24548   0.390  10.604  13.630 -0.0359 -0.1491  0.2122
 7702W        W24549   1.240   8.339  13.908 -0.0633  0.1765  0.5139
 7703W        W24550  12.996   1.645  13.340  0.0683 -0.0422  0.0902
 7704W        W24551   1.272  10.045  15.203 -0.2696  0.2918  0.0555
 7705W        W24552  15.593  12.887  12.616  0.2150 -0.1366 -0.0632
 7706W        W24553   7.883   0.424   4.613  0.0623 -0.1054  0.0070
 7707W        W24554   9.897  12.083   4.739  0.0470  0.4748  0.1895
 7708W        W24555  12.927  14.061   1.105  0.2389  0.0249  0.0364
 7709W        W24556   7.926  14.776   5.862  0.2634 -0.0193  0.2125
 7710W        W24557   5.003   3.130  13.545  0.1931  0.1685 -0.1184
 7711W        W24558  17.076   1.144  15.039  0.0459 -0.1644  0.0007
 7712W        W24559   9.233   3.859  12.439 -0.0874  0.1227  0.1350
 7713W        W24560   2.116   7.925   1.503  0.2156  0.0567 -0.0699
 7714W        W24561   9.891   4.752   4.509  0.1065 -0.1515  0.0310
 7715W        W24562  11.206   3.680   0.430 -0.4010  0.0383 -0.0094
 7716W        W24563   6.380  12.004   2.664 -0.0288 -0.1610 -0.3626
 7717W        W24564  12.442   4.151  12.705  0.2533 -0.0480  0.2393
 7718W        W24565   3.558   0.172  11.583 -0.2055 -0.1373  0.0280
 7719W        W24566   8.185   8.597   0.695  0.1521 -0.2493 -0.0521
 7720W        W24567  13.520  15.337  12.617 -0.0007  0.2802  0.1352
 7721W        W24568  17.050   8.408  12.233  0.0354 -0.0414 -0.0017
 7722W        W24569   5.501   5.978  14.821  0.1556 -0.0110 -0.3175
 7723W        W24570  17.841   5.862  10.543 -0.1223  0.1797 -0.2511
 7724W        W24571  11.032  13.878   0.463 -0.3391  0.0676  0.1512
 7725W        W24572   5.600  11.962   2.960  0.0525  0.2089 -0.0512
 7726W        W24573   9.152   6.561  12.822 -0.0143 -0.2409  0.0300
 7727W        W24574  12.629   8.096   4.085  0.6530 -0.0445 -0.0230
 7728W        W24575  11.396  16.655  15.893 -0.0276  0.0554 -0.2812
 7729W        W24576   3.790   0.427   4.032 -0.0928  0.5969 -0.1038
 7730W        W24577  11.299  14.666   3.664 -0.1031  0.2613 -0.0978
 7731W        W24578  12.635  16.097  10.763 -0.1534 -0.1034  0.0968
 7732W        W24579   5.492   4.319   1.953  0.0807 -0.0095  0.1150
 7733W        W24580  13.642  10.590  12.805 -0.0565  0.4666  0.1231
 7734W        W24581   0.282   6.742   0.730 -0.0827  0.0944 -0.0225
 7735W        W24582   7.449   4.987  14.014  0.1370 -0.0753 -0.0059
 7736W        W24583  16.217  10.723   3.560  0.0083  0.0985 -0.0255
 7737W        W24584  12.352   6.381  14.565 -0.0903  0.0252  0.1704
 7738W        W24585   3.882  14.051  15.478 -0.0169 -0.0949 -0.2524
 7739W        W24586  10.453   2.611  14.769  0.0509 -0.2553  0.2177
 7740W        W24587   6.682   0.745   1.237 -0.1152 -0.2836  0.2134
 7741W        W24588  10.730   5.564  14.979  0.0387  0.0787  0.4429
 7742W        W24589  13.428  18.036  15.620 -0.0822  0.0676  0.0709
 7743W        W24590  14.038   9.153   4.043 -0.0259 -0.0774 -0.2029
 7744W        W24591  12.487  12.898   4.311 -0.0910  0.1541  0.0763
 7745W        W24592   5.007   0.024  12.479 -0.1911 -0.0781  0.1661
 7746W        W24593   5.274   5.886  13.801  0.0920 -0.2455 -0.0548
 7747W        W24594   5.190  13.842  14.931 -0.0789  0.2041  0.0499
 7748W        W24595   0.262  10.694   2.001  0.0822  0.0951  0.4573
 7749W        W24596  10.389   7.581   3.631  0.0250 -0.2569 -0.2497
 7750W        W24597  16.968   7.132  16.110 -0.1441  0.0338  0.2968
 7751W        W24598  17.102  14.392  12.143 -0.2632 -0.3192  0.0206
 7752W        W24599  13.215   5.498   0.017  0.0151 -0.1905  0.0975
 7753W        W24600  11.029   4.252   2.982 -0.0969 -0.0357  0.0403
 7754W        W24601  15.626  16.993   6.251  0.0765  0.0067  0.2862
 7755W        W24602  12.754  15.905  15.915 -0.1244 -0.2200 -0.1605
 7756W        W24603  10.790   1.379   1.296 -0.0539 -0.0794  0.0425
 7757W        W24604   3.646   8.382  11.242 -0.0660  0.0020 -0.2007
 7758W        W24605   4.960  17.704  13.514  0.0415  0.0958  0.2800
 7759W        W24606  13.268  11.558   1.059 -0.2890 -0.2397 -0.4083
 7760W        W24607   3.801   7.787  11.953 -0.2592 -0.0456 -0.3236
 7761W        W24608  17.437   3.950   2.974 -0.1138 -0.1009 -0.1310
 7762W        W24609   9.970  16.924   2.511 -0.1962 -0.2497  0.1693
 7763W        W24610  16.355   4.825   0.112  0.0487  0.1612  0.2894
 7764W        W24611  10.916   5.555   2.770  0.2359 -0.1973  0.1797
 7765W        W24612   4.151   2.568  14.531  0.0625 -0.1715  0.0904
 7766W        W24613   1.721   1.899   5.141 -0.1088  0.0507  0.2833
 7767W        W24614   9.397   7.065   2.445  0.0034  0.2062 -0.4428
 7768W        W24615  17.759   4.894   0.292 -0.0768  0.0184 -0.0923
 7769W        W24616  17.240  12.096   0.895  0.1795  0.0538  0.0233
 7770W        W24617  16.581  15.430   1.149  0.1361  0.1945 -0.0214
 7771W        W24618  17.626  12.610   5.212  0.1112 -0.1083  0.0337
 7772W        W24619   5.511   3.960   2.284 -0.1598 -0.3495  0.2768
 7773W        W24620  17.160   1.563   4.848 -0.0275 -0.3439 -0.0198
 7774W        W24621   9.056  11.946  13.192  0.2664  0.0535  0.0969
 7775W        W24622  11.477   2.631   2.071  0.3384 -0.1629 -0.3363
 7776W        W24623   7.984   4.950  15.313  0.0384  0.1362  0.1835
 7777W        W24624  11.855   0.239   0.604  0.0122 -0.3432  0.1207
 7778W        W24625   5.158  14.340  12.441 -0.1181  0.3191 -0.1644
 7779W        W24626   5.046  10.481  12.386  0.1412 -0.0632  0.0274
 7780W        W24627   0.781   3.453  13.960  0.3859  0.0609  0.0324
 7781W        W24628   9.669   4.824  11.483  0.0577 -0.2489 -0.0752
 7782W        W24629   0.473   4.144   0.319 -0.2278  0.2329  0.2725
 7783W        W24630   8.133  14.674   3.236  0.0452  0.3716  0.1072
 7784W        W24631   3.034   8.455  12.182 -0.0107  0.1002  0.3912
 7785W        W24632   5.913  17.229   1.633 -0.2806 -0.2722  0.1756
 7786W        W24633   4.847   6.160  12.879 -0.0763 -0.3425  0.1795
 7787W        W24634  17.349  16.582  13.527  0.0470  0.1280 -0.3687
 7788W        W24635  15.019   5.831   2.057 -0.1446  0.0940  0.2381
 7789W        W24636   7.549  15.691  12.140 -0.0916  0.0548  0.2257
 7790W        W24637   5.390   9.909  12.487 -0.0725 -0.0018 -0.2433
 7791W        W24638   0.789  14.987   3.405  0.1209 -0.0615 -0.1254
 7792W        W24639   1.066  12.613   3.878  0.0110  0.0771  0.1335
 7793W        W24640  16.024  15.194   2.926  0.0636 -0.0655  0.1470
 7794W        W24641   0.952  17.111   0.915  0.0300 -0.0439 -0.0154
 7795W        W24642   2.805   0.684  13.651 -0.2445  0.1365  0.2533
 7796W        W24643  13.535  17.815   1.730 -0.0492 -0.1843  0.1326
 7797W        W24644  15.086   5.157  15.323 -0.1876 -0.2519 -0.2076
 7798W        W24645  15.419   2.891   1.374 -0.0437  0.1768 -0.0310
 7799W        W24646  11.652  11.466   3.700 -0.1541 -0.0488  0.0277
 7800W        W24647  15.684   9.392  16.226  0.1799  0.2888 -0.1449
 7801W        W24648   7.827  13.336   3.174  0.1144 -0.0391 -0.0331
 7802W        W24649   5.317   9.512  12.818  0.0034 -0.1046  0.0965
 7803W        W24650  15.959   6.737  13.591 -0.1133 -0.0588 -0.0130
 7804W        W24651   9.147   8.713  11.155  0.0230 -0.0564 -0.1511
 7805W        W24652   0.877   7.868   4.789  0.3192  0.1251  0.1240
 7806W        W24653   9.636   9.478  14.067 -0.2638  0.3798 -0.1090
 7807W        W24654   3.483   7.966  14.481  0.2040  0.0279  0.3791
 7808W        W24655   1.369  14.189  12.706  0.1798  0.3286 -0.2399
 7809W        W24656   7.902  11.115   2.117  0.0829 -0.0967  0.1608
 7810W        W24657   5.599  11.308  15.994  0.2922 -0.0764  0.1100
 7811W        W24658  17.078  10.586   2.969 -0.2345  0.0215 -0.0268
 7812W        W24659   4.542  14.657  15.415 -0.0058  0.0046 -0.0543
 7813W        W24660   5.204   4.188   1.412 -0.1223  0.2325 -0.2921
 7814W        W24661   7.861   3.444   4.053 -0.1813  0.0758  0.1876
 7815W        W24662  14.001   8.287   3.980 -0.0353  0.3534  0.1550
 7816W        W24663  11.256  11.498  15.529  0.0709  0.2615 -0.1401
 7817W        W24664  11.848   4.057   0.389  0.2430  0.1339 -0.0416
 7818W        W24665   2.601  13.158   3.715 -0.1287 -0.1506 -0.2302
 7819W        W24666  16.455   0.493   1.354  0.2480 -0.2741  0.0946
 7820W        W24667  14.027   7.005  11.094  0.0097 -0.1919  0.3140
 7821W        W24668  15.371  18.088   2.477  0.1876 -0.2217  0.0533
 7822W        W24669   4.485  11.672  16.270 -0.2290 -0.0572  0.2410
 7823W        W24670   7.388  15.592  14.852 -0.0063 -0.4676 -0.2231
 7824W        W24671   3.199  12.811  14.221  0.1431  0.0446  0.0460
 7825W        W24672   0.770   8.751  12.828 -0.4390 -0.4505  0.0089
 7826W        W24673  16.189  12.148   3.002 -0.0754  0.1073  0.0387
 7827W        W24674  11.577  17.254  11.526  0.4810  0.0588  0.1334
 7828W        W24675   1.296  18.294   2.235 -0.0743  0.1646  0.2060
 7829W        W24676   1.744   5.600   0.720  0.0892 -0.0326  0.1177
 7830W        W24677   8.318  12.761   4.602  0.1997  0.1483 -0.0393
 7831W        W24678  15.105   7.232   0.759  0.1976 -0.0742 -0.1240
 7832W        W24679   8.767  10.107  14.127  0.2558 -0.0740 -0.0715
 7833W        W24680   1.754  14.815   0.254 -0.1825  0.0912 -0.0146
 7834W        W24681   7.226  14.923   1.849  0.1704 -0.1862  0.0928
 7835W        W24682   7.803   5.244  11.865  0.3516 -0.3497  0.1564
 7836W        W24683  15.068   7.786   3.182  0.1720 -0.1730  0.0806
 7837W        W24684   0.289  12.426   2.620 -0.1337 -0.0732 -0.0067
 7838W        W24685  17.970  14.828   0.149 -0.0441 -0.0561 -0.3646
 7839W        W24686   4.280  11.409  12.984 -0.0750  0.1808  0.0715
 7840W        W24687   4.338  12.309   1.387 -0.2422  0.1895 -0.0023
 7841W        W24688  16.148  15.519   1.865 -0.1242 -0.1827  0.1316
 7842W        W24689  11.616   9.988   1.437 -0.0855 -0.1298  0.2534
 7843W        W24690   9.271  15.959  14.399  0.1693 -0.0554 -0.1501
 7844W        W24691   3.407   7.463   0.126 -0.2743  0.0469  0.0294
 7845W        W24692  16.753  10.472  11.625 -0.2155  0.0696  0.3103
 7846W        W24693  13.281   4.576  11.538  0.2253  0.4635 -0.1519
 7847W        W24694  15.577   8.133  15.634  0.2411  0.0867 -0.0462
 7848W        W24695  16.615  16.134   4.005  0.1040  0.2849 -0.0192
 7849W        W24696  13.099   9.258  13.511  0.1308  0.0699  0.2269
 7850W        W24697   4.990  13.834   5.442  0.4693  0.0458  0.1279
 7851W        W24698  11.281  15.479   2.081  0.2992 -0.0222 -0.0788
 7852W        W24699  17.865   6.577   3.617 -0.2464 -0.0566  0.1568
 7853W        W24700   2.320  16.105  10.605 -0.3985 -0.0760  0.3844
 7854W        W24701  16.572   0.882   3.063  0.0018 -0.3411 -0.3103
 7855W        W24702   5.503  11.177   0.780 -0.2986 -0.1458 -0.0403
 7856W        W24703   6.193  14.467  13.819  0.0657  0.3541 -0.0808
 7857W        W24704   3.872   8.812  12.144  0.1113 -0.2619  0.6094
 7858W        W24705   1.329   3.858  11.255 -0.1422  0.0434  0.1776
 7859W        W24706   4.053   8.824  13.862 -0.0302 -0.1888  0.0400
 7860W        W24707   1.372  13.237  13.756 -0.1817  0.1118 -0.3447
 7861W        W24708   4.790  15.914  16.205  0.0375  0.2119 -0.1796
 7862W        W24709  14.091  12.752   3.456 -0.0065 -0.0880 -0.0018
 7863W        W24710   4.501   8.021  12.380  0.0961  0.2981 -0.1932
 7864W        W24711   8.844   1.065   2.730  0.2445 -0.4372 -0.0737
 7865W        W24712   8.515  17.486   3.206 -0.2372  0.0228  0.0714
 7866W        W24713  10.365   1.579  15.431  0.0102  0.0163 -0.2856
 7867W        W24714   9.179   3.851  14.752  0.3244 -0.2679 -0.0923
 7868W        W24715   0.218  15.051  15.397  0.0897 -0.1615  0.0389
 7869W        W24716  16.609  16.127  16.142 -0.0663  0.0008  0.1992
 7870W        W24717  11.023  13.750  12.388  0.2427 -0.1745 -0.0561
 7871W        W24718  16.439   9.057  12.696 -0.0984  0.1575 -0.0230
 7872W        W24719   7.519   0.700   1.782 -0.1928 -0.0385  0.1794
 7873W        W24720  13.313   3.930   0.751  0.0509 -0.0675  0.2699
 7874W        W24721  10.055   5.397   3.726 -0.2817  0.1088 -0.1794
 7875W        W24722   3.376   0.791  15.428  0.0018  0.0060 -0.2952
 7876W        W24723   0.231   6.911  16.290  0.1341  0.0970  0.0064
 7877W        W24724   2.068   9.404   3.550 -0.0221 -0.0445  0.2031
 7878W        W24725  18.279  11.913  15.632 -0.1418  0.1542  0.0199
 7879W        W24726   2.162   0.864  15.637 -0.1859 -0.1956 -0.2277
 7880W        W24727   8.975  13.387   4.343 -0.2158  0.0403  0.0424
 7881W        W24728   4.158   6.907  11.485 -0.0964 -0.2155 -0.0180
 7882W        W24729  12.626  13.473  12.354 -0.0622 -0.3644 -0.0541
 7883W        W24730   7.189   4.201   4.853 -0.0683  0.0625  0.0979
 7884W        W24731  12.728   3.498  13.992 -0.1032 -0.1826  0.0695
 7885W        W24732   0.031   3.994   0.929 -0.3792 -0.0399 -0.0844
 7886W        W24733  17.195   9.727  16.072 -0.2225 -0.0050 -0.1887
 7887W        W24734   0.879   4.981  10.968  0.0020  0.1872  0.1917
 7888W        W24735   3.542   5.483  13.132  0.4360 -0.0587  0.3274
 7889W        W24736  15.707   9.903  14.863  0.1213 -0.0522 -0.0242
 7890W        W24737   3.461   0.236  16.032 -0.0020  0.2272 -0.1681
 7891W        W24738   9.942   9.913   3.817 -0.0481 -0.2717 -0.1119
 7892W        W24739  14.159   2.332   5.103  0.4502  0.1291 -0.0034
 7893W        W24740   2.864  17.144  14.638 -0.1297  0.0827  0.2826
 7894W        W24741  17.246  13.458  11.588  0.0246 -0.2746 -0.2467
 7895W        W24742   4.762   0.047   4.446  0.2239 -0.1075 -0.1195
 7896W        W24743   9.970   7.488   2.881  0.3862 -0.0523  0.2405
 7897W        W24744  13.112  14.383   2.695 -0.1734 -0.2791 -0.0382
 7898W        W24745  17.228   3.404   2.047 -0.4935 -0.1219 -0.3137
 7899W        W24746   4.324  17.312   2.160 -0.0376  0.0562  0.3637
 7900W        W24747   4.599   2.572   4.239  0.0357 -0.0313  0.1471
 7901W        W24748  16.010  14.363   3.469 -0.2360 -0.1950  0.0449
 7902W        W24749   5.897  12.784   1.977  0.2640  0.2084 -0.5386
 7903W        W24750   3.337  13.816  14.848 -0.2431  0.2030 -0.0660
 7904W        W24751   7.389   8.891   5.084 -0.0435  0.0784 -0.1564
 7905W        W24752   3.010  15.719  13.209  0.3605  0.1150 -0.1179
 7906W        W24753  12.227   6.618   0.478  0.0383 -0.1286  0.3702
 7907W        W24754   5.421  12.384  12.460 -0.0941  0.0250  0.4008
 7908W        W24755   0.103   5.107  10.656  0.0044 -0.2502 -0.0945
 7909W        W24756  12.073   2.793   4.903 -0.1951 -0.1142  0.2486
 7910W        W24757  11.851   8.236   2.292 -0.2539  0.0117  0.1892
 7911W        W24758   2.595   7.138   5.013  0.0101 -0.0568  0.0095
 7912W        W24759   3.572  12.583   4.440 -0.0458  0.1904 -0.3180
 7913W        W24760  14.901  10.524  13.067 -0.2167  0.2726  0.3489
 7914W        W24761   1.080  17.155   3.552 -0.1183 -0.1007 -0.0741
 7915W        W24762  14.622  13.688  12.217  0.1310  0.1383 -0.0084
 7916W        W24763   7.124   4.453  11.040  0.3069  0.0654 -0.0724
 7917W        W24764   3.298   6.142  11.640 -0.2727  0.0850  0.0972
 7918W        W24765  15.773   8.304   2.700  0.0887  0.2066 -0.1247
 7919W        W24766  17.982   1.557  13.326 -0.1714  0.0200 -0.0948
 7920W        W24767  15.693  10.935   0.780 -0.2730  0.0053 -0.0739
 7921W        W24768   1.360   3.229  10.045 -0.1992  0.2621  0.0000
 7922W        W24769   2.920   6.219   3.817 -0.0669  0.0536 -0.2357
 7923W        W24770  10.759  14.272   0.277  0.1881 -0.2192 -0.1650
 7924W        W24771  16.369   1.569   3.669 -0.1581  0.2398 -0.0814
 7925W        W24772   6.083   6.328   4.430  0.0181 -0.0326 -0.1529
 7926W        W24773   4.515   6.005   3.669 -0.2472 -0.0497  0.0549
 7927W        W24774   6.203  10.078   1.955 -0.0172  0.0562 -0.1033
 7928W        W24775   9.761   2.556   3.900 -0.2577  0.1357 -0.1010
 7929W        W24776   7.594   0.860   6.261 -0.2498  0.0100 -0.0796
 7930W        W24777   7.949   3.437   2.962 -0.0120  0.0695 -0.1070
 7931W        W24778  11.704   7.422   1.818 -0.0251 -0.2487  0.1543
 7932W        W24779   2.056   3.686  15.921  0.1433  0.1002 -0.0642
 7933W        W24780   0.642   8.450  10.711  0.3010  0.1970  0.3682
 7934W        W24781   3.295   7.587  14.746  0.0837  0.1940 -0.1772
 7935W        W24782   2.905   0.648   2.448 -0.2148  0.1349  0.0440
 7936W        W24783   8.362   4.670   5.157  0.0070 -0.1498 -0.5292
 7937W        W24784   9.919   2.853  13.622 -0.1358 -0.2369 -0.0225
 7938W        W24785   1.730   7.560   1.637 -0.0644 -0.1896 -0.0643
 7939W        W24786   5.897   6.374   5.280  0.2207 -0.0953 -0.1442
 7940W        W24787  13.171   9.047  13.086  0.1090  0.0746  0.1044
 7941W        W24788   1.116   5.654   3.242  0.0573  0.0872  0.0876
 7942W        W24789   5.922  12.350   4.544  0.1087 -0.2568 -0.1096
 7943W        W24790  12.446  13.210   3.039 -0.1053  0.0656 -0.0221
 7944W        W24791   8.740   2.118  11.106  0.1605  0.2528 -0.0150
 7945W        W24792   2.906  11.012  15.938 -0.0531 -0.4876 -0.1477
 7946W        W24793   9.524   9.184   4.567  0.0206 -0.1427 -0.1265
 7947W        W24794   6.518  13.691  14.789  0.1208  0.3970 -0.2247
 7948W        W24795  17.724  10.147   4.122  0.0789  0.0171  0.3659
 7949W        W24796  17.176  17.959  15.741 -0.0948  0.4332 -0.2200
 7950W        W24797  11.875   1.966  12.957  0.3025 -0.2319  0.4072
 7951W        W24798   9.631   5.021   4.977 -0.0854  0.2674  0.1664
 7952W        W24799  10.141   8.405   0.473  0.2471 -0.0245 -0.1206
 7953W        W24800  15.611   7.415   1.804 -0.4306 -0.0510  0.0360
 7954W        W24801   7.821  12.175   1.935 -0.0915  0.0458 -0.1095
 7955W        W24802  16.722  17.253   5.394 -0.2744 -0.0250  0.2703
 7956W        W24803   2.401  11.530   5.106 -0.0899 -0.0334  0.1771
 7957W        W24804   0.326   6.695   2.828  0.0249 -0.0923  0.0651
 7958W        W24805  18.311  15.267   3.255 -0.1834 -0.1014  0.4001
 7959W        W24806   8.905   4.596  15.319  0.1796 -0.0568 -0.0323
 7960W        W24807  16.733   8.106  11.882 -0.0219  0.1994  0.4162
 7961W        W24808  10.614  13.565  13.203 -0.1855 -0.0088 -0.2119
 7962W        W24809   0.944  12.291   4.274 -0.0017 -0.0790  0.0065
 7963W        W24810  11.652   8.566  11.457  0.2830  0.0501  0.0566
 7964W        W24811   2.375  12.654   1.960 -0.3979  0.1196  0.2230
 7965W        W24812   6.545   8.337  12.016 -0.0333  0.0585  0.4232
 7966W        W24813  10.685   7.903  11.140 -0.2151 -0.1945  0.2220
 7967W        W24814   1.549   3.342  11.036  0.2161 -0.1043  0.1321
 7968W        W24815   4.250   0.549   0.093 -0.0642  0.3243 -0.0718
 7969W        W24816   5.034   5.480   2.981  0.0221 -0.2415  0.0834
 7970W        W24817  10.658  17.208   1.197  0.3608 -0.0556  0.2428
 7971W        W24818  14.453   5.639  11.387  0.0684 -0.0676 -0.1954
 7972W        W24819  15.351  11.682   0.873  0.2488  0.0830  0.0430
 7973W        W24820  15.389  14.864   0.748 -0.2860 -0.1701  0.2050
 7974W        W24821   2.986   1.054  11.600  0.0136 -0.2812 -0.2589
 7975W        W24822   3.698   9.584  16.167  0.0455  0.0042  0.2979
 7976W        W24823   3.150  16.212  11.770 -0.3699 -0.0359 -0.0056
 7977W        W24824   5.344  16.473  15.429 -0.2184 -0.0190  0.0829
 7978W        W24825  11.652   4.924  14.250  0.0038 -0.2312  0.2023
 7979W        W24826   3.630  12.454   3.008 -0.1299 -0.3855 -0.2052
 7980W        W24827  13.661  12.301  12.705 -0.0488 -0.0571  0.1092
 7981W        W24828   5.385  12.509   5.740 -0.0884  0.2156  0.2344
 7982W        W24829   2.424   0.379   6.039 -0.2280  0.3540 -0.1614
 7983W        W24830   2.478   0.952  12.701  0.1782  0.1844 -0.1180
 7984W        W24831  12.304  13.855  14.857  0.1258 -0.1051 -0.4527
 7985W        W24832   9.887  15.009  14.121 -0.3020  0.1530  0.1271
 7986W        W24833   9.133   9.614   4.690  0.1336  0.0905  0.2148
 7987W        W24834  10.095  10.259   2.794  0.1807  0.1755  0.1045
 7988W        W24835  10.898   7.215   0.354  0.2134 -0.4983 -0.1444
 7989W        W24836  12.448   4.606  11.795  0.0356 -0.2874 -0.1199
 7990W        W24837   2.147  14.856  12.690  0.1939  0.1085 -0.3203
 7991W        W24838   7.589   9.533  15.614 -0.2461 -0.0724 -0.1682
 7992W        W24839   2.683   4.302  11.691 -0.1631  0.1037  0.1755
 7993W        W24840   5.499  16.976  13.613 -0.0952  0.1963  0.0566
 7994W        W24841  10.594   0.761  14.968  0.2860  0.0407 -0.1071
 7995W        W24842   0.683  12.516  12.668  0.6806  0.0223 -0.1959
 7996W        W24843  14.914   1.589   3.594  0.0006  0.1322 -0.1070
 7997W        W24844   8.003  12.116  14.516  0.0018  0.2529  0.0833
 7998W        W24845   9.936  10.235  15.822 -0.0206  0.1996 -0.1430
 7999W        W24846   5.982  13.577  12.218  0.1447  0.0583  0.2234
 8000W        W24847  13.668   4.799  11.217  0.1591  0.1237 -0.3751
 8001W        W24848  12.193   2.713  13.370  0.0212  0.0274 -0.2267
 8002W        W24849   7.885   9.614  11.230  0.1184  0.1076 -0.0006
 8003W        W24850  14.619  13.747  15.385  0.0966 -0.0081 -0.3713
 8004W        W24851  11.425   1.487  16.002  0.1502  0.3663  0.0783
 8005W        W24852   5.336   3.190   3.531  0.1504 -0.0875 -0.0603
 8006W        W24853   3.226   7.240  15.589  0.0673 -0.0736  0.1518
 8007W        W24854   8.397  16.045   2.648  0.0760 -0.2232  0.1935
 8008W        W24855  12.417   1.388  11.813 -0.2519 -0.0647 -0.0271
 8009W        W24856  13.583   2.586  14.262 -0.1205  0.0262  0.2332
 8010W        W24857  10.594  14.650   4.487 -0.2222  0.1591  0.0338
 8011W        W24858   1.786  13.700   3.189 -0.2453 -0.0676  0.1387
 8012W        W24859   0.875  15.409   4.898  0.2590  0.0944  0.1141
 8013W        W24860  18.163   5.444   0.930 -0.0135  0.1714  0.2436
 8014W        W24861   3.728  15.645  13.806 -0.2811  0.0107 -0.0522
 8015W        W24862  16.580  16.686   2.338 -0.2166 -0.1527  0.0437
 8016W        W24863   7.640   2.399  12.840  0.2715  0.2621  0.0431
 8017W        W24864  14.874  17.379  15.164  0.1684 -0.1478  0.1607
 8018W        W24865   5.432  13.091  11.820 -0.3317 -0.2633  0.2937
 8019W        W24866   0.142   3.632   0.081  0.2324 -0.0944 -0.0886
 8020W        W24867   2.012  12.928  11.738 -0.0514  0.0849 -0.0019
 8021W        W24868  12.059  17.313  13.178 -0.5983 -0.0645  0.1159
 8022W        W24869   6.747   5.924   2.264 -0.0400 -0.0696  0.0377
 8023W        W24870   0.823   6.234   1.901 -0.2028 -0.0078 -0.0504
 8024W        W24871   2.605   4.335   1.132  0.2293 -0.0067  0.0712
 8025W        W24872  16.661   4.005   3.338  0.0526 -0.1208 -0.1166
 8026W        W24873   8.554  16.909   3.588 -0.0489 -0.0632  0.0562
 8027W        W24874   5.188   7.251  15.492  0.0849  0.0539 -0.3101
 8028W        W24875   8.024  12.721  15.125 -0.1860 -0.0946  0.1679
 8029W        W24876   2.618   4.344  14.800 -0.1140 -0.0047 -0.0867
 8030W        W24877   4.693  17.114   4.103 -0.1822  0.0057  0.0035
 8031W        W24878  11.824  11.269  15.828 -0.2331 -0.2385 -0.2248
 8032W        W24879   6.627   2.384  15.087  0.1670  0.2651  0.1806
 8033W        W24880  10.973  16.150   2.597 -0.2373 -0.4252  0.2097
 8034W        W24881  16.376  13.415  13.061  0.0349 -0.0832  0.2707
 8035W        W24882  12.977   0.034  15.576 -0.1472  0.4153  0.0313
 8036W        W24883   8.611  11.937  13.468  0.0349 -0.0376 -0.1359
 8037W        W24884   7.132  15.179   5.730 -0.1961  0.4822  0.1318
 8038W        W24885   4.515   0.021   2.593 -0.1848 -0.1788  0.0265
 8039W        W24886  13.531  16.022   2.634 -0.0528  0.0609  0.1277
 8040W        W24887   1.039   6.858  12.472 -0.0001  0.4071  0.1582
 8041W        W24888  14.146   2.086  11.861  0.1155 -0.2308 -0.1032
 8042W        W24889  15.302  10.527  12.655  0.4198 -0.0818  0.0318
 8043W        W24890   3.782   8.410  13.063 -0.0661  0.0227  0.0209
 8044W        W24891   3.951  17.449   1.684  0.2541 -0.4426  0.0494
 8045W        W24892  14.032  17.393   4.110  0.2048 -0.0160 -0.1237
 8046W        W24893   4.410  17.030  13.852 -0.3973  0.1870 -0.4046
 8047W        W24894  11.544  17.853   2.970  0.3738 -0.0477 -0.0464
 8048W        W24895   5.739   6.229   0.429 -0.0761  0.0934 -0.5789
 8049W        W24896   2.623   3.943   5.046  0.0981  0.0308  0.1915
 8050W        W24897  14.698   3.557  11.411 -0.4546  0.3515 -0.0760
 8051W        W24898   7.377  11.256  15.776 -0.1187 -0.0842 -0.2621
 8052W        W24899  11.629  17.328  13.941  0.3908 -0.1049 -0.0364
 8053W        W24900   9.138   0.698  12.764 -0.1404  0.0507 -0.0597
 8054W        W24901   1.342  15.837   2.303 -0.1785  0.3339 -0.1200
 8055W        W24902   4.448   5.202  15.411 -0.2418 -0.0885  0.1777
 8056W        W24903   2.294  16.581   4.514 -0.5361 -0.1589  0.2157
 8057W        W24904  10.493  17.640   4.772  0.0813  0.0616 -0.0925
 8058W        W24905  12.375   7.136  13.077  0.2084 -0.3452  0.0740
 8059W        W24906  13.655   4.677   4.508 -0.0306 -0.2031 -0.1685
 8060W        W24907   9.961  16.068   2.558 -0.0549  0.0871  0.0829
 8061W        W24908   6.117   5.752  15.018 -0.1154 -0.0638 -0.2914
 8062W        W24909  16.093  14.078  15.684  0.2675  0.1551 -0.1583
 8063W        W24910  12.465  16.927  14.092 -0.2443  0.1860  0.1691
 8064W        W24911  13.770  12.917   3.989 -0.1280  0.1235  0.0221
 8065W        W24912  14.690   7.580  10.902 -0.0128  0.0773  0.2111
 8066W        W24913  17.371   5.967  14.763  0.0170 -0.0035 -0.0690
 8067W        W24914   3.632  15.131   2.472  0.1429 -0.1377 -0.3728
 8068W        W24915   4.647  15.063   2.700  0.1544  0.1000 -0.5244
 8069W        W24916   0.132   5.524  15.109  0.1842 -0.1209 -0.1079
 8070W        W24917   7.760   6.197  16.162  0.0514  0.2915 -0.1036
 8071W        W24918   7.021   4.827   2.977  0.2854  0.0551  0.0655
 8072W        W24919  17.535  16.732  12.697  0.1067 -0.2253 -0.1675
 8073W        W24920   3.459   5.747   3.301  0.0402 -0.2243  0.1065
 8074W        W24921  13.980   3.446  16.159  0.1745 -0.2630  0.0921
 8075W        W24922   7.817   5.694  12.084  0.2761 -0.1972  0.2197
 8076W        W24923  12.839  14.054   3.718  0.0837  0.3507  0.1462
 8077W        W24924  15.101   7.868   2.555 -0.0608 -0.0695  0.2642
 8078W        W24925  17.391   3.773  16.362  0.0600  0.0580  0.0320
 8079W        W24926   0.192   5.802  12.274  0.0593  0.1746  0.2406
 8080W        W24927  11.966   1.207  14.830 -0.2932 -0.0328  0.2417
 8081W        W24928  18.089  12.186  13.493  0.1085  0.2068 -0.0336
 8082W        W24929  17.159   9.040   3.812 -0.0658 -0.0158 -0.0681
 8083W        W24930  14.553  11.408   5.132 -0.0652  0.0598  0.1966
 8084W        W24931  17.904  11.124   5.079 -0.0916 -0.0277 -0.5448
 8085W        W24932  15.726   0.608   2.028 -0.2724  0.2944 -0.1823
 8086W        W24933  14.691   8.650   0.416  0.2780  0.1284  0.1526
 8087W        W24934  16.692   4.013   0.688  0.1628  0.1372  0.3717
 8088W        W24935   3.585   5.480   4.012 -0.0670 -0.0650  0.1630
 8089W        W24936   4.325  14.935   0.507  0.0371 -0.3289 -0.2018
 8090W        W24937  14.424  17.303  12.390  0.3390 -0.2221 -0.0661
 8091W        W24938  12.245  12.516  16.096  0.0961  0.3702  0.2609
 8092W        W24939   9.663  16.824   3.478 -0.1547  0.0574 -0.0657
 8093W        W24940   7.711   5.374   2.953  0.2284 -0.1796 -0.1321
 8094W        W24941  15.661   7.847  13.050 -0.0129 -0.1907 -0.0971
 8095W        W24942  12.159  12.297   5.026 -0.1070  0.0667 -0.2062
 8096W        W24943   2.612  10.781   5.155 -0.0305 -0.1015  0.1952
 8097W        W24944   9.230   3.561  16.096  0.3378  0.1094  0.1331
 8098W        W24945   1.945  14.206  14.932 -0.1322 -0.0423  0.0529
 8099W        W24946   7.539   7.370   0.519  0.0063  0.1005  0.0426
 8100W        W24947  13.827  17.480   0.390 -0.1061  0.4500  0.2671
 8101W        W24948  17.859  17.369   1.206 -0.0026 -0.1114 -0.3344
 8102W        W24949  17.628  12.505   1.768 -0.0851  0.1198  0.0526
 8103W        W24950  15.197   0.295   4.079 -0.0425 -0.2327  0.1033
 8104W        W24951   9.115   0.200   3.869 -0.0516  0.2230 -0.1120
 8105W        W24952  11.724   2.828   1.697  0.0754 -0.1796 -0.0079
 8106W        W24953   3.706   7.777  16.228 -0.2284 -0.0958  0.0499
 8107W        W24954  12.910  10.764  12.413  0.1291 -0.0603 -0.0074
 8108W        W24955  11.341   6.631   1.650  0.0707  0.1449 -0.2067
 8109W        W24956   3.601  12.725  15.258  0.1937  0.1965 -0.0813
 8110W        W24957  11.187   3.728  11.460  0.4842  0.0517  0.0948
 8111W        W24958   7.371   5.770  11.606  0.3443  0.0557  0.1585
 8112W        W24959  12.419   2.612  12.660  0.0397  0.2389 -0.0160
 8113W        W24960   5.385  14.120   6.409  0.1461  0.1610  0.0418
 8114W        W24961   8.096  16.892  14.957 -0.1615 -0.0016 -0.0775
 8115W        W24962   5.682  17.658   1.729 -0.1377 -0.1439 -0.0145
 8116W        W24963  10.949  17.427  15.677 -0.0651 -0.1578  0.2760
 8117W        W24964  17.123   8.175  15.751  0.0085  0.4590 -0.2066
 8118W        W24965   4.541  13.495  15.554 -0.0367 -0.0815 -0.1700
 8119W        W24966  13.473   6.556   0.350 -0.2199  0.0083 -0.1251
 8120W        W24967   1.730   8.020  14.488 -0.0480  0.0601 -0.0144
 8121W        W24968  10.724  10.994  11.581  0.3602 -0.1186  0.1999
 8122W        W24969   9.417  11.853  15.211 -0.1871  0.2123  0.1348
 8123W        W24970  12.600  11.042   2.091 -0.0105  0.2728 -0.1603
 8124W        W24971   5.527  17.456  14.580 -0.0879  0.3538 -0.1277
 8125W        W24972   9.824  11.307   2.452  0.1438 -0.0701 -0.0114
 8126W        W24973   0.395   4.036  15.598  0.0864 -0.3278  0.3004
 8127W        W24974   3.546  12.564  13.825 -0.4538 -0.2101 -0.4158
 8128W        W24975   2.397   8.588   3.787 -0.0064 -0.0464  0.2588
 8129W        W24976   4.629  11.368  14.637 -0.1888 -0.1820  0.0063
 8130W        W24977   8.223   9.619   4.721  0.1936 -0.0069 -0.0214
 8131W        W24978   1.980   7.215   3.547 -0.0209 -0.3023  0.0289
 8132W        W24979  14.464  15.697  15.579  0.1548 -0.1494  0.2874
 8133W        W24980  13.515  16.283  12.472  0.0450 -0.0316  0.0109
 8134W        W24981  17.674  14.303   2.548 -0.0614 -0.3286 -0.1084
 8135W        W24982   3.670   4.539  13.319 -0.1747  0.2787  0.1858
 8136W        W24983  10.409   7.538  12.128  0.0264  0.3134  0.2532
 8137W        W24984   4.347   2.813  13.857 -0.2361  0.1073  0.1022
 8138W        W24985   8.041   3.834  12.696 -0.1159 -0.0282 -0.2298
 8139W        W24986   0.032   5.736  13.391  0.1033  0.1741 -0.0935
 8140W        W24987  15.871   5.582   4.321 -0.1931 -0.0153 -0.0315
 8141W        W24988  13.899  10.972   3.657  0.2738 -0.0896 -0.0819
 8142W        W24989  10.821  11.803   2.208 -0.4487  0.0290 -0.0860
 8143W        W24990   7.780  10.942  14.524 -0.0809  0.0036 -0.1036
 8144W        W24991   6.163   2.153   3.100  0.1366 -0.1830 -0.2919
 8145W        W24992   4.519   6.037   4.693 -0.1162 -0.1461 -0.1548
 8146W        W24993  14.992   0.582   3.726 -0.1987 -0.2670  0.1707
 8147W        W24994   0.231  14.908   2.883 -0.2531  0.1116 -0.1684
 8148W        W24995  17.953   9.293   0.218 -0.2230 -0.0085 -0.1554
 8149W        W24996   0.620  14.892  14.158  0.0366  0.1710  0.0764
 8150W        W24997   6.075   7.904  13.650  0.0858  0.4096 -0.3142
 8151W        W24998  10.667   9.834  12.878  0.0428  0.1541  0.0398
 8152W        W24999   5.479   5.226  11.688 -0.1642 -0.3449 -0.2852
 8153W        W25000   7.443  10.432   3.424 -0.2673 -0.1141 -0.2007
 8154W        W25001  14.100   3.422   1.168 -0.0684 -0.2591 -0.1022
 8155W        W25002  16.668   7.906   5.025  0.0789  0.1164 -0.0742
 8156W        W25003   1.940   7.252  14.733  0.0717  0.0200  0.1588
 8157W        W25004   4.748   2.917  16.210  0.1142  0.0058 -0.2227
 8158W        W25005  18.130  17.386   0.738 -0.3170 -0.3108 -0.1200
 8159W        W25006  18.015   4.856   1.872 -0.0503 -0.2876 -0.3850
 8160W        W25007   0.141   6.414   3.578  0.2984  0.0029 -0.1530
 8161W        W25008  11.205  12.416   5.205 -0.0306 -0.0612 -0.3052
 8162W        W25009  13.364   9.414   2.328 -0.3523  0.0275 -0.3110
 8163W        W25010  11.621  16.913  12.233  0.4263  0.0384 -0.0347
 8164W        W25011   4.443   0.400   0.645 -0.0738  0.0615  0.2312
 8165W        W25012   4.814   1.592  11.423  0.2082  0.0735 -0.0160
 8166W        W25013  15.362   9.596  12.858 -0.0142  0.1919  0.0648
 8167W        W25014   5.826   5.594  14.627 -0.1764  0.1162  0.1389
 8168W        W25015   2.728   9.323   3.655 -0.1653  0.0962 -0.0103
 8169W        W25016  14.178  16.515   2.913 -0.0370 -0.3461 -0.1159
 8170W        W25017   7.348   4.037   3.208  0.1606  0.2505  0.1002
 8171W        W25018  16.532   3.214  15.474  0.2277  0.2791 -0.0097
 8172W        W25019  11.520   7.158  11.336 -0.0903  0.3833 -0.0972
 8173W        W25020  14.456   5.161  14.131 -0.2475  0.0178  0.2815
 8174W        W25021  13.977  14.761   3.464 -0.1005 -0.2833  0.1496
 8175W        W25022   4.152   6.316   4.237 -0.0994 -0.2089  0.1080
 8176W        W25023   4.865  17.614  15.083 -0.3260 -0.2153 -0.3606
 8177W        W25024  11.613   9.030  12.877  0.1523 -0.2879  0.0336
 8178W        W25025   8.442  11.535   5.777 -0.1629 -0.0382 -0.0246
 8179W        W25026   7.028  13.371   2.139  0.2862  0.0509  0.1085
 8180W        W25027   4.558  10.200  15.886  0.3949 -0.0073 -0.1725
 8181W        W25028   1.583   1.890  11.007  0.0029  0.3419 -0.0523
 8182W        W25029  14.508   2.045   0.282 -0.0104  0.0573  0.1590
 8183W        W25030   5.270  15.957   5.955  0.2495 -0.0450  0.1848
 8184W        W25031   3.714  14.274   0.038 -0.1404  0.1753 -0.1927
 8185W        W25032   0.460   0.554  15.981  0.1887  0.2415 -0.0507
 8186W        W25033  15.462   0.978  15.742 -0.0915  0.3901  0.2177
 8187W        W25034   1.484   4.978   0.143 -0.0531 -0.1969 -0.1821
 8188W        W25035   4.954   2.083   0.999 -0.2384 -0.0189 -0.1011
 8189W        W25036   4.597   9.374   0.449  0.0218  0.0138 -0.0691
 8190W        W25037  16.969  15.735   5.421  0.4016 -0.0906 -0.0987
 8191W        W25038  11.762  13.674   2.576 -0.0900 -0.2400  0.0881
 8192W        W25039   9.327  16.374  14.830  0.2484 -0.2077  0.2548
 8193W        W25040   8.638  12.384   0.384  0.0500  0.2810 -0.1845
 8194W        W25041   2.367  10.774  15.957  0.1802 -0.1746  0.1135
 8195W        W25042   6.159  13.371   4.754 -0.0919  0.3008 -0.3259
 8196W        W25043   1.569   0.733   3.692 -0.1395 -0.2371  0.3280
 8197W        W25044  11.221  17.622   1.654  0.2310 -0.0673 -0.2758
 8198W        W25045  13.948   6.508  12.466  0.0004  0.5603  0.0633
 8199W        W25046  11.323  17.644  11.639  0.1230 -0.0718  0.0045
 8200W        W25047  18.038  17.246   1.692  0.2188 -0.0020  0.0142
 8201W        W25048  16.982  16.482  13.850 -0.0724 -0.0421  0.1446
 8202W        W25049  13.368  15.058  13.433  0.0619  0.0509  0.1810
 8203W        W25050  12.202   1.496  15.701 -0.2905 -0.1452 -0.0878
 8204W        W25051  11.836   9.312  16.317  0.0970  0.0708  0.0881
 8205W        W25052  17.835  17.246  12.508  0.2640 -0.0213 -0.1195
 8206W        W25053   8.858  17.473   0.049 -0.1425  0.1937  0.1905
 8207W        W25054   7.853  11.456  16.095  0.0056  0.1184 -0.4110
 8208W        W25055  17.769  16.519  12.029  0.0245 -0.0480 -0.1311
 8209W        W25056  18.015  14.613   1.753  0.0730  0.1586 -0.2918
 8210W        W25057   7.562  15.856   5.375  0.1075  0.1400 -0.2171
 8211W        W25058  12.914  16.882   0.843  0.1280 -0.1412 -0.1074
 8212W        W25059  12.970  14.735   2.378  0.1399 -0.1212  0.0878
 8213W        W25060  14.442  16.318  12.801 -0.0478  0.1997 -0.0694
 8214W        W25061  14.534   2.966   3.899 -0.5050 -0.1244  0.2038
 8215W        W25062   5.008   8.184  12.481 -0.2163  0.2219  0.1801
 8216W        W25063   7.529  10.126   1.909  0.0379  0.0164  0.0572
 8217W        W25064   7.188   5.349  15.118  0.1828 -0.0590 -0.0080
 8218W        W25065  15.635   7.196   3.113 -0.4786  0.0299 -0.0020
 8219W        W25066  14.014  16.549   4.202 -0.2291  0.1210  0.2158
 8220W        W25067   4.407   6.239   3.248  0.0968  0.1022 -0.1565
 8221W        W25068   4.460  16.026   4.036  0.0528 -0.0578 -0.0927
 8222W        W25069  12.355   0.914   0.267 -0.0754  0.0177 -0.0048
 8223W        W25070   6.653   7.914   0.139  0.0447 -0.0717 -0.0125
 8224W        W25071  15.008   4.877   2.874 -0.0903  0.0624 -0.1742
 8225W        W25072  16.330   8.277   5.040  0.0410 -0.0560  0.2183
 8226W        W25073   7.507  17.564  13.602  0.0350 -0.3757  0.1861
 8227W        W25074   7.767  10.631  12.779 -0.1717 -0.2402  0.4912
 8228W        W25075  11.381  13.551   1.647 -0.1321 -0.2143 -0.2691
 8229W        W25076  13.632   5.518   1.003  0.2838 -0.1883  0.0926
 8230W        W25077   3.185   7.530   3.412  0.2855  0.2393 -0.0563
 8231W        W25078  17.025  11.342   1.837 -0.0411  0.0954  0.0813
 8232W        W25079  10.055   4.139  14.677 -0.4384 -0.3152 -0.1192
 8233W        W25080   7.116  16.817   0.317  0.0003 -0.0619  0.1687
 8234W        W25081   3.003  15.758  11.506 -0.0669 -0.0742 -0.3478
 8235W        W25082   0.767   8.399   2.824  0.2618 -0.0655  0.2658
 8236W        W25083  13.720  17.906  12.092 -0.0488  0.1072  0.0226
 8237W        W25084   3.705  16.991   6.095 -0.1136 -0.1388 -0.3253
 8238W        W25085   8.437   3.268  14.814  0.0020 -0.1183 -0.0224
 8239W        W25086  14.086  15.975  15.115 -0.0693 -0.1557  0.1349
 8240W        W25087   7.973  16.354   0.167  0.1242 -0.0383 -0.4246
 8241W        W25088   1.026   3.867  13.841 -0.4275 -0.1338  0.0304
 8242W        W25089   0.823   1.474  14.589  0.3357 -0.1989  0.0128
 8243W        W25090  13.879  13.070  13.405 -0.1598 -0.0619  0.3691
 8244W        W25091  16.106  16.008   4.533  0.0718  0.2639  0.1755
 8245W        W25092  14.845   9.287  13.740  0.1372  0.2997  0.2197
 8246W        W25093   6.346  14.125   5.259 -0.0309 -0.1298 -0.1345
 8247W        W25094   5.657  15.329   2.497 -0.1490 -0.0254 -0.1784
 8248W        W25095   1.700  11.579   3.331  0.0804 -0.2085 -0.3946
 8249W        W25096   0.262  16.369   1.842  0.1514 -0.2406 -0.0035
 8250W        W25097  13.892  18.306   2.713 -0.2977 -0.1142  0.1622
 8251W        W25098  15.036   0.671   1.849  0.0110 -0.0320  0.0372
 8252W        W25099   3.103   3.564   1.504  0.0720 -0.3388 -0.0013
 8253W        W25100  11.848   2.265   4.457 -0.0039  0.1358 -0.1620
 8254W        W25101   5.312   3.627  16.264 -0.0732 -0.0543 -0.0441
 8255W        W25102  11.013   7.875   5.637  0.0693  0.2146 -0.2810
 8256W        W25103  14.029  11.356  11.572  0.1394  0.1158  0.1161
 8257W        W25104   1.144  13.200   3.710  0.4250  0.2550  0.0190
 8258W        W25105  14.680  14.736   2.883  0.1463 -0.2781 -0.1187
 8259W        W25106   7.418   4.486  14.119 -0.0435 -0.2692  0.0572
 8260W        W25107   0.309  18.010  13.412  0.1651  0.1321  0.4496
 8261W        W25108  12.803  10.150  13.845  0.2813  0.0795  0.2078
 8262W        W25109   4.863   2.277   4.493  0.0506 -0.0279 -0.1056
 8263W        W25110  15.632   2.989  15.095  0.0144  0.0173 -0.0407
 8264W        W25111  11.767   8.941   5.199 -0.0829  0.2740  0.2530
 8265W        W25112  10.290  13.068   3.458  0.1473  0.0945  0.0277
 8266W        W25113   7.394  17.868   5.234  0.0225  0.3169  0.3135
 8267W        W25114  16.975  17.739   3.478  0.1150 -0.3312 -0.1440
 8268W        W25115   0.135  15.035  14.112  0.0134  0.1368  0.1940
 8269W        W25116  12.470   1.066   4.682 -0.1166 -0.0150  0.1036
 8270W        W25117   1.489   5.839  15.905 -0.0077  0.1905 -0.1093
 8271W        W25118   3.198   3.409   4.751 -0.0788  0.0855  0.2658
 8272W        W25119  17.643  17.892   1.280 -0.2761  0.1105  0.0354
 8273W        W25120   0.060   7.696   3.759 -0.0685 -0.2202  0.1972
 8274W        W25121   5.845  11.743   0.988 -0.0860 -0.0238  0.1025
 8275W        W25122  16.027  12.592  12.416 -0.0839 -0.1841 -0.1514
 8276W        W25123   5.603  11.516   3.253 -0.1206 -0.5261  0.1301
 8277W        W25124  11.999   6.647  13.370  0.2690  0.0885  0.0423
 8278W        W25125  11.083  11.724   4.985 -0.0826 -0.0308 -0.0612
 8279W        W25126  11.574  10.503   4.627  0.3696 -0.2127 -0.2023
 8280W        W25127  11.821   2.316  13.501  0.0037 -0.0074 -0.0538
 8281W        W25128  15.482   9.081   3.501  0.0599  0.1549  0.2361
 8282W        W25129   9.427   7.585  13.066 -0.3429 -0.2962  0.2940
 8283W        W25130   9.251  15.842  15.976  0.1076  0.0613  0.0718
 8284W        W25131  10.602   6.695   3.297  0.0496  0.0420  0.0008
 8285W        W25132   5.774   2.082   5.363  0.0349 -0.1822 -0.2137
 8286W        W25133   5.051   7.959  13.227 -0.0628 -0.0533  0.0339
 8287W        W25134   0.585   7.302  11.607 -0.0709  0.1210 -0.0576
 8288W        W25135   0.179  17.546   0.804  0.0850 -0.1394 -0.1237
 8289W        W25136  18.393   1.857   2.244 -0.0881  0.2583 -0.3028
 8290W        W25137  13.453   9.423  16.340  0.1858 -0.2413  0.0004
 8291W        W25138  15.867   7.973  12.273 -0.1112 -0.1878 -0.2484
 8292W        W25139  16.357   2.220   2.570 -0.1941  0.0450 -0.2655
 8293W        W25140   6.449   3.891   2.041 -0.1429  0.1312 -0.1760
 8294W        W25141  15.806  16.705  11.575  0.3767  0.2529 -0.1383
 8295W        W25142   5.431  12.189   4.274 -0.0547  0.0866 -0.0830
 8296W        W25143   1.146  10.121   5.701  0.0405  0.2649 -0.0402
 8297W        W25144   6.524   1.878   4.746  0.2000  0.0401 -0.0566
 8298W        W25145   4.170   6.306  15.227 -0.2741 -0.1477  0.1233
 8299W        W25146   6.872  15.306   0.400 -0.2298  0.2738 -0.1174
 8300W        W25147   4.813   0.591   1.014  0.1138  0.0811 -0.1832
 8301W        W25148  14.618  13.852   1.813  0.1752 -0.1140 -0.0212
 8302W        W25149   9.991  18.224   2.473  0.2420 -0.2940  0.0882
 8303W        W25150  15.316   7.459   2.789 -0.1016 -0.0915  0.0257
 8304W        W25151  10.658  11.372   0.936  0.2127 -0.1380  0.0347
 8305W        W25152   2.677  11.999   0.515  0.3902  0.0897 -0.0394
 8306W        W25153  15.148   7.841  14.192 -0.0907  0.1031 -0.1214
 8307W        W25154   8.532   1.177   0.417 -0.0663 -0.1217  0.1954
 8308W        W25155  11.509  17.695   5.039 -0.1335 -0.3029 -0.1458
 8309W        W25156  11.294   0.139  16.102  0.0102  0.3155  0.1075
 8310W        W25157  14.784   1.932   4.539  0.3294 -0.1000  0.0635
 8311W        W25158  13.459   1.420   0.543  0.1498  0.0828 -0.2584
 8312W        W25159  18.162   0.123   1.904 -0.2849 -0.2497 -0.0708
 8313W        W25160  12.114  11.715  13.881  0.0085  0.1023  0.0772
 8314W        W25161  12.384   8.086   3.367 -0.2358 -0.0191  0.1072
 8315W        W25162  11.843   3.986   1.235  0.2268 -0.2369 -0.3309
 8316W        W25163  11.045  14.688   1.104  0.0336  0.0273  0.4650
 8317W        W25164  11.860   2.809   4.280 -0.2108  0.3132  0.0202
 8318W        W25165   3.746   4.930   0.627 -0.0482  0.0543 -0.1142
 8319W        W25166   4.777   2.837  15.269  0.0786 -0.1645 -0.3549
 8320W        W25167   9.374  11.415   3.270 -0.1531 -0.2199 -0.0793
 8321W        W25168  10.958   7.939  15.372  0.2087 -0.2874  0.0295
 8322W        W25169   7.757   0.391  15.772  0.3101 -0.1440 -0.0375
 8323W        W25170   7.563  13.651   4.715 -0.0170 -0.0501  0.5361
 8324W        W25171  15.742  11.031  16.194 -0.2914  0.1066 -0.1813
 8325W        W25172   1.534   8.534  12.514  0.0452 -0.0235  0.2273
 8326W        W25173  10.511  12.290  15.558  0.2407  0.1381 -0.0896
 8327W        W25174  10.792  16.181  14.846  0.2574 -0.0890 -0.0923
 8328W        W25175  14.702  16.747  14.228  0.2281  0.1765 -0.0306
 8329W        W25176   7.086   8.682   1.922 -0.0581 -0.1102  0.0712
 8330W        W25177   1.337  18.374   0.898  0.1198  0.1234 -0.2089
 8331W        W25178  14.582   5.066  12.845  0.2406  0.1338 -0.1765
 8332W        W25179   5.387  15.727   2.273 -0.0193  0.1354  0.1729
 8333W        W25180   1.241   8.508  12.878 -0.1211  0.1968  0.3832
 8334W        W25181  18.222   8.664   4.326 -0.2281 -0.2156 -0.0033
 8335W        W25182  13.478   2.404   1.840  0.0663  0.1681 -0.3337
 8336W        W25183   4.709  10.073  14.533  0.1522  0.3832  0.0833
 8337W        W25184  10.047   0.884   1.380  0.0425 -0.3165  0.0442
 8338W        W25185   8.092  16.482  12.430 -0.1027 -0.3463 -0.0845
 8339W        W25186   6.019   0.646  15.864  0.1721  0.0145 -0.0228
 8340W        W25187   0.138  15.541  15.320 -0.0013  0.2732  0.1151
 8341W        W25188  15.762   3.532  15.754 -0.1375 -0.4718 -0.3055
 8342W        W25189  16.297   6.226   2.988 -0.3357 -0.3035  0.3279
 8343W        W25190   2.487  10.359   0.920  0.0000  0.0770  0.0955
 8344W        W25191   4.810   5.583  15.492 -0.0247 -0.2582  0.2173
 8345W        W25192  15.789   9.761  15.826 -0.0711  0.0742 -0.0286
 8346W        W25193   8.146  12.955   5.392 -0.0486 -0.0196 -0.0570
 8347W        W25194  16.108  16.853   4.342 -0.3353 -0.2751 -0.2646
 8348W        W25195   8.200   6.003   3.056  0.1416 -0.3402 -0.1379
 8349W        W25196  16.661  17.831  12.703  0.0245 -0.0150 -0.5819
 8350W        W25197   3.949  12.330   5.051 -0.3142 -0.0141  0.0968
 8351W        W25198  14.029   5.173   4.428  0.2774 -0.0993  0.0747
 8352W        W25199  16.735   9.895   1.827 -0.1084 -0.1204 -0.1236
 8353W        W25200  16.603   2.526  11.327 -0.0477  0.2020 -0.0265
 8354W        W25201  15.813  10.568  11.604 -0.1812  0.0005  0.2328
 8355W        W25202   8.156  13.235  15.779  0.0488 -0.1398 -0.2895
 8356W        W25203  13.904   3.058   0.758 -0.0007 -0.1146 -0.2089
 8357W        W25204   8.839   7.859   0.334  0.1001 -0.0583  0.0551
 8358W        W25205   1.718   3.284  12.434  0.4652  0.1533  0.3299
 8359W        W25206   3.523  14.270  13.156  0.0599  0.0350  0.2342
 8360W        W25207  11.684  15.922  12.473  0.0676 -0.1431 -0.0026
 8361W        W25208   3.338  17.357  12.293  0.1107  0.0829  0.1469
 8362W        W25209  15.575  18.189   0.835 -0.0896 -0.1799  0.3762
 8363W        W25210  13.951   7.532   4.829 -0.2389  0.0813 -0.1472
 8364W        W25211   0.633  10.489   2.301 -0.0602  0.1182 -0.0124
 8365W        W25212   7.351  11.765  15.662 -0.1275 -0.0526 -0.0312
 8366W        W25213   0.836  15.673   1.595  0.2663 -0.1233 -0.1520
 8367W        W25214  11.342   2.876  12.328  0.2987  0.2904 -0.0843
 8368W        W25215  10.244   9.085   2.276  0.2083  0.3231  0.2241
 8369W        W25216   1.537   0.043  15.345  0.0652  0.0056  0.2784
 8370W        W25217   1.718  12.258  14.650  0.0666  0.4054 -0.2055
 8371W        W25218   2.275  16.916   2.804 -0.1168  0.0882  0.0340
 8372W        W25219   4.678  11.679   3.827  0.0955 -0.4146 -0.0685
 8373W        W25220  17.830  12.127  15.647 -0.0388  0.3589 -0.1256
 8374W        W25221   6.579  14.268  15.997  0.0017  0.1192  0.0701
 8375W        W25222   9.993   8.536  15.398  0.1265  0.2153  0.0125
 8376W        W25223  17.735  13.890  16.174  0.1930 -0.0122 -0.0042
 8377W        W25224   3.201   5.235   4.653 -0.3222  0.1051 -0.0656
 8378W        W25225   2.188  14.082  15.412 -0.2584  0.0523 -0.2114
 8379W        W25226  15.210  17.411  13.937  0.1937  0.1399  0.3392
 8380W        W25227  11.957   1.611   4.079 -0.0201 -0.4115  0.1121
 8381W        W25228   9.717  14.240   0.193 -0.1310 -0.1307  0.1609
 8382W        W25229  12.414   3.745  14.901  0.0645 -0.1545  0.0199
 8383W        W25230  17.148  17.054  15.024  0.0411 -0.2370 -0.0143
 8384W        W25231  14.800   4.796   2.301  0.2315  0.0476 -0.3549
 8385W        W25232   9.249   2.412   3.697  0.0164 -0.2378 -0.3484
 8386W        W25233  17.769  10.801   2.714  0.0446  0.0844  0.3300
 8387W        W25234   7.522  11.537   4.478  0.2610  0.2884 -0.0466
 8388W        W25235   0.115   0.027  13.249 -0.2165  0.1791  0.3067
 8389W        W25236  14.852   2.568  11.593 -0.1485  0.1526 -0.0589
 8390W        W25237  11.471  17.204   3.939 -0.0947 -0.2315 -0.2468
 8391W        W25238   6.040  10.512  15.488 -0.3296  0.0374  0.2689
 8392W        W25239   3.840   8.184   2.411 -0.3264  0.0555 -0.0203
 8393W        W25240  13.711   1.948   3.171 -0.1959  0.2421 -0.3164
 8394W        W25241   1.679  17.364  15.688  0.2743 -0.0511  0.0611
 8395W        W25242   4.407  12.924   3.161  0.4170 -0.2605 -0.0418
 8396W        W25243  17.835  10.262   5.001  0.3162  0.1648  0.2306
 8397W        W25244  10.291   1.700   3.929  0.0200 -0.0160  0.0442
 8398W        W25245   6.034   0.707   0.305  0.1104  0.2079  0.1420
 8399W        W25246  10.040   4.806  11.792 -0.0998  0.4008 -0.0451
 8400W        W25247  12.582   0.299   2.640  0.2637  0.1899 -0.2694
 8401W        W25248  11.220   0.162   2.674  0.1581  0.0245 -0.2983
 8402W        W25249   5.014   2.732  14.456  0.3655 -0.1672  0.2003
 8403W        W25250   4.837  16.287  14.189  0.2016  0.3350  0.1382
 8404W        W25251  12.009  13.730   4.391 -0.1556  0.1115 -0.0082
 8405W        W25252   6.044   7.225  13.782 -0.1292  0.0094 -0.2100
 8406W        W25253  15.037  17.623   2.563  0.0946 -0.1755 -0.2366
 8407W        W25254   4.412  16.411   1.922 -0.3067 -0.1968 -0.2091
 8408W        W25255  11.034   4.501   5.253  0.0693  0.2106  0.1482
 8409W        W25256  12.775   3.101   2.229  0.0978 -0.1136 -0.1976
 8410W        W25257  11.837  15.046  12.608  0.2693  0.0964  0.1256
 8411W        W25258   1.501  10.983  14.935  0.0241 -0.0044  0.4309
 8412W        W25259   2.944   8.117   2.416  0.0738 -0.0235  0.1014
 8413W        W25260   8.611  13.727   6.299 -0.0258 -0.0365 -0.2074
 8414W        W25261   5.122  11.511  12.720  0.0987  0.1167  0.0564
 8415W        W25262  13.910   0.445   0.666 -0.0035 -0.2778 -0.1006
 8416W        W25263  16.124  10.756   0.535  0.0680  0.0708 -0.0800
 8417W        W25264   0.247  13.047  15.418  0.0422 -0.2115  0.3096
 8418W        W25265  12.207  14.331   2.929 -0.1552  0.1973 -0.3639
 8419W        W25266   3.903   6.161   0.039 -0.0958  0.0123 -0.0549
 8420W        W25267   9.912   4.874  12.758 -0.1302 -0.0027 -0.0158
 8421W        W25268  13.213   2.231   0.913  0.0930 -0.1202  0.1816
 8422W        W25269  18.045   4.061  11.352 -0.0542 -0.0596  0.0328
 8423W        W25270  14.458  11.520   2.067 -0.0405 -0.0312 -0.1257
 8424W        W25271   5.880  12.115   5.034 -0.2613  0.0265 -0.1641
 8425W        W25272  10.338   7.593  12.649  0.1334 -0.2685 -0.1635
 8426W        W25273   2.325  12.194  11.687 -0.1479  0.4729  0.2420
 8427W        W25274   3.400   2.129   0.272 -0.1743  0.3955 -0.6549
 8428W        W25275  16.883   9.399   1.561  0.0688  0.1563  0.1401
 8429W        W25276   1.002   3.037   5.597  0.0504 -0.0060  0.0199
 8430W        W25277  13.882  16.838   5.004 -0.2910 -0.0946  0.0285
 8431W        W25278   7.581  15.609   0.585  0.0717  0.2122  0.2233
 8432W        W25279  10.788  10.452   0.419 -0.2050  0.0774 -0.1086
 8433W        W25280   0.604   5.507  11.924 -0.2340 -0.1145 -0.1499
 8434W        W25281  15.742   8.090  14.993 -0.0174 -0.0857  0.0005
 8435W        W25282   2.481   7.620   4.197 -0.0322 -0.0955 -0.0887
 8436W        W25283  18.282  12.708  15.371  0.0330  0.2234  0.3220
 8437W        W25284  17.430  10.598   1.444 -0.0584  0.1587 -0.1445
 8438W        W25285   3.739   6.444   2.537  0.1773 -0.0197  0.0552
 8439W        W25286   8.291  18.033   3.955  0.0416  0.3828  0.2597
 8440W        W25287  15.290  16.605   2.770 -0.0685  0.1818  0.1757
 8441W        W25288   4.526   2.912   4.615 -0.0873  0.2021  0.1591
 8442W        W25289   6.394  11.477  13.341 -0.3525  0.2357 -0.1116
 8443W        W25290   5.510  15.390   5.091  0.1773  0.1623 -0.0512
 8444W        W25291   3.647   3.765   4.745  0.3287  0.2724 -0.1770
 8445W        W25292   4.650   9.205  13.743 -0.0982  0.1122  0.2367
 8446W        W25293  15.853  13.863   5.151  0.2510  0.2242  0.1009
 8447W        W25294   2.405   7.870   5.157  0.0858 -0.0898 -0.1664
 8448W        W25295   4.430   5.181  13.357 -0.1138 -0.4494 -0.3142
 8449W        W25296  12.854  10.713  15.593  0.2626  0.1137 -0.1280
 8450W        W25297   3.016  14.838  12.584 -0.0078  0.0847  0.1983
 8451W        W25298   1.752  17.700   3.655 -0.0964  0.1126  0.0981
 8452W        W25299   7.742  13.515   2.720  0.0190 -0.0196  0.1199
 8453W        W25300   1.494   9.515   0.667  0.0848 -0.1231 -0.2366
 8454W        W25301  17.422   7.619   2.993  0.2244  0.0243  0.3755
 8455W        W25302   6.033  17.938  12.792  0.0018  0.2325 -0.1405
 8456W        W25303  16.019   0.945  11.835  0.3221 -0.3709  0.1623
 8457W        W25304   7.282   2.856   1.737  0.1289  0.2724  0.0304
 8458W        W25305  18.282   1.726  16.250  0.1799 -0.2197  0.1207
 8459W        W25306  14.410   0.850   3.895 -0.2911 -0.0709  0.2245
 8460W        W25307   1.737  12.839  13.870  0.0013  0.0819  0.1082
 8461W        W25308  15.518   6.983  10.610 -0.2203 -0.0780 -0.1683
 8462W        W25309  13.858  15.678  11.850 -0.3168 -0.2960  0.2770
 8463W        W25310  17.594   1.457  13.711  0.0563  0.2553  0.2154
 8464W        W25311   1.392  17.597   0.246  0.1656 -0.3308 -0.3502
 8465W        W25312  14.230  12.519   3.047  0.3065 -0.2184  0.0791
 8466W        W25313   7.713  14.678   2.977  0.2226  0.1262  0.3934
 8467W        W25314   2.741  14.680  14.771 -0.0966  0.2836 -0.0389
 8468W        W25315  13.882   2.640  10.561  0.0279  0.0671 -0.1124
 8469W        W25316   5.192  12.609  13.114  0.0392  0.2688  0.0963
 8470W        W25317   2.913  11.443  13.051 -0.0246  0.1591 -0.0442
 8471W        W25318  16.757  11.706  13.195  0.0331 -0.2281  0.0992
 8472W        W25319   6.584  15.320  14.148  0.1137 -0.0884 -0.0061
 8473W        W25320   9.637   9.842  14.441  0.1627 -0.0301 -0.0971
 8474W        W25321  10.479   6.049   1.660 -0.5215  0.0602  0.1053
 8475W        W25322  14.110  11.176   4.968 -0.0435  0.1364 -0.1620
 8476W        W25323   8.545  17.369   5.086  0.1326 -0.1885 -0.0680
 8477W        W25324   8.276  10.488  12.861 -0.0058  0.0239  0.0646
 8478W        W25325  14.473  17.185  12.849  0.0112  0.0439 -0.2333
 8479W        W25326   8.219  18.049  11.658 -0.1419  0.2737 -0.1322
 8480W        W25327   2.595   8.258   1.842 -0.0635  0.2315 -0.0393
 8481W        W25328  14.491   7.014   4.892  0.0841 -0.2213 -0.0668
 8482W        W25329   3.020  16.140  12.972 -0.1095  0.0188 -0.0482
 8483W        W25330   6.142  11.051   6.312 -0.1140 -0.1186  0.1891
 8484W        W25331   3.929  13.223  10.915  0.1064  0.0045  0.0278
 8485W        W25332   9.617  11.799   4.380 -0.1051  0.0093 -0.1529
 8486W        W25333  10.794   5.111   4.467 -0.0439 -0.2510  0.2206
 8487W        W25334  14.834   7.919   1.323  0.2614  0.3680 -0.1197
 8488W        W25335  14.431  16.978   2.166  0.1443  0.0011 -0.2024
 8489W        W25336   9.467  13.504   2.974 -0.1507  0.0814  0.1682
 8490W        W25337   4.950   8.114   1.324 -0.0241 -0.2567 -0.1825
 8491W        W25338  13.565   8.719  14.009  0.0698  0.2340  0.0326
 8492W        W25339  13.289  15.892  14.118 -0.0652  0.0698  0.2040
 8493W        W25340   2.499  16.052  15.235 -0.2690 -0.0412 -0.0886
 8494W        W25341   3.191  17.091   5.319 -0.3555  0.1397 -0.4411
 8495W        W25342   9.397   5.976  15.214  0.2598  0.2185 -0.2857
 8496W        W25343   5.519   2.805   4.700  0.2637 -0.3837  0.5117
 8497W        W25344  13.257   8.900   3.067 -0.1341 -0.1754  0.1679
 8498W        W25345   7.620  16.414   3.599 -0.0336  0.0314  0.1873
 8499W        W25346  11.352   0.386   4.953  0.0508  0.1367 -0.2071
 8500W        W25347  11.550  17.520  14.551  0.1170  0.1516  0.0130
 8501W        W25348   3.039   3.740  11.802  0.3274 -0.1374  0.2694
 8502W        W25349  14.966   2.313   0.218 -0.0129 -0.0512 -0.0278
 8503W        W25350  15.564  10.401  12.086  0.1672  0.1601  0.2707
 8504W        W25351   1.892   4.885   1.707 -0.2361 -0.0961 -0.1288
 8505W        W25352  18.394  10.557   4.274 -0.0085 -0.0267 -0.0054
 8506W        W25353  10.726   5.036   2.562 -0.0817  0.0079 -0.1558
 8507W        W25354  16.898  12.490   2.225  0.4163  0.0079 -0.1015
 8508W        W25355  18.276  16.103   1.673  0.1161 -0.1573  0.2302
 8509W        W25356   5.149   9.792  13.250 -0.1052 -0.0452  0.2195
 8510W        W25357   0.502   8.124  11.068 -0.4650  0.1107 -0.1209
 8511W        W25358   0.028   7.467  10.886 -0.2905 -0.1098  0.0831
 8512W        W25359   3.930  12.918   4.253 -0.0070 -0.1088  0.0528
 8513W        W25360  13.682   4.499  16.036  0.0793  0.1710 -0.1189
 8514W        W25361   7.168   6.310  14.253 -0.0857 -0.0583 -0.0070
 8515W        W25362   2.467  11.504   4.560  0.2267  0.0601  0.0302
 8516W        W25363  13.443   5.106   4.934  0.2011  0.0545  0.0568
 8517W        W25364  16.750   8.464   0.112 -0.1554  0.1224  0.2091
 8518W        W25365  15.822  11.093  13.430  0.0217 -0.1495  0.1319
 8519W        W25366  11.538   8.323   1.702 -0.3675  0.0097 -0.3369
 8520W        W25367   9.482  14.547   2.044  0.1705  0.0805  0.0954
 8521W        W25368  15.183   7.337   3.414  0.0757 -0.2022  0.2317
 8522W        W25369   8.770   6.968   2.401  0.1921 -0.1229 -0.1444
 8523W        W25370  17.889  10.840   3.555  0.0219  0.1010 -0.3691
 8524W        W25371   4.909   6.759  15.464 -0.0507  0.3583 -0.2422
 8525W        W25372   7.025  15.984   4.097  0.5001  0.0485 -0.0642
 8526W        W25373  15.138  15.560   2.746 -0.1899 -0.0178 -0.0439
 8527W        W25374   1.291  16.346  13.524  0.0855 -0.0465 -0.2384
 8528W        W25375   5.248   1.642   4.029  0.0505 -0.0813  0.1353
 8529W        W25376   8.164   8.188  14.659 -0.2809  0.0351  0.2425
 8530W        W25377   3.182   5.590   1.697 -0.0119  0.3531  0.1484
 8531W        W25378   0.164   2.972   2.138  0.0502  0.1057 -0.1677
 8532W        W25379   4.044  15.417   2.183 -0.0957 -0.1580  0.1273
 8533W        W25380  14.714  16.234  11.982 -0.0795  0.1138  0.0538
 8534W        W25381  10.617   3.373  14.259  0.1689  0.0853  0.0308
 8535W        W25382  13.555   6.062  11.395 -0.0283 -0.1125  0.0848
 8536W        W25383  12.089   9.823  12.052 -0.1432 -0.2151 -0.0127
 8537W        W25384  11.731   1.915   4.977  0.2006 -0.0934 -0.1196
 8538W        W25385  18.139  16.830   2.444  0.0409 -0.1301 -0.1550
 8539W        W25386   4.705  17.351   1.098  0.2285 -0.0381  0.1820
 8540W        W25387  16.501   3.444  14.277 -0.1880 -0.1235  0.4124
 8541W        W25388  11.288  11.637  12.342  0.2400  0.0303  0.2828
 8542W        W25389  14.968  16.881   3.062  0.3365 -0.0673 -0.0823
 8543W        W25390   5.241   6.632  13.027 -0.3316 -0.3299 -0.0439
 8544W        W25391   5.640   0.971   0.631  0.0733  0.0834 -0.0599
 8545W        W25392   0.271   6.493   2.045 -0.0368  0.1049  0.1488
 8546W        W25393   5.192  15.350   3.230 -0.2270 -0.0640 -0.0687
 8547W        W25394   4.622  10.486  12.075  0.0630  0.1085 -0.1321
 8548W        W25395   0.132  17.591  11.998 -0.1100 -0.1022  0.2635
 8549W        W25396  11.031   9.818  11.901  0.3009  0.1659  0.0788
 8550W        W25397   6.684  15.889  11.955 -0.2209 -0.0120  0.0519
 8551W        W25398  14.567   9.738  11.464 -0.2973  0.0918 -0.1714
 8552W        W25399   7.994   5.549   1.794  0.0635  0.1560 -0.0000
 8553W        W25400   6.918   5.454  11.786  0.2534  0.0351 -0.3150
 8554W        W25401  17.294  13.412  13.364  0.0255  0.2122 -0.2511
 8555W        W25402   5.913  10.699   2.808 -0.1170 -0.1873  0.0164
 8556W        W25403  18.389   9.109   3.392  0.0868  0.1468 -0.3218
 8557W        W25404   9.027  10.885  12.803 -0.1252  0.1188  0.1161
 8558W        W25405  16.560  18.057  11.782 -0.2036  0.3721 -0.2564
 8559W        W25406   9.656   8.483   1.506 -0.0960  0.1009  0.0596
 8560W        W25407   8.091   8.284   0.312 -0.2324  0.2035  0.0167
 8561W        W25408   2.361   5.032  15.028  0.0274 -0.1472  0.0156
 8562W        W25409   5.041   1.583   1.336 -0.0666 -0.5304  0.2627
 8563W        W25410  14.916  11.204   2.155 -0.2808  0.0246  0.0444
 8564W        W25411  14.783  11.150  13.560  0.1237 -0.0099  0.0238
 8565W        W25412  16.434   9.921   2.189 -0.0719  0.1230  0.1069
 8566W        W25413   9.679   0.695  16.260 -0.3000  0.0465  0.1022
 8567W        W25414  14.650  14.980   2.349  0.0850  0.1602 -0.1806
 8568W        W25415  17.195  11.871   2.020 -0.3669  0.3524  0.0973
 8569W        W25416  12.557  11.320  14.531  0.0749 -0.0963 -0.2039
 8570W        W25417  17.356   6.950   3.913 -0.0959  0.3098  0.0217
 8571W        W25418   0.024  16.344   0.372  0.1859 -0.0168 -0.1915
 8572W        W25419  12.947   8.422   4.269  0.1101 -0.0780  0.3327
 8573W        W25420   6.905  11.497  15.861  0.1983 -0.0606 -0.0963
 8574W        W25421   5.378  14.444   3.277  0.0907  0.1930  0.1314
 8575W        W25422   2.848  12.598  12.749  0.1408 -0.2500 -0.0746
 8576W        W25423   7.448   7.271  12.704 -0.0340  0.0122  0.0809
 8577W        W25424  13.297   0.318  11.522 -0.1173  0.1131 -0.2201
 8578W        W25425  17.527  11.756  13.544  0.3545  0.0415 -0.1046
 8579W        W25426   7.874  17.627   2.497 -0.1645 -0.1036  0.1472
 8580W        W25427   7.006  15.745   3.584 -0.2645 -0.2265 -0.2663
 8581W        W25428  15.871   0.161   4.857 -0.2660 -0.0813 -0.1364
 8582W        W25429   0.076   0.161   0.141  0.0932  0.4994  0.2708
 8583W        W25430   9.020  15.501   1.915  0.3011  0.1915  0.1219
 8584W        W25431  14.765  15.846   2.478  0.4663  0.1699  0.1575
 8585W        W25432  11.169  13.383   4.175  0.1519 -0.3437 -0.2114
 8586W        W25433   9.106  15.142   4.174  0.0681  0.1881  0.0437
 8587W        W25434  15.113   7.040   5.157  0.1014 -0.0131  0.2012
 8588W        W25435   5.202  17.523   5.163  0.3731  0.0735  0.1025
 8589W        W25436  11.756   4.513  13.295  0.2728  0.1466 -0.1444
 8590W        W25437  16.538  11.252  12.831 -0.1676 -0.0223  0.1481
 8591W        W25438  12.732  13.559   4.844 -0.0080 -0.2163 -0.1355
 8592W        W25439   5.606   4.871  13.956  0.2525  0.0464  0.1145
 8593W        W25440  11.666   9.714   4.672 -0.2984 -0.2112  0.4120
 8594W        W25441   7.121   0.954   4.683  0.2266 -0.1702 -0.3937
 8595W        W25442  12.187  10.984  13.424 -0.1771  0.3196 -0.0824
 8596W        W25443   2.317   1.242   5.103  0.1067  0.1179  0.2089
 8597W        W25444  10.256  13.853   6.051  0.1355 -0.0300 -0.0187
 8598W        W25445  15.107  14.078   1.692 -0.0076 -0.2164 -0.2318
 8599W        W25446  18.269   8.140   3.945 -0.0916  0.1506  0.1515
 8600W        W25447   6.129  13.165   2.356  0.0602  0.3016 -0.0338
 8601W        W25448  12.386   2.237  11.377  0.0113  0.0737 -0.0293
 8602W        W25449  10.506  10.418   3.295  0.3089 -0.1305  0.0791
 8603W        W25450   3.425   1.560   0.304  0.2342 -0.0838 -0.5145
 8604W        W25451   7.938  16.677   6.595 -0.0204 -0.2782  0.1988
 8605W        W25452   7.559   7.623  12.302  0.0859  0.1811 -0.1374
 8606W        W25453  10.262   0.339   3.836  0.0255 -0.1095  0.3523
 8607W        W25454  14.459   5.193   3.651  0.0109  0.1320 -0.1706
 8608W        W25455  17.417   5.277  13.349 -0.1868  0.2648  0.1224
 8609W        W25456  14.747  16.326   0.071  0.0670 -0.0443 -0.2144
 8610W        W25457  15.534  11.190  14.322 -0.1629  0.1017  0.2029
 8611W        W25458   0.129   5.086   3.860  0.0197  0.0422  0.0377
 8612W        W25459  13.904   0.269   3.771 -0.0941  0.2403  0.2255
 8613W        W25460   2.765   9.918   2.014  0.1657  0.0743  0.1799
 8614W        W25461   2.111   0.033   1.064 -0.0206 -0.0014  0.1833
 8615W        W25462  10.205   4.696   0.900 -0.2233 -0.0578  0.0631
 8616W        W25463  18.385  15.228  12.209  0.0258 -0.0429 -0.0458
 8617W        W25464   6.098   4.885  13.888 -0.1800 -0.0607 -0.1666
 8618W        W25465  16.939   7.717   0.338  0.1727 -0.0454  0.1070
 8619W        W25466   7.761  18.231  13.222 -0.0868 -0.1200 -0.0367
 8620W        W25467   0.714   8.381  12.444  0.0037 -0.1481  0.2835
 8621W        W25468   8.488  17.017  13.534  0.0462  0.3688 -0.0895
 8622W        W25469  13.507  12.152  12.155  0.0176 -0.0712 -0.1455
 8623W        W25470  10.341   1.242   1.579  0.1827 -0.3741  0.3494
 8624W        W25471   5.989   7.239   1.761  0.0321  0.2253 -0.2543
 8625W        W25472  12.024  10.473  14.814 -0.0159  0.2437  0.0387
 8626W        W25473   6.042   2.120  15.123  0.1001  0.2923  0.1864
 8627W        W25474   4.995  17.463   4.181  0.1344 -0.0434  0.0805
 8628W        W25475   0.646   3.540   4.113  0.1447  0.1126  0.0210
 8629W        W25476  10.499  11.925  15.926  0.3081  0.0949  0.1242
 8630W        W25477  17.117   3.846   1.188  0.2102  0.5138 -0.1644
 8631W        W25478   9.189   4.425  10.775 -0.1030 -0.0084 -0.0157
 8632W        W25479   3.356   2.503   4.903 -0.0816 -0.1353 -0.0314
 8633W        W25480   6.846   7.707   2.374 -0.1842  0.1497  0.0741
 8634W        W25481   4.024  15.876   4.295 -0.3143 -0.1650  0.2292
 8635W        W25482  16.552   5.355  15.856  0.0487  0.4733  0.2017
 8636W        W25483   6.696   2.870   0.858  0.1052 -0.2913 -0.1030
 8637W        W25484   3.508   4.335   1.790 -0.2717 -0.1854 -0.2003
 8638W        W25485   3.423   5.894  10.680  0.1339 -0.3591 -0.1824
 8639W        W25486  13.501   9.335   2.878  0.2480 -0.3146 -0.2670
 8640W        W25487  13.846   1.804   4.341 -0.1202 -0.2645  0.4433
 8641W        W25488   8.716  15.220  12.564 -0.0736  0.3805 -0.1017
 8642W        W25489   6.609   0.961   0.685  0.0749  0.0540 -0.1305
 8643W        W25490  13.305  13.803   2.841 -0.0765  0.1873  0.1737
 8644W        W25491   4.457   8.884  16.142  0.1880  0.0515  0.2967
 8645W        W25492   0.159   3.127  10.485  0.2527  0.4308 -0.1812
 8646W        W25493   5.304   5.207   5.608  0.1279 -0.0946  0.0466
 8647W        W25494   3.891  16.247  14.670  0.0890  0.0227 -0.1542
 8648W        W25495  12.175   2.635   1.693 -0.1786 -0.0001 -0.1261
 8649W        W25496  12.976   7.004   5.330  0.0261 -0.0697  0.3037
 8650W        W25497  15.885   8.334  11.372  0.1004  0.3153 -0.2687
 8651W        W25498  10.864   0.599  13.448 -0.2315 -0.0686  0.0220
 8652W        W25499   4.113   2.059  12.707 -0.0585 -0.0155  0.2490
 8653W        W25500   2.469  15.303   3.312 -0.2519  0.1377  0.0251
 8654W        W25501   9.244  12.733   1.309  0.3204  0.0461 -0.1383
 8655W        W25502  11.898  15.650   4.081  0.1367  0.0456  0.1491
 8656W        W25503   2.310  13.359   5.530  0.1717  0.1585 -0.0267
 8657W        W25504   0.602  11.666   6.376 -0.1231 -0.0048 -0.0123
 8658W        W25505  11.049  10.251  12.202  0.3321 -0.3571  0.0506
 8659W        W25506   3.306   4.507  13.602  0.2166  0.1117 -0.1129
 8660W        W25507   9.806  16.504   2.762 -0.0229  0.0289  0.1579
 8661W        W25508   7.902  15.970   0.548  0.0518 -0.0699 -0.3779
 8662W        W25509   0.391   5.297   1.062 -0.0567 -0.1312 -0.0401
 8663W        W25510  11.156   2.358  12.597 -0.0267  0.1161  0.4183
 8664W        W25511  15.200  14.233  11.216  0.0051  0.1132  0.1540
 8665W        W25512  18.379  18.099   2.076 -0.0791  0.1454 -0.2200
 8666W        W25513   4.431   7.687  14.129  0.0705 -0.1461 -0.0647
 8667W        W25514   4.308  15.665  16.019 -0.1375  0.1871 -0.1678
 8668W        W25515  12.995   2.786   3.215  0.1598  0.2369 -0.1061
 8669W        W25516   6.821   9.758   0.881 -0.1229  0.0633  0.2504
 8670W        W25517   4.172   9.235  12.059  0.0662  0.0552  0.0892
 8671W        W25518   8.942  11.527   3.537 -0.3048 -0.0832 -0.1209
 8672W        W25519  14.956   7.595   4.183  0.0432  0.0835  0.0250
 8673W        W25520  12.379   2.130   0.556  0.1584  0.1595  0.2218
 8674W        W25521   0.742  12.672   3.376 -0.0594 -0.0735 -0.2490
 8675W        W25522   3.884  10.049  15.693  0.1718 -0.2019 -0.1482
 8676W        W25523   1.703  16.747  11.599 -0.2721  0.2352  0.0372
 8677W        W25524   5.501   0.355  15.203  0.1076 -0.2094 -0.2990
 8678W        W25525   0.890   7.929  14.294  0.0485  0.1982  0.3768
 8679W        W25526   0.602   0.381  11.577  0.2547  0.1343  0.0540
 8680W        W25527  16.083   9.001  15.386 -0.4018  0.1956  0.2880
 8681W        W25528   2.053   9.680  11.834  0.1945  0.1187 -0.1424
 8682W        W25529   3.580   5.823   2.813  0.1301 -0.1941 -0.0776
 8683W        W25530   7.375   9.229  14.623 -0.2282  0.1212  0.0040
 8684W        W25531   3.400   9.554   0.251 -0.2445  0.0956  0.2984
 8685W        W25532  15.402   1.834  16.256  0.0932 -0.1307 -0.1161
 8686W        W25533   4.188  16.384  15.523  0.1342  0.0870  0.2123
 8687W        W25534   6.580   7.127   3.042  0.0221  0.2654 -0.2112
 8688W        W25535   5.431   2.734   0.721  0.0449 -0.1698 -0.2527
 8689W        W25536  17.226   8.994  14.699 -0.2500  0.2345  0.0359
 8690W        W25537  11.710  10.676  11.477  0.1800  0.0470 -0.2360
 8691W        W25538   7.796   1.239   2.013 -0.0006 -0.1354  0.0007
 8692W        W25539  11.639  14.556  15.460 -0.0935 -0.1122  0.1476
 8693W        W25540   9.391   1.612  12.633 -0.0074  0.2348 -0.4718
 8694W        W25541  12.697   3.259  12.001 -0.2293 -0.1189  0.0200
 8695W        W25542   8.341   2.133   3.370  0.0010 -0.3371 -0.1330
 8696W        W25543  16.084   2.308  12.241 -0.0947  0.1041 -0.1316
 8697W        W25544  12.178   7.143  12.623  0.0888  0.0487 -0.0314
 8698W        W25545   6.038  18.301  16.344  0.1891  0.2430 -0.1363
 8699W        W25546  11.015   2.207   1.853 -0.1114  0.0634 -0.0613
 8700W        W25547  13.296   6.532  12.142  0.1843  0.1219  0.0743
 8701W        W25548   0.720  12.560   4.814 -0.0605 -0.3073 -0.1914
 8702W        W25549  16.677   2.895   1.508  0.0627 -0.2009 -0.2821
 8703W        W25550  15.072   1.272   1.685  0.1855  0.0108 -0.2291
 8704W        W25551  15.225  17.826   5.102  0.2329  0.0347  0.0363
 8705W        W25552   7.249  17.926  14.774  0.1241 -0.3502  0.0025
 8706W        W25553  11.514   9.865   5.213 -0.1532  0.1177  0.1257
 8707W        W25554   4.557   6.662  15.872 -0.0391  0.1040  0.1528
 8708W        W25555   2.013   6.851   1.869 -0.2078  0.1338 -0.0416
 8709W        W25556   0.276  10.148   4.222  0.0508  0.0880 -0.1302
 8710W        W25557   9.064  16.881   1.522 -0.0922  0.0377  0.0360
 8711W        W25558   0.089  13.752   0.961 -0.2537 -0.2053 -0.0573
 8712W        W25559   3.275  14.482   0.831 -0.4138 -0.1266 -0.0078
 8713W        W25560   1.429  13.306   0.382 -0.0382  0.1384 -0.0213
 8714W        W25561  17.964  16.074  11.657 -0.4706  0.1157 -0.1109
 8715W        W25562   9.469  16.848  15.208 -0.3809 -0.1561  0.1314
 8716W        W25563   3.150  11.861   6.326 -0.0233 -0.0214  0.0622
 8717W        W25564  15.666   0.354  12.797  0.4775 -0.1327 -0.3367
 8718W        W25565  14.884  11.663   4.510 -0.0000  0.0704 -0.0041
 8719W        W25566   6.869   7.788   1.839 -0.0987  0.0937 -0.4227
 8720W        W25567   6.147   7.433   6.039  0.1826 -0.0910 -0.0574
 8721W        W25568  14.218  11.272  14.479 -0.0113 -0.3523 -0.2243
 8722W        W25569  10.763   5.012   2.050 -0.0393 -0.0675  0.0981
 8723W        W25570  18.053   8.994   0.842  0.0173 -0.1177 -0.2417
 8724W        W25571   8.331  13.626   5.823  0.0164  0.1401  0.1237
 8725W        W25572   7.924   8.092   0.731  0.3309 -0.0956 -0.0368
 8726W        W25573   9.854   9.279   3.973 -0.1540  0.2229  0.1616
 8727W        W25574   6.792  15.305  15.567  0.0107  0.3835  0.2019
 8728W        W25575  18.344  12.070  11.518 -0.2012  0.1021 -0.1852
 8729W        W25576  17.358   1.486   2.645  0.3378 -0.2571  0.0841
 8730W        W25577   6.572   4.492  12.540  0.1715  0.1159 -0.1258
 8731W        W25578   2.178  14.931   0.650  0.0788 -0.0704 -0.4146
 8732W        W25579   8.371  11.390   0.733  0.1362  0.1894  0.1456
 8733W        W25580   1.489   0.795  14.827  0.0026  0.2517  0.1069
 8734W        W25581  14.443  10.019   1.787  0.0140 -0.0394  0.1912
 8735W        W25582  11.963   0.515   0.175 -0.2142  0.2003  0.3011
 8736W        W25583   2.707  11.502  16.078 -0.1784 -0.1619 -0.1244
 8737W        W25584  11.940  14.913   5.662  0.1515  0.1887 -0.3361
 8738W        W25585  17.874   0.089   1.341  0.1219 -0.0061 -0.2404
 8739W        W25586  13.039   5.376   4.916  0.1591  0.0337 -0.0589
 8740W        W25587   3.747  11.517   2.894 -0.1136 -0.3478 -0.1911
 8741W        W25588  10.419  15.073   2.647 -0.3485  0.0177  0.0836
 8742W        W25589   3.296   7.080  12.585 -0.0729  0.0402  0.1256
 8743W        W25590  10.006  15.466   6.186  0.4193 -0.0603  0.0078
 8744W        W25591  12.816   0.079   4.109  0.1923 -0.0372 -0.0698
 8745W        W25592  15.627   5.206   4.661 -0.2786  0.1522  0.0512
 8746W        W25593   0.874   0.954  11.914 -0.3106  0.1521 -0.0532
 8747W        W25594   8.075   4.839   2.348  0.1099 -0.0188  0.2473
 8748W        W25595   6.141   1.515   4.715  0.3463 -0.1179 -0.2370
 8749W        W25596  13.648   4.100  14.911 -0.1675  0.1046 -0.2268
 8750W        W25597   6.482  13.459  14.334  0.0019  0.2290 -0.0603
 8751W        W25598   6.510  11.099   5.878 -0.1333 -0.0760  0.1027
 8752W        W25599   1.785   2.732  11.510  0.0663  0.2290  0.2590
 8753W        W25600   6.965   4.065  10.743  0.0029 -0.2448  0.2294
 8754W        W25601   3.533   0.776  15.949  0.0682  0.2899  0.1989
 8755W        W25602   7.279   4.670   1.493  0.1053  0.2834  0.0284
 8756W        W25603  14.413   0.340   3.396 -0.2195 -0.3270 -0.0449
 8757W        W25604   5.436  10.449  12.829 -0.2446  0.1122  0.2710
 8758W        W25605   2.283   1.829   2.429  0.2385 -0.1337  0.1310
 8759W        W25606   1.898   6.364  11.161 -0.0006 -0.0847  0.2147
 8760W        W25607  12.549  14.684  14.527 -0.0166  0.2442 -0.1648
 8761W        W25608  14.964   3.151   1.650  0.2570  0.0260 -0.4184
 8762W        W25609   4.963  12.112   1.549 -0.1065  0.0795  0.1683
 8763W        W25610   6.968  10.899  15.842  0.2134  0.3883  0.0832
 8764W        W25611   9.222  14.640   5.771  0.3383  0.0415 -0.1238
 8765W        W25612   2.870   2.969   2.609 -0.0064 -0.1130 -0.1627
 8766W        W25613   4.267  17.725   2.420  0.0816 -0.2224  0.4065
 8767W        W25614  15.682  15.707   0.380  0.4357  0.0385 -0.3495
 8768W        W25615  13.771  16.940  11.252 -0.0303 -0.1470  0.2458
 8769W        W25616  14.148  16.053  15.831 -0.2898  0.1690  0.1557
 8770W        W25617   1.434   7.628  14.252  0.0029 -0.4557 -0.0975
 8771W        W25618  14.404   4.641  15.490 -0.1024  0.0016  0.1290
 8772W        W25619  14.137  15.690   0.029 -0.0533  0.3059  0.0009
 8773W        W25620   4.223   4.487  14.148  0.0190 -0.1931 -0.1708
 8774W        W25621  15.102   4.805  10.964  0.1123  0.0050 -0.1019
 8775W        W25622   5.393   0.530  16.250 -0.0566  0.1322  0.1763
 8776W        W25623  13.567   8.967   2.600  0.0775  0.1451  0.0291
 8777W        W25624  17.005  15.328   0.826  0.1630 -0.1757  0.1182
 8778W        W25625  15.011   8.383   3.806 -0.3641  0.2100  0.0070
 8779W        W25626   8.965   8.309  12.117  0.0049  0.0216  0.2067
 8780W        W25627   4.778  13.403   4.495  0.1219  0.0064 -0.2387
 8781W        W25628  17.886  13.079   5.159  0.1363  0.2662  0.3422
 8782W        W25629  17.284   2.441   4.987  0.1380 -0.3332  0.2225
 8783W        W25630   4.881   6.032   2.327 -0.0184  0.0109  0.2176
 8784W        W25631  13.474  16.595   0.260  0.2713 -0.3115  0.1204
 8785W        W25632   1.878   3.885   3.382  0.2160  0.1353  0.1405
 8786W        W25633  16.050   7.846  10.378 -0.0376  0.2834  0.0728
 8787W        W25634   4.982  10.417  11.703 -0.1635 -0.0079 -0.1988
 8788W        W25635   0.532   9.563   5.236  0.0144  0.1460  0.1366
 8789W        W25636   2.377  11.438   4.069  0.1028 -0.3984  0.1173
 8790W        W25637  15.616   2.440  14.372  0.1750  0.0217  0.0595
 8791W        W25638  15.704   5.267   2.312 -0.2176 -0.0976 -0.2274
 8792W        W25639  12.075   6.676  16.122 -0.1567 -0.0301 -0.0723
 8793W        W25640  16.307  17.882  13.083  0.1993 -0.1692  0.3048
 8794W        W25641  10.899  17.392  13.071 -0.3355 -0.0798  0.4317
 8795W        W25642   2.189   8.808  15.536  0.0941  0.1966 -0.2181
 8796W        W25643  13.311   2.933   4.683 -0.1584  0.2220  0.3076
 8797W        W25644   1.283   3.716  10.756 -0.1534  0.1041 -0.0731
 8798W        W25645   0.354   5.721  15.564  0.0721 -0.2392  0.1672
 8799W        W25646  15.123  16.486   5.605 -0.4835  0.0686 -0.0703
 8800W        W25647  10.094  13.251   1.227 -0.0699 -0.0663  0.1438
 8801W        W25648   3.179   1.559  13.327  0.0421 -0.0014  0.3904
 8802W        W25649   1.388  13.453   5.987 -0.2480 -0.1190 -0.1078
 8803W        W25650   5.044  17.823  13.024  0.0496 -0.0260 -0.0156
 8804W        W25651  11.789  15.849  15.959 -0.4009 -0.2363 -0.0759
 8805W        W25652   6.204   5.337  14.110  0.1142  0.0195 -0.0027
 8806W        W25653  14.649   9.302  16.343  0.2220  0.2187  0.0559
 8807W        W25654  15.023  16.042   0.482 -0.1169 -0.1549 -0.4941
 8808W        W25655  13.493   7.145   3.374  0.0722  0.4864  0.1838
 8809W        W25656   2.466   3.706  16.210  0.0603  0.2240  0.3529
 8810W        W25657   6.162   9.332   3.603  0.3173 -0.2922 -0.3829
 8811W        W25658   3.427  18.150  11.867  0.2548  0.0972 -0.0072
 8812W        W25659  13.380  11.457   4.666  0.3126  0.0003 -0.2114
 8813W        W25660  13.110  16.156   0.871  0.1107  0.1800  0.1825
 8814W        W25661  15.743   2.284  16.210  0.0830  0.1832 -0.2749
 8815W        W25662   6.695   6.264  12.418  0.0029 -0.3404  0.3883
 8816W        W25663  15.071   9.330  14.542 -0.3050 -0.3517 -0.0110
 8817W        W25664  13.822   1.034  13.903  0.0347  0.2600  0.0977
 8818W        W25665  17.328   5.576  15.578  0.0014 -0.1676 -0.0664
 8819W        W25666  13.663   5.042  13.938 -0.1509  0.0426 -0.0049
 8820W        W25667   1.765  16.106  15.916  0.0914 -0.0567 -0.1032
 8821W        W25668  13.516   5.531  16.002  0.1736  0.0206  0.2877
 8822W        W25669   6.985   1.198  14.492 -0.0366  0.1018  0.1303
 8823W        W25670   8.194   8.674   2.951  0.0531 -0.0698  0.4411
 8824W        W25671   8.218  11.680   5.343  0.2721 -0.2842  0.3111
 8825W        W25672   3.045   2.961   5.584 -0.3219  0.1443 -0.0372
 8826W        W25673   7.161   8.652  13.354 -0.2092  0.0755 -0.0744
 8827W        W25674  13.358  12.579   1.658 -0.0092  0.2537 -0.3383
 8828W        W25675   0.133   3.877  15.209  0.2011 -0.1331 -0.0742
 8829W        W25676   7.324   9.688   3.282  0.0027  0.0023 -0.0383
 8830W        W25677   4.869   7.849   0.558 -0.2282  0.0781 -0.2750
 8831W        W25678  18.416   2.833   3.072  0.1747 -0.2168 -0.0062
 8832W        W25679   3.065  10.808   5.341  0.0004 -0.1706  0.1689
 8833W        W25680  11.840  15.903   1.467  0.0440  0.0110  0.0868
 8834W        W25681   9.345   7.316  13.548  0.1461 -0.0349  0.5563
 8835W        W25682   0.902  17.501   0.389  0.4169  0.0661 -0.3133
 8836W        W25683   6.054   2.177   1.278 -0.1273 -0.3839 -0.0424
 8837W        W25684   6.959   6.519   3.073 -0.0911  0.1708 -0.2144
 8838W        W25685  14.991   7.790   3.741  0.1484 -0.2603 -0.1972
 8839W        W25686   6.677   2.100   1.934 -0.0331  0.0257 -0.1239
 8840W        W25687  14.815   6.290  16.042 -0.1636 -0.0262  0.1828
 8841W        W25688   7.810  12.642   1.866  0.1307  0.2039  0.0509
 8842W        W25689   4.367  13.978  15.456  0.0116  0.3197 -0.1954
 8843W        W25690   6.220  16.061   4.108 -0.1268  0.1736  0.2953
 8844W        W25691   3.693  16.235   3.007  0.4656 -0.0588  0.3636
 8845W        W25692   8.335  16.019  13.967 -0.0538  0.0359  0.1217
 8846W        W25693  14.185   7.351  12.838 -0.0867  0.0715 -0.2872
 8847W        W25694   7.488   6.634   0.102  0.2650 -0.0470 -0.2281
 8848W        W25695  13.055  12.244  11.705 -0.0198  0.1247  0.0552
 8849W        W25696   6.959   0.903   2.035 -0.2164 -0.0964 -0.0620
 8850W        W25697   6.447   1.410   3.735 -0.0837  0.4421 -0.1149
 8851W        W25698   1.891   0.094   4.285  0.1195 -0.2904  0.1714
 8852W        W25699   6.120   1.480  11.792 -0.0281  0.1582  0.3997
 8853W        W25700   7.029   9.497  13.225  0.0720 -0.0102 -0.0561
 8854W        W25701  15.321  18.159   5.454 -0.0633 -0.0729  0.1606
 8855W        W25702  18.186   4.923  13.113 -0.0342 -0.2028 -0.4097
 8856W        W25703   3.525   9.080   4.098  0.0974 -0.1822 -0.0613
 8857W        W25704  11.959   0.697   1.728  0.1317  0.0522  0.2787
 8858W        W25705  13.302  10.568  11.854 -0.0514  0.1159  0.0841
 8859W        W25706   0.996  13.193   5.574  0.3005 -0.1224  0.2455
 8860W        W25707   5.597   5.078  10.365  0.0714 -0.0394  0.0322
 8861W        W25708  16.525   4.111  11.400  0.0578 -0.1699 -0.1879
 8862W        W25709   2.198   8.032  12.153 -0.2223  0.1097 -0.3852
 8863W        W25710   1.191  10.206  10.492  0.2306 -0.4616  0.0124
 8864W        W25711   0.769   1.042  14.772  0.1804 -0.0647 -0.0486
 8865W        W25712  14.004   9.065  12.585  0.1500  0.3858  0.0226
 8866W        W25713  17.473  14.000   0.194 -0.0298 -0.2572  0.0779
 8867W        W25714   6.361  13.545   5.231  0.0540 -0.1551 -0.3058
 8868W        W25715   8.497  16.185  11.471  0.1999 -0.3007  0.1709
 8869W        W25716   7.703  12.928   0.990 -0.0893 -0.2314  0.1629
 8870W        W25717   5.184  11.364   0.305  0.1656 -0.4941 -0.0557
 8871W        W25718   5.325   4.122  16.316 -0.0547 -0.1630 -0.2562
 8872W        W25719  16.289   3.418   0.690  0.4384  0.1618  0.0001
 8873W        W25720   2.279   6.545  13.345  0.0273 -0.1477 -0.1327
 8874W        W25721   3.018   0.455  11.371  0.1010  0.0014  0.2412
 8875W        W25722   7.346  18.109  13.464  0.0395 -0.4367 -0.1103
 8876W        W25723   8.849  10.562  16.241 -0.1278 -0.1017  0.1928
 8877W        W25724  16.032   4.167   1.670  0.1808  0.1806  0.0975
 8878W        W25725   5.601   1.819  15.927  0.4189  0.0671  0.3088
 8879W        W25726   8.243   0.785   4.716  0.3845 -0.0503 -0.3670
 8880W        W25727   9.265   6.277   5.543 -0.1209 -0.1821 -0.1660
 8881W        W25728   0.082   9.314  15.282  0.3727  0.0256 -0.0929
 8882W        W25729  13.891   3.367  14.444  0.0856 -0.2208  0.0643
 8883W        W25730   5.092  16.223   1.493  0.1442 -0.0995  0.1782
 8884W        W25731   8.844   0.626   2.006  0.2681  0.1327 -0.2256
 8885W        W25732  11.075   2.612   4.684  0.2467 -0.1481  0.1539
 8886W        W25733  14.531   3.277   1.975 -0.2379 -0.0564  0.0380
 8887W        W25734   5.024   1.212   2.789 -0.2661 -0.1427  0.0838
 8888W        W25735   3.681  18.354   0.038 -0.1052  0.0374 -0.0558
 8889W        W25736  13.420   5.975   2.107 -0.1504  0.0366  0.0201
 8890W        W25737   7.442  18.198   1.613 -0.2706 -0.1686 -0.3741
 8891W        W25738   3.182   6.402  15.048 -0.2768 -0.0613 -0.1940
 8892W        W25739   6.174  17.082  15.034  0.2861  0.1601 -0.1069
 8893W        W25740  14.706   6.149   5.441  0.0688  0.3553  0.0790
 8894W        W25741  11.725   6.241   1.996  0.0649  0.2708 -0.5451
 8895W        W25742  17.465   8.885  13.944 -0.2187  0.2432 -0.1664
 8896W        W25743   9.604   1.245   4.757 -0.2238  0.0183  0.2116
 8897W        W25744   1.959   3.333   3.463  0.3199 -0.1772 -0.0955
 8898W        W25745  11.649  15.137   1.922 -0.1126  0.0286 -0.0494
 8899W        W25746   6.375  11.402   5.470 -0.0807  0.1926  0.0446
 8900W        W25747   0.454  13.240  15.815  0.1790  0.2097  0.2096
 8901W        W25748   7.148  14.551   0.989  0.4083  0.0528  0.0375
 8902W        W25749   6.770  15.662   1.557  0.2316 -0.1615  0.2444
 8903W        W25750  16.217  10.386   4.508  0.0783  0.0129 -0.0749
 8904W        W25751   2.671   4.468   4.895 -0.2271 -0.0029 -0.0127
 8905W        W25752  14.130  13.553  11.616 -0.0774  0.0524  0.2665
 8906W        W25753   2.112  17.280   1.857  0.2019  0.0361  0.0498
 8907W        W25754  13.592  11.486  15.273  0.0254 -0.0579 -0.1568
 8908W        W25755   7.841   3.871   3.553 -0.2317 -0.3157  0.0635
 8909W        W25756   7.658  16.838   1.122  0.1300 -0.0809  0.1931
 8910W        W25757  10.327   5.751   1.309 -0.1090 -0.4607  0.1275
 8911W        W25758  17.105  13.214  13.978  0.2435 -0.1329 -0.2781
 8912W        W25759   1.456   5.065   1.606 -0.2472  0.0160 -0.1824
 8913W        W25760  12.594  14.593  12.335 -0.2198  0.1088  0.0434
 8914W        W25761   7.858   2.482   4.637 -0.1358 -0.1014  0.0993
 8915W        W25762   5.743   8.379  11.776  0.2193  0.0460 -0.1144
 8916W        W25763  11.139   3.612   1.803 -0.2949  0.0552  0.2384
 8917W        W25764  14.951   7.605   0.096  0.1573 -0.0384 -0.0328
 8918W        W25765  12.334  10.041   2.932 -0.2852 -0.0246 -0.1189
 8919W        W25766   1.934  12.088  14.225 -0.2194  0.2333  0.0919
 8920W        W25767   1.994  10.658  15.658  0.0910  0.3094  0.1316
 8921W        W25768  14.489   7.054  12.004  0.2753 -0.0953 -0.0835
 8922W        W25769   8.445  13.347  13.850 -0.1830 -0.0983 -0.6572
 8923W        W25770  15.890  16.549  16.343  0.0126 -0.0841 -0.0488
 8924W        W25771   5.069   6.352   1.921 -0.0251  0.4011 -0.3106
 8925W        W25772   9.651  10.809  11.825 -0.0875  0.2096  0.1291
 8926W        W25773   7.075   2.658   1.302  0.3032  0.2398  0.1329
 8927W        W25774  15.182  14.915  11.752  0.0921  0.0771  0.0953
 8928W        W25775  10.122  11.995  15.600  0.0433 -0.2421 -0.2727
 8929W        W25776  15.747  15.531   1.533 -0.2286  0.1742 -0.0802
 8930W        W25777   1.770   9.470   0.168  0.2408  0.0947  0.0932
 8931W        W25778  15.827   9.072   4.736  0.1832 -0.3246 -0.2317
 8932W        W25779  15.469  13.838   5.507  0.1731 -0.1323 -0.2033
 8933W        W25780  11.380  11.836   2.334  0.0289  0.3626 -0.0954
 8934W        W25781   3.368   4.058   0.062  0.0589 -0.2522 -0.0454
 8935W        W25782  16.757   5.744   4.111  0.2218  0.0652  0.1552
 8936W        W25783  12.785  14.132   3.098 -0.0589  0.0352  0.1410
 8937W        W25784  10.556  13.439  14.291  0.1556 -0.3114  0.1976
 8938W        W25785   7.347  12.154   6.574  0.0176 -0.0479 -0.3014
 8939W        W25786   2.878   0.640   5.899  0.0224  0.1259 -0.1187
 8940W        W25787   6.692   2.857  15.008  0.0512  0.0705  0.0227
 8941W        W25788  13.648   3.615  14.026 -0.1033  0.0650 -0.4958
 8942W        W25789   8.165   0.435  12.800  0.1719 -0.2518 -0.1228
 8943W        W25790  14.073  13.196  12.914 -0.0756  0.0988  0.0307
 8944W        W25791   4.771  13.813   0.242  0.1009 -0.2782 -0.2540
 8945W        W25792   7.515  15.807  12.721  0.1608 -0.1806  0.0165
 8946W        W25793  15.628   2.815  11.520 -0.0220 -0.0028 -0.0804
 8947W        W25794   5.735  16.199  15.360 -0.1277 -0.2052 -0.2778
 8948W        W25795  12.412   3.501  11.161 -0.0052 -0.1750 -0.0080
 8949W        W25796   1.464   8.279  15.697  0.0602 -0.0546  0.0130
 8950W        W25797   2.180  16.188  11.718 -0.0908  0.0778 -0.1147
 8951W        W25798  15.043   3.730   0.317 -0.2385  0.0447 -0.4058
 8952W        W25799  13.563   6.779   3.700 -0.0449 -0.1362  0.2466
 8953W        W25800   5.051   6.722  14.133 -0.0637  0.1063  0.0347
 8954W        W25801   6.667  16.856   3.862  0.0690 -0.3717 -0.1657
 8955W        W25802   4.672   0.507  13.751 -0.0835  0.4455 -0.0402
 8956W        W25803  12.189  16.895  14.524 -0.0509 -0.1126  0.1612
 8957W        W25804  12.739   9.742  12.365  0.0174  0.1334 -0.3187
 8958W        W25805  13.969  15.003  12.691  0.0166 -0.0078 -0.0432
 8959W        W25806  17.218  15.741  15.469 -0.2891  0.2031  0.4256
 8960W        W25807  14.863  12.319   0.606  0.0861  0.1075 -0.2349
 8961W        W25808   8.603   3.242   0.997  0.0151 -0.2219  0.1915
 8962W        W25809   4.880  17.196  11.573 -0.2079  0.1899 -0.1230
 8963W        W25810  17.749  18.031  11.725 -0.3830  0.1142  0.0205
 8964W        W25811   2.590   4.995  15.585 -0.2054 -0.1450 -0.0624
 8965W        W25812   2.155   5.262  13.628  0.1208 -0.1010  0.3117
 8966W        W25813   0.085   8.047   1.639  0.0552 -0.0650  0.2068
 8967W        W25814  15.449  12.750  14.948 -0.0227  0.0204  0.1546
 8968W        W25815   7.330  16.404  11.531 -0.2080  0.1483 -0.1328
 8969W        W25816  16.931   9.451  10.639 -0.1888 -0.1879 -0.1424
 8970W        W25817   0.192   7.944  13.868 -0.0639 -0.4134  0.1107
 8971W        W25818  13.521  12.725   5.380 -0.1310 -0.1124 -0.2306
 8972W        W25819   4.831  14.910  13.416  0.2913 -0.0911 -0.0295
 8973W        W25820  10.513  12.421   2.310 -0.0840 -0.1950  0.3314
 8974W        W25821   5.622  11.134   0.090  0.2549  0.0729  0.0515
 8975W        W25822   8.168   1.638  15.001  0.0266 -0.0056 -0.4168
 8976W        W25823   5.078  13.005  14.928 -0.2088  0.2569 -0.3238
 8977W        W25824  13.419   0.187   1.321  0.0891 -0.0459 -0.1026
 8978W        W25825  12.799   6.698   2.583 -0.1635  0.2107 -0.1598
 8979W        W25826   6.963  11.853  13.634  0.0295  0.1220 -0.1706
 8980W        W25827   7.933   0.776   0.814  0.2767  0.0099 -0.0585
 8981W        W25828   3.445   1.701  12.094 -0.0471 -0.1389 -0.0310
 8982W        W25829  10.765  15.485   1.237  0.1417  0.4358 -0.0217
 8983W        W25830   6.216   8.633   5.020  0.2635  0.1842  0.1690
 8984W        W25831   0.560   0.405  12.595 -0.3519 -0.2191 -0.1241
 8985W        W25832  10.443  15.326  14.938 -0.0035 -0.1992  0.1810
 8986W        W25833   0.975   9.955   3.023  0.0584  0.0758 -0.1638
 8987W        W25834  13.853  16.264   3.811  0.0148 -0.0108 -0.0796
 8988W        W25835   5.267  13.511   4.692 -0.0642  0.0871 -0.0459
 8989W        W25836   1.820   8.900   3.330  0.1200 -0.0305 -0.1483
 8990W        W25837  18.195  14.686  14.072 -0.2930 -0.1415 -0.1096
 8991W        W25838  14.880   6.347   0.749 -0.0515  0.0815 -0.1111
 8992W        W25839  13.029  17.614   3.939 -0.1534  0.0180 -0.1998
 8993W        W25840  16.513   3.824  11.835  0.0577  0.0821  0.1240
 8994W        W25841  15.878  13.723  11.699 -0.0950 -0.0347  0.1326
 8995W        W25842   8.278   0.955  11.715 -0.1193 -0.2272  0.1552
 8996W        W25843   7.259  14.690   2.682 -0.2069 -0.0816  0.0530
 8997W        W25844   4.425   7.724   4.720  0.1733  0.1858  0.2736
 8998W        W25845   6.013  10.360  13.645  0.0106 -0.0571  0.0383
 8999W        W25846  14.200   9.837  16.035  0.0226 -0.0419  0.2477
 9000W        W25847  14.202   0.341  15.518  0.1781 -0.1974  0.0254
 9001W        W25848  17.999   6.518  11.595  0.0328  0.0824 -0.3982
 9002W        W25849  10.963  11.318   4.650 -0.0520  0.1776  0.3608
 9003W        W25850  15.646  17.710  14.998  0.0591  0.2276 -0.2872
 9004W        W25851  10.156   4.122  16.060 -0.2412  0.1309 -0.3200
 9005W        W25852   1.977   8.236  16.278 -0.0353 -0.1756  0.1408
 9006W        W25853   8.450  16.103  12.514  0.0759 -0.1478  0.1533
 9007W        W25854   8.344  10.279   0.716 -0.0706  0.0563 -0.1872
 9008W        W25855   1.249   1.109   2.577  0.2619 -0.2106  0.1405
 9009W        W25856   5.501   1.785   3.566  0.1192  0.0780  0.1032
 9010W        W25857   2.957   1.972   2.781  0.0251  0.0347 -0.1128
 9011W        W25858  15.716   7.163  13.585 -0.3109 -0.0122 -0.0310
 9012W        W25859   0.994   4.204  11.467  0.1266 -0.2814 -0.0188
 9013W        W25860  15.949   0.254   0.207 -0.1713 -0.0958  0.1123
 9014W        W25861   5.027  10.121  12.825 -0.3432  0.1035 -0.0835
 9015W        W25862   1.110  12.660   5.634  0.2988  0.0723  0.1134
 9016W        W25863   4.504   8.353   1.347  0.0589  0.0254  0.0530
 9017W        W25864   4.046  13.529  15.792  0.0016  0.0510  0.2924
 9018W        W25865   7.661  13.112  15.042 -0.0528  0.3413  0.0857
 9019W        W25866  12.000   8.375   2.811  0.0311 -0.2293 -0.2751
 9020W        W25867  14.388   1.183  14.888 -0.4251 -0.0676  0.1159
 9021W        W25868  11.492   6.829  16.237 -0.0899 -0.3090 -0.1490
 9022W        W25869  13.829   6.401  15.285  0.2252  0.2052  0.1430
 9023W        W25870   3.614   0.241  13.109 -0.0842  0.2240 -0.0479
 9024W        W25871   3.492   2.293   0.792 -0.2957  0.2887  0.1601
 9025W        W25872  13.330   9.176  14.534  0.2247  0.2048  0.0715
 9026W        W25873  15.044   8.312  14.006  0.1094 -0.3650  0.0727
 9027W        W25874  10.595   5.334   1.156  0.1525 -0.1438 -0.1783
 9028W        W25875  12.909  13.241  15.470 -0.1223 -0.0756  0.0424
 9029W        W25876  10.016   9.737   5.081  0.0233  0.0539 -0.1494
 9030W        W25877   5.566  17.397  16.275 -0.2890  0.0719 -0.0131
 9031W        W25878  16.130   1.591  10.802 -0.2934  0.1221  0.4161
 9032W        W25879  13.238  17.496   4.817  0.1595  0.0538  0.0297
 9033W        W25880   2.957  17.936  13.489  0.1812 -0.1627  0.1161
 9034W        W25881  17.420   1.930   2.903 -0.2575  0.0686 -0.0404
 9035W        W25882   8.104  14.545  11.406 -0.1265 -0.0104 -0.1349
 9036W        W25883   0.955   0.905   5.665 -0.0742  0.3691 -0.1065
 9037W        W25884  12.282   7.351  11.645 -0.1877  0.0490  0.3639
 9038W        W25885  14.947   6.821  14.236 -0.0538 -0.2009  0.2016
 9039W        W25886  14.223   3.402  11.685 -0.1500  0.1984  0.2632
 9040W        W25887  13.816  11.250  12.737 -0.3622 -0.0129  0.0339
 9041W        W25888   6.721  14.172  12.487  0.1854 -0.1004 -0.0173
 9042W        W25889   8.071   1.268   4.378 -0.1919 -0.2029  0.0885
 9043W        W25890  10.281   7.266   3.227 -0.1931  0.2301 -0.1062
 9044W        W25891   2.492   3.110  12.209 -0.2543  0.0196  0.3253
 9045W        W25892  10.814   4.259  13.570  0.1583  0.1655  0.2701
 9046W        W25893  10.246   9.214  14.794  0.0337  0.1219  0.1467
 9047W        W25894   6.373  12.351   4.233 -0.1504  0.0873 -0.0071
 9048W        W25895   4.523   2.039   4.203  0.0843 -0.1140 -0.0479
 9049W        W25896  10.504  13.636   1.187 -0.0207 -0.2963 -0.3137
 9050W        W25897  17.979   8.566   5.324 -0.3521  0.0520 -0.3385
 9051W        W25898   9.490   4.517  14.217 -0.1078  0.0061  0.1767
 9052W        W25899   0.320   2.611  13.909 -0.1993  0.0153 -0.0174
 9053W        W25900  11.860  13.867  15.701  0.0873  0.2025 -0.0719
 9054W        W25901   6.694  17.976  12.220  0.1631  0.1421  0.1439
 9055W        W25902  15.111  18.192   0.747 -0.2565  0.0315 -0.0972
 9056W        W25903  12.975  10.698   3.109 -0.0985  0.3386  0.3168
 9057W        W25904  15.677   6.998  12.544 -0.0071  0.1556  0.1988
 9058W        W25905   2.938  10.528  15.983  0.1249  0.0889 -0.2659
 9059W        W25906  11.225   7.981   1.396  0.1478  0.2041  0.4253
 9060W        W25907  11.635   5.286   0.420 -0.0133 -0.0046  0.2208
 9061W        W25908   3.506   6.405   0.287 -0.2740 -0.1487  0.0784
 9062W        W25909   0.551  14.333   2.721 -0.1714 -0.2300  0.0242
 9063W        W25910   1.807  15.645   2.215 -0.0248 -0.0461 -0.1825
 9064W        W25911   8.946   8.531  11.675 -0.1555  0.3496  0.1777
 9065W        W25912  17.468   9.178  12.692 -0.1734 -0.2177  0.0376
 9066W        W25913   4.123   5.572  15.027 -0.1191  0.2609 -0.0875
 9067W        W25914  16.835   4.875  15.168 -0.3233  0.2835 -0.0321
 9068W        W25915  10.459   3.253   2.255 -0.0986 -0.3450 -0.0464
 9069W        W25916   0.369  14.784  13.371 -0.1384 -0.2062  0.0850
 9070W        W25917  13.295   7.003  14.973 -0.2097 -0.0911 -0.0544
 9071W        W25918   8.134   1.203  14.752 -0.2048  0.0656 -0.3059
 9072W        W25919  11.404   2.081   2.663 -0.0490 -0.2169  0.1203
 9073W        W25920   6.390  15.067  13.074  0.0863 -0.2542 -0.0579
 9074W        W25921  10.231   2.020  15.189  0.0626 -0.0345  0.0500
 9075W        W25922  15.630   3.654  13.911  0.0534 -0.0806 -0.1013
 9076W        W25923   3.944   2.391  11.847 -0.0926  0.1667 -0.0406
 9077W        W25924  16.360   9.358  14.796  0.2540 -0.0624 -0.0267
 9078W        W25925  10.434  12.864   1.177 -0.0395  0.0611  0.0618
 9079W        W25926  13.454   7.286   2.383 -0.1085  0.2526 -0.2426
 9080W        W25927  10.445   2.626  12.651  0.1490  0.4081 -0.2562
 9081W        W25928  10.292  17.388  11.794  0.3214 -0.1461 -0.2350
 9082W        W25929   1.167  15.664  12.447 -0.0844  0.2905 -0.0419
 9083W        W25930  18.133  17.660   2.969  0.0871  0.0545  0.1216
 9084W        W25931  11.192  14.991   6.289 -0.0835 -0.1218  0.2503
 9085W        W25932   1.035  12.133   1.704  0.0467 -0.3127  0.3857
 9086W        W25933   3.918  13.165   3.323  0.3417  0.3493 -0.1406
 9087W        W25934   9.749   6.182  16.339  0.0003  0.1945 -0.0738
 9088W        W25935  10.177  10.721   3.923 -0.0068  0.0791  0.2227
 9089W        W25936   6.746  12.873  15.330 -0.0365  0.0286 -0.0803
 9090W        W25937   4.977  16.102   4.046  0.2767  0.1739  0.4031
 9091W        W25938  18.022  14.445   4.305  0.0779 -0.2020 -0.1404
 9092W        W25939  14.378   0.161  13.754 -0.1258 -0.1045  0.1313
 9093W        W25940  16.962  11.008  13.675 -0.1949  0.0004 -0.1404
 9094W        W25941  18.024  16.935   3.427 -0.1583  0.0445  0.2509
 9095W        W25942   0.739   4.039  14.322  0.0736  0.1236  0.0251
 9096W        W25943   3.307   0.962   3.093  0.1199 -0.1329  0.2165
 9097W        W25944  15.217   8.012   2.070  0.3324 -0.0477  0.1367
 9098W        W25945   2.432  18.151   0.805 -0.2053  0.1408 -0.0708
 9099W        W25946  14.316   3.900  11.768 -0.0989  0.2948  0.1188
 9100W        W25947  14.941  14.302   4.259 -0.0950 -0.3817 -0.0968
 9101W        W25948   2.922   5.227   1.839  0.3019  0.1509 -0.1665
 9102W        W25949  10.485   1.028   1.088  0.0911  0.1138 -0.0526
 9103W        W25950  14.699  15.404  13.392 -0.0783 -0.2559 -0.0746
 9104W        W25951  10.211   6.680  13.625  0.0691  0.0643  0.1401
 9105W        W25952   4.257   7.057  10.768  0.1445 -0.0228  0.0683
 9106W        W25953  11.784   3.201  13.862  0.0454 -0.2155 -0.0817
 9107W        W25954  16.325   1.574   4.495  0.3773  0.1987 -0.2333
 9108W        W25955   9.594   1.331  14.562 -0.1007  0.1840 -0.1060
 9109W        W25956   3.770   6.349  11.536  0.1978  0.1542 -0.1040
 9110W        W25957   8.395  17.354   5.710  0.1270  0.0420 -0.3150
 9111W        W25958   3.655   9.972   5.454 -0.1720  0.2395 -0.2650
 9112W        W25959   7.621   4.161   5.105  0.0959  0.2243 -0.0130
 9113W        W25960   9.526   8.360  15.602 -0.0967  0.0603 -0.0189
 9114W        W25961  11.845  10.906   0.846  0.1863  0.0503  0.1046
 9115W        W25962   5.420  16.698   1.450 -0.0553  0.3653 -0.1147
 9116W        W25963  17.744  11.556  14.809 -0.0902 -0.1056 -0.1124
 9117W        W25964  12.537   3.037  13.704  0.2825  0.0436 -0.0624
 9118W        W25965  16.963  14.997   1.208  0.1053  0.0168  0.0439
 9119W        W25966   4.778   8.918  13.311 -0.0841  0.2568  0.0382
 9120W        W25967   0.092   3.189  12.554  0.2400  0.1341  0.0294
 9121W        W25968  13.803   2.678  12.974 -0.0864  0.2017  0.1201
 9122W        W25969  14.557  14.214  12.167  0.1142 -0.0878 -0.1737
 9123W        W25970  10.375   2.486  14.268  0.0423  0.1290  0.2580
 9124W        W25971   8.848   9.139  14.169  0.0132  0.1866  0.4253
 9125W        W25972   9.352  15.252   2.912 -0.2221  0.0441  0.0318
 9126W        W25973  11.184  17.465   2.949 -0.2599 -0.0563 -0.0908
 9127W        W25974  17.162   1.014   0.094 -0.2594 -0.2492  0.2680
 9128W        W25975  15.653   3.738   3.351  0.1474 -0.0985 -0.1678
 9129W        W25976   0.546   8.312  15.667 -0.3037  0.0790 -0.2265
 9130W        W25977  11.250  12.688  15.951  0.1141  0.0363  0.2743
 9131W        W25978  14.581   2.190  11.210 -0.1163  0.1475 -0.0786
 9132W        W25979  15.413   5.493   4.266 -0.2655  0.2474 -0.1463
 9133W        W25980   5.659   5.423  16.009 -0.3008  0.1330  0.1677
 9134W        W25981  13.551  16.351  14.330 -0.0703  0.2605  0.3589
 9135W        W25982   1.974   8.977   3.775 -0.3020  0.0136 -0.1893
 9136W        W25983  11.827   7.155  11.715 -0.0769  0.0776 -0.0140
 9137W        W25984   7.745   4.252   4.506  0.0756  0.0189  0.3034
 9138W        W25985  16.106   3.859  13.058  0.1026 -0.0389 -0.2031
 9139W        W25986   3.550   0.306   3.142  0.1239  0.3436 -0.1958
 9140W        W25987  15.639  17.192  13.591 -0.2356  0.0709 -0.0043
 9141W        W25988   3.551   2.242   1.305 -0.2241  0.1977 -0.4982
 9142W        W25989   2.591  13.945   1.854 -0.2376 -0.1555 -0.0022
 9143W        W25990   6.990   5.732  11.283  0.0662 -0.0801  0.1814
 9144W        W25991  14.431  11.561  14.998  0.1026  0.1338  0.0196
 9145W        W25992  11.601  12.239  11.793 -0.0533  0.0295  0.0339
 9146W        W25993   3.357   1.092  12.063 -0.1758 -0.0770 -0.1437
 9147W        W25994  14.194   1.945   3.680 -0.1074 -0.0184  0.1973
 9148W        W25995  13.941   1.500   3.928 -0.1381  0.2196  0.2441
 9149W        W25996   6.374   3.887   5.610 -0.2481  0.1772 -0.0294
 9150W        W25997  12.332  13.755  15.419 -0.2818 -0.2916 -0.2118
 9151W        W25998  16.936  10.239  14.078 -0.0570 -0.0357 -0.1308
 9152W        W25999   9.787  17.849  15.032  0.0182  0.1588 -0.1456
 9153W        W26000   9.022  11.132   3.051  0.3242  0.0779  0.0806
 9154W        W26001   1.947   6.456   4.167 -0.1031 -0.0295  0.1307
 9155W        W26002   9.960  17.628  16.374 -0.1297 -0.0603 -0.0398
 9156W        W26003  17.874  11.243   1.601  0.0491  0.0576  0.0493
 9157W        W26004  17.170  15.079   0.425 -0.0065 -0.2652  0.1112
 9158W        W26005   0.178   0.280   4.226 -0.1145  0.1282 -0.0919
 9159W        W26006   0.336  10.259   1.822 -0.0973 -0.1759 -0.3146
 9160W        W26007  12.304  13.339   1.534  0.0762 -0.0336 -0.2689
 9161W        W26008   2.329   4.972   2.593 -0.1299 -0.0140 -0.0895
 9162W        W26009  15.467   0.513   0.692  0.2756  0.2607 -0.3299
 9163W        W26010  11.606   9.103   0.942  0.2179  0.0090 -0.0136
 9164W        W26011   6.390  18.129  14.178 -0.0746  0.0728 -0.2118
 9165W        W26012   9.618   6.801   2.057  0.1089  0.0846 -0.3154
 9166W        W26013  17.400   6.072  12.185  0.0005 -0.2014 -0.0734
 9167W        W26014   4.392   7.304   1.056  0.1091  0.2190  0.1175
 9168W        W26015   1.723  13.789   5.627  0.0939  0.1194 -0.0884
 9169W        W26016  13.834   7.864  12.565 -0.1178  0.0072  0.0526
 9170W        W26017  10.895   4.679   4.263 -0.1312 -0.1506 -0.0296
 9171W        W26018   7.208   2.588  15.552 -0.1315 -0.0273 -0.0544
 9172W        W26019   5.317  10.473   3.788  0.0784  0.2136 -0.0223
 9173W        W26020   8.943  13.777  14.644 -0.0528 -0.4494  0.0488
 9174W        W26021  17.372  11.288  15.108  0.2154 -0.1048 -0.0093
 9175W        W26022  16.326   6.017  11.042  0.0489 -0.0007 -0.1947
 9176W        W26023   0.171  17.827   1.392  0.0476  0.1865 -0.3020
 9177W        W26024   7.131   3.112  13.695 -0.2912  0.2544  0.1635
 9178W        W26025  15.632   2.100   4.318 -0.1554 -0.4632 -0.1340
 9179W        W26026  12.202  17.312   3.858  0.0534 -0.0554  0.2729
 9180W        W26027   1.630   4.518   2.755 -0.2234 -0.2707  0.1955
 9181W        W26028   2.292   1.928   4.554  0.2938  0.3331  0.1866
 9182W        W26029   7.316   0.858  14.707 -0.2311  0.0338 -0.0453
 9183W        W26030  14.023  11.114  15.844 -0.3186  0.2751 -0.0079
 9184W        W26031  17.353   7.044  11.191 -0.2393 -0.2453  0.5896
 9185W        W26032   4.967   4.137  11.465 -0.1029  0.1718 -0.1060
 9186W        W26033  10.452   5.950   5.393 -0.0379 -0.1486  0.1788
 9187W        W26034   6.423   0.892  11.405  0.4459  0.2761 -0.0376
 9188W        W26035  12.971   5.917   2.505  0.0027  0.2311  0.1076
 9189W        W26036  16.769  14.912  12.776 -0.0299 -0.1214  0.0942
 9190W        W26037   4.143   4.881  16.101  0.2934 -0.0309  0.0616
 9191W        W26038  17.170   8.037   2.846 -0.1405  0.4211  0.1673
 9192W        W26039   2.877   5.973  16.015 -0.1350  0.0896 -0.0128
 9193W        W26040   9.399   8.471   5.199  0.0429  0.0489  0.2619
 9194W        W26041  13.076   0.376   2.416  0.0517  0.1030 -0.0320
 9195W        W26042  12.383   8.176  14.479  0.2478 -0.3101  0.2500
 9196W        W26043   1.704  18.205   3.388  0.0469  0.1820 -0.0847
 9197W        W26044  14.220  17.581  13.696  0.0836 -0.1733 -0.0136
 9198W        W26045  15.584   6.780  14.035  0.0751  0.4310 -0.0588
 9199W        W26046  16.069   0.268  12.539  0.0208 -0.0360  0.1243
 9200W        W26047  16.614   7.202   4.747  0.0844  0.2039 -0.1779
 9201W        W26048  18.109   3.292   2.895  0.0976 -0.0455 -0.2723
 9202W        W26049  15.505   3.459   2.223  0.1192  0.1810 -0.2365
 9203W        W26050   1.068   5.368   0.301  0.0188 -0.0929  0.2431
 9204W        W26051   3.803   0.366  15.522  0.1389  0.0809 -0.1023
 9205W        W26052   2.928   6.503  11.893  0.2492  0.1609 -0.2256
 9206W        W26053   8.368   8.430   5.576 -0.0207  0.0879 -0.0578
 9207W        W26054   8.081  17.280   3.364  0.2002 -0.1633  0.0480
 9208W        W26055  13.274   9.956   4.636  0.1513  0.1434 -0.3222
 9209W        W26056  17.812  15.657  11.974 -0.3973  0.3036 -0.0189
 9210W        W26057   8.149  17.499  12.989 -0.0475 -0.3120 -0.3632
 9211W        W26058   3.444   3.895   3.406  0.0727  0.1847 -0.0395
 9212W        W26059   8.018   7.749   5.081 -0.0569  0.0700 -0.2487
 9213W        W26060   9.817  17.336   0.750 -0.3453  0.0899  0.2657
 9214W        W26061   1.026   6.949  14.331 -0.4716 -0.1417 -0.1623
 9215W        W26062  10.432  11.167  15.219 -0.2022 -0.1661 -0.0152
 9216W        W26063   8.279  10.094   5.167 -0.0472 -0.1067 -0.2071
 9217W        W26064  15.354   3.820  15.886 -0.3282  0.0498  0.0929
 9218W        W26065   0.143   2.515  12.610 -0.3803  0.1516 -0.4674
 9219W        W26066   7.373  16.435  14.540 -0.2216 -0.2077 -0.0710
 9220W        W26067  11.083  17.170  11.965 -0.3499  0.0475  0.3601
 9221W        W26068  18.335   0.525  11.810  0.1779  0.0858 -0.0613
 9222W        W26069   7.915   8.168   5.384 -0.1805 -0.0334 -0.3028
 9223W        W26070   7.806   5.232  12.376 -0.2180  0.0119  0.0936
 9224W        W26071   5.286   1.306  14.296 -0.1753  0.0125  0.2449
 9225W        W26072   4.364   5.884   2.372 -0.0480  0.0462  0.1224
 9226W        W26073  10.159   3.517  11.785  0.2831 -0.2168  0.1547
 9227W        W26074  16.549  15.216   4.763  0.0970  0.2120  0.1679
 9228W        W26075  17.530   9.680   4.865 -0.2978 -0.1045 -0.0692
 9229W        W26076  17.993   4.830  13.880 -0.0823 -0.0195  0.0829
 9230W        W26077   5.213  17.966   1.338 -0.0466  0.1806 -0.0328
 9231W        W26078   2.740   1.717   4.386  0.2377 -0.0373 -0.3334
 9232W        W26079   3.374   0.042  12.256  0.2437 -0.0154 -0.1144
 9233W        W26080   6.131  11.470   3.334 -0.3029 -0.1815 -0.3390
 9234W        W26081   4.834  15.257  15.036  0.2554 -0.0619  0.1410
 9235W        W26082  13.056  16.201  14.670 -0.0016  0.0740 -0.0402
 9236W        W26083  13.793  11.288  12.191  0.0335  0.2339  0.2472
 9237W        W26084   8.827  16.051  10.492  0.1656 -0.0032 -0.3084
 9238W        W26085   9.636   3.305  16.055  0.3464 -0.2213  0.0383
 9239W        W26086   0.677  10.517   5.616  0.0145  0.0117 -0.0215
 9240W        W26087  15.552   1.014  16.317 -0.0173  0.6313  0.1664
 9241W        W26088   2.443   7.565  11.265 -0.0563 -0.5928  0.1194
 9242W        W26089  10.525  15.540  12.627 -0.1524 -0.1515 -0.2823
 9243W        W26090  15.950  15.052  13.151 -0.0375 -0.2616 -0.2981
 9244W        W26091  14.345   2.511   0.074 -0.0024  0.1189  0.1671
 9245W        W26092  12.396   1.710  10.524  0.4159 -0.0585  0.5806
 9246W        W26093  16.278   3.431  11.424  0.3595  0.1050  0.2008
 9247W        W26094  13.397   2.498  12.572 -0.0601 -0.1751  0.0576
 9248W        W26095  18.017  10.392  12.213 -0.0681 -0.3989 -0.0242
 9249W        W26096   5.486  18.277  15.082 -0.1848  0.0721  0.1051
 9250W        W26097   9.160  14.202   1.750 -0.0986  0.0513  0.1296
 9251W        W26098   2.624   0.284   3.242  0.0243 -0.0901 -0.1110
 9252W        W26099   3.023  10.722  14.230 -0.0599 -0.0861  0.0530
 9253W        W26100  11.390   6.452   2.351 -0.0722  0.2376  0.1891
 9254W        W26101   6.131  14.313  13.012  0.0973  0.0219 -0.2412
 9255W        W26102   7.932  10.412   3.638 -0.1303 -0.2319  0.0747
 9256W        W26103   1.502   1.871  15.290  0.0764 -0.1631  0.0370
 9257W        W26104   6.926   9.404   1.253  0.1809 -0.0450  0.0140
 9258W        W26105  17.391  15.519   6.532 -0.3782  0.1197  0.0986
 9259W        W26106  13.162   7.452  11.920 -0.3450 -0.0902 -0.2208
 9260W        W26107   1.226  11.373  13.733  0.0384 -0.3369  0.0925
 9261W        W26108   4.736  11.683  15.077  0.2461 -0.0058 -0.0007
 9262W        W26109   2.039  13.636  13.293 -0.4775  0.1488  0.1996
 9263W        W26110   6.456   5.742  15.993  0.1759 -0.0608  0.1982
 9264W        W26111   7.515  12.806   3.252 -0.2516 -0.4739 -0.2279
 9265W        W26112   5.891   1.596   6.084 -0.0209 -0.1309 -0.1264
 9266W        W26113  13.312  10.796   2.734 -0.0660  0.0508  0.0969
 9267W        W26114  18.376  17.846   0.222 -0.2230 -0.4183  0.1836
 9268W        W26115   3.059   4.527  14.422 -0.0263 -0.2085  0.1545
 9269W        W26116   1.574   5.555  11.177  0.2700 -0.1882 -0.0543
 9270W        W26117   1.033   3.602   5.647 -0.1283  0.0457  0.2760
 9271W        W26118  15.539   0.675  13.795 -0.2584  0.1254  0.0882
 9272W        W26119   9.299  16.789   1.027  0.1792 -0.0049  0.2070
 9273W        W26120  15.076   8.872  15.506  0.0043  0.2908 -0.0135
 9274W        W26121  10.243   1.289   2.736  0.1295  0.0892 -0.0276
 9275W        W26122   3.381   0.769  11.255 -0.1732 -0.3175 -0.0659
 9276W        W26123   5.379  17.902  13.385  0.0544  0.1816 -0.1103
 9277W        W26124  14.900  10.860  16.211 -0.1052 -0.1874 -0.2912
 9278W        W26125  14.306  12.636  14.305  0.2066 -0.0030 -0.0753
 9279W        W26126   5.601  11.426  12.704  0.2559 -0.2734  0.3888
 9280W        W26127   5.064  15.128  14.519  0.3759  0.0986 -0.0832
 9281W        W26128   4.356   0.760   3.244 -0.0116  0.1375  0.0987
 9282W        W26129   1.846   5.906   4.415  0.0520  0.1568 -0.0578
 9283W        W26130  15.031  17.319  11.801  0.0344 -0.0766  0.0809
 9284W        W26131  13.728   2.056  14.164 -0.0333  0.4379 -0.0788
 9285W        W26132   6.754   2.394   1.037 -0.1278  0.1359 -0.0156
 9286W        W26133   9.342   7.936   5.154 -0.2132  0.0068 -0.1454
 9287W        W26134   8.592   2.342  14.336 -0.1795 -0.2640  0.1527
 9288W        W26135   8.650   7.321  12.810  0.1868  0.0344 -0.2031
 9289W        W26136   7.120   9.212  11.864  0.1317 -0.1373  0.1903
 9290W        W26137  12.664  14.311   4.215  0.1191 -0.1036  0.0218
 9291W        W26138  14.161  12.255  14.680  0.1717 -0.0094 -0.3785
 9292W        W26139   7.385   1.830   4.481 -0.0803 -0.0780  0.0520
 9293W        W26140   8.516  12.695  16.049  0.1343  0.2526  0.0078
 9294W        W26141   6.382  12.312  14.714  0.1669 -0.1418 -0.0280
 9295W        W26142  12.532   0.267  13.000 -0.0001 -0.1794 -0.1629
 9296W        W26143   9.791   6.150   2.911  0.0619 -0.1291 -0.1338
 9297W        W26144  12.874   5.110  15.700  0.1282 -0.1860 -0.1499
 9298W        W26145   2.636   3.327   1.369  0.1879  0.2753  0.1555
 9299W        W26146   7.416  10.598  14.393  0.1051  0.0940  0.1012
 9300W        W26147  16.929   6.222   4.419 -0.1868 -0.0235 -0.0401
 9301W        W26148   3.058   6.310  13.536 -0.0636 -0.1073  0.2900
 9302W        W26149   1.531  15.413   5.887  0.0656 -0.2423 -0.1692
 9303W        W26150  14.096  16.710  13.554 -0.0992 -0.1771 -0.0020
 9304W        W26151   9.264  17.726   0.470  0.0259  0.2469 -0.3397
 9305W        W26152   6.540  13.505   0.270 -0.0921  0.1381 -0.2839
 9306W        W26153   8.378   5.473  14.535  0.2974 -0.0233  0.1976
 9307W        W26154  17.785   1.585   2.865  0.1058  0.0412  0.3875
 9308W        W26155   8.855  16.264   0.470  0.0616 -0.3403  0.0512
 9309W        W26156   4.291  10.436   4.581 -0.1783 -0.2191  0.0700
 9310W        W26157   9.595   4.523  11.878  0.2011 -0.2451 -0.3706
 9311W        W26158  13.113  15.768   2.132  0.0333 -0.0583  0.0834
 9312W        W26159   9.257  13.675   0.872 -0.1381 -0.0468 -0.0669
 9313W        W26160  13.013   1.765  14.587  0.1558 -0.2439 -0.1084
 9314W        W26161   6.539   6.869   5.140 -0.0591 -0.1583  0.1589
 9315W        W26162   2.737   9.887  13.212  0.0632 -0.0161  0.1226
 9316W        W26163   2.779   3.042  13.013  0.1987  0.2233  0.1055
 9317W        W26164   3.657  11.758  16.330 -0.2774 -0.2121 -0.5609
 9318W        W26165  14.018  10.866  12.411  0.1041 -0.1245 -0.1361
 9319W        W26166   2.726   3.367   0.612 -0.0214  0.0854  0.2953
 9320W        W26167  15.797   5.558  14.638 -0.2224 -0.0345  0.0627
 9321W        W26168   7.803   2.126   0.725 -0.0750  0.1457 -0.0271
 9322W        W26169  12.281   9.831   5.179 -0.1163 -0.0537  0.2517
 9323W        W26170   8.611  14.441  11.500  0.0079 -0.0190  0.1676
 9324W        W26171   9.046  12.740  10.930  0.2015  0.2825 -0.2146
 9325W        W26172   2.189  10.229   2.343  0.0438  0.1468 -0.0360
 9326W        W26173  17.474  16.130  15.684  0.0986 -0.4851 -0.0719
 9327W        W26174   3.138   7.065   0.867  0.0747  0.2832  0.3400
 9328W        W26175  15.273   8.438  13.505  0.1146  0.0190  0.2804
 9329W        W26176   5.214   3.623   3.295  0.3292 -0.0257  0.1570
 9330W        W26177  12.850   6.841   5.774 -0.3351  0.1507  0.0791
 9331W        W26178  15.903  13.620  14.839  0.1684  0.4492  0.2704
 9332W        W26179   4.326   5.834   2.997  0.1379 -0.1886  0.2308
 9333W        W26180   6.569  18.136   1.648 -0.2800 -0.1544  0.0070
 9334W        W26181  13.291   7.522   3.084 -0.1398  0.1562 -0.0891
 9335W        W26182  14.730   8.441   4.194  0.2508  0.0427  0.1262
 9336W        W26183  13.216   9.834  16.246  0.1885 -0.0344  0.1659
 9337W        W26184   7.201  15.058  14.346 -0.1730  0.0655  0.2881
 9338W        W26185   8.578  12.101   1.433  0.4215 -0.3878  0.0881
 9339W        W26186  14.471  16.704  15.122  0.3622  0.0111  0.2893
 9340W        W26187   2.950  15.357  11.810  0.0973  0.0814 -0.1256
 9341W        W26188  13.188  12.999  16.262 -0.0168  0.0974  0.2522
 9342W        W26189  13.364  11.922   2.887 -0.5256 -0.0835  0.0331
 9343W        W26190   9.683  15.595   1.700  0.2651 -0.0687 -0.1407
 9344W        W26191  11.948  16.873   3.991 -0.0550 -0.0467  0.1225
 9345W        W26192   3.326  10.904  16.184 -0.0080  0.4117  0.0462
 9346W        W26193  11.236   8.072  12.824 -0.0281  0.1343  0.0791
 9347W        W26194   3.277  17.059  13.862 -0.1508  0.2029 -0.0258
 9348W        W26195  12.866  17.685   1.568 -0.0051  0.0143 -0.2655
 9349W        W26196  10.549   3.789   3.207  0.1470  0.0050 -0.1597
 9350W        W26197  16.391   6.088  14.890 -0.3267  0.0846  0.1518
 9351W        W26198  16.524  14.713  12.387  0.1184  0.1801  0.0761
 9352W        W26199  11.637   7.214   4.945  0.0803 -0.1247 -0.1718
 9353W        W26200   7.142   3.823   2.797  0.1130  0.0599 -0.4987
 9354W        W26201   0.864   3.496  11.963 -0.0496 -0.0876 -0.1760
 9355W        W26202  16.713  18.250   0.735 -0.2027  0.1146 -0.1752
 9356W        W26203  12.540  15.516  12.371 -0.0636  0.0934 -0.0838
 9357W        W26204  11.805   2.764  14.359  0.0670  0.0031 -0.1187
 9358W        W26205   4.075  17.960   1.452  0.0046  0.0706 -0.1567
 9359W        W26206  15.429   7.771  12.544  0.1101 -0.0323 -0.0184
 9360W        W26207   1.325   1.652   2.346  0.0688 -0.1493 -0.2548
 9361W        W26208   2.796   6.287   0.654  0.2709 -0.2205 -0.3934
 9362W        W26209  10.234  17.876   0.787  0.0218 -0.4045  0.0832
 9363W        W26210   0.375   6.514   5.443  0.4193  0.3098 -0.1638
 9364W        W26211  10.738   8.518  16.050  0.0365  0.0903 -0.1742
 9365W        W26212  16.168   7.868   5.218  0.0149  0.0927  0.1407
 9366W        W26213  14.832  14.691  14.304 -0.2228  0.0270 -0.2928
 9367W        W26214   9.068  11.395  13.046  0.2128  0.0675 -0.0261
 9368W        W26215   6.935   2.397  14.147  0.1522 -0.1319 -0.3389
 9369W        W26216  13.565  11.536   4.147 -0.2875  0.1776  0.0029
 9370W        W26217  10.134   5.603   6.095 -0.2240  0.1758  0.0777
 9371W        W26218  12.386  10.688   0.772  0.0385 -0.3609 -0.1217
 9372W        W26219   3.906  15.508  13.285  0.1575  0.7618  0.1207
 9373W        W26220  14.834   9.635  14.913 -0.1113  0.2700 -0.0473
 9374W        W26221   3.905  13.467   2.125 -0.2047  0.1607 -0.0038
 9375W        W26222  15.081   3.285   0.050 -0.2177  0.0765 -0.2835
 9376W        W26223   9.189  13.163   1.517  0.0565  0.0743  0.0878
 9377W        W26224  16.261  14.455   4.485  0.2009  0.0705  0.5792
 9378W        W26225  16.691  10.693  13.973 -0.1139  0.3033  0.2243
 9379W        W26226   0.072  11.928   1.476  0.1603 -0.2164  0.0829
 9380W        W26227  11.276   6.055   1.088  0.0785  0.1336 -0.2269
 9381W        W26228   0.353   1.807   2.550  0.1990 -0.1961 -0.2580
 9382W        W26229  13.937   3.072  15.851 -0.0734  0.1561 -0.1428
 9383W        W26230   1.035  17.999  14.964 -0.2321 -0.1961  0.2482
 9384W        W26231  11.012   7.761  14.552 -0.0886  0.5579 -0.1773
 9385W        W26232  14.514  15.690   4.686 -0.0073 -0.2693  0.1353
 9386W        W26233  12.875   8.195  15.524  0.2392 -0.1183 -0.0579
 9387W        W26234  11.941  17.202  11.857  0.1492 -0.2081  0.1832
 9388W        W26235  16.667  13.853   3.906 -0.0516 -0.2434 -0.2226
 9389W        W26236  13.396   7.173   1.074  0.0603 -0.0876  0.1461
 9390W        W26237  11.856  15.519  15.033  0.3057 -0.0226  0.2381
 9391W        W26238   2.341   5.588  12.331 -0.0870 -0.1555  0.0444
 9392W        W26239  13.096   8.574  15.196  0.1053  0.2261 -0.0828
 9393W        W26240   6.313   0.452  16.284 -0.3860 -0.0734  0.2514
 9394W        W26241   5.562   4.116   3.935 -0.2109 -0.0143 -0.0367
 9395W        W26242  12.455   9.339   3.623 -0.3349 -0.0748  0.1014
 9396W        W26243  11.361  14.093  12.135  0.0492 -0.0346 -0.1752
 9397W        W26244  11.398   5.041   3.359  0.0734 -0.2400  0.0067
 9398W        W26245  17.307   7.451   1.522  0.6262 -0.0286  0.1495
 9399W        W26246   7.973   2.637  12.061 -0.0046  0.1282  0.1341
 9400W        W26247  12.247   3.486  13.243 -0.1764  0.0710 -0.0207
 9401W        W26248  17.435  12.369  13.476  0.1040 -0.1684  0.2726
 9402W        W26249  14.974   8.304  15.071 -0.0070  0.1888  0.0120
 9403W        W26250   2.112  14.128  13.389  0.1868  0.1367 -0.0366
 9404W        W26251   0.045   8.831   5.603 -0.0095 -0.1227 -0.0829
 9405W        W26252   3.935   0.837  12.051  0.3899  0.1035  0.0046
 9406W        W26253  12.333  14.383   5.409  0.0208 -0.0551  0.0074
 9407W        W26254  10.389  16.624   6.101 -0.1844  0.1091 -0.3083
 9408W        W26255  14.549  14.713   1.644  0.0562 -0.0038  0.2531
 9409W        W26256  13.300  11.036   1.568  0.0337 -0.1072 -0.2628
 9410W        W26257   7.362   1.946  13.126  0.2917  0.0837  0.1572
 9411W        W26258   8.218  11.143   2.505 -0.1988  0.1887  0.1515
 9412W        W26259   2.576   5.605  12.854  0.0059  0.0132 -0.0038
 9413W        W26260   5.001   1.546  13.289  0.3619 -0.1477 -0.0405
 9414W        W26261  13.943   1.395  15.002  0.0705  0.1194 -0.0199
 9415W        W26262   9.437   3.805  11.910 -0.2189  0.2314 -0.2058
 9416W        W26263   6.555  14.520   5.501  0.2582  0.2986 -0.1422
 9417W        W26264  15.037   3.662   2.381  0.0460  0.2074  0.1428
 9418W        W26265   6.700   9.283  11.561  0.1065 -0.0026  0.0359
 9419W        W26266  14.268  14.224   2.243  0.2668 -0.0010 -0.0230
 9420W        W26267  17.823  12.541  13.674 -0.2615  0.0581  0.1736
 9421W        W26268  15.515  11.522  13.917  0.2225 -0.1933 -0.1491
 9422W        W26269   4.964   4.263  14.855  0.3723 -0.0198  0.3262
 9423W        W26270   3.225   4.698  14.919 -0.1275 -0.3687 -0.2329
 9424W        W26271   1.053   5.628  15.889 -0.0252 -0.0272 -0.0007
 9425W        W26272   7.775  17.968   4.089  0.1691 -0.0357  0.1814
 9426W        W26273   2.169   6.896  12.955  0.1378 -0.2325  0.2716
 9427W        W26274   1.354   3.689   1.742  0.0497 -0.0808  0.0237
 9428W        W26275   4.807  16.338   0.122  0.1623 -0.1198 -0.0344
 9429W        W26276  15.042  15.903  16.300 -0.2771 -0.5269 -0.2368
 9430W        W26277  18.250   2.508   4.917  0.3842 -0.1560 -0.2925
 9431W        W26278   9.741  12.858  13.540  0.1164 -0.2414 -0.0420
 9432W        W26279  10.183  11.737   0.221  0.0394  0.2553 -0.0512
 9433W        W26280  16.190  15.617   0.281 -0.1044 -0.0408 -0.0827
 9434W        W26281  14.303  13.821   2.617  0.4593  0.2201 -0.1163
 9435W        W26282   7.958  13.846   3.823 -0.0867 -0.0833  0.1808
 9436W        W26283   7.352   8.073  12.445  0.0152  0.2253  0.1593
 9437W        W26284  14.512  11.615  13.415  0.1779 -0.0182 -0.0427
 9438W        W26285  17.609  14.446  11.854 -0.1721 -0.0653  0.1631
 9439W        W26286   2.460  17.113  15.611  0.1879  0.1419 -0.1725
 9440W        W26287   7.225   2.512  14.524  0.0799 -0.0625  0.1264
 9441W        W26288   8.615  13.282  14.392 -0.0352 -0.0395  0.0113
 9442W        W26289  18.042  16.353   5.239 -0.0973  0.3194  0.3444
 9443W        W26290  15.569   6.835   5.075 -0.0129  0.1323 -0.1611
 9444W        W26291   9.694  11.775  15.654  0.1793 -0.1145 -0.4146
 9445W        W26292  16.001   0.582   5.359 -0.2447  0.1196  0.3229
 9446W        W26293  12.128   5.624  12.580  0.1623 -0.3577  0.0513
 9447W        W26294   2.511  15.560  12.236 -0.0061  0.4525 -0.1564
 9448W        W26295   5.186  10.351   6.205  0.1584 -0.2849  0.0004
 9449W        W26296  17.503   8.508   0.527 -0.3693  0.2053  0.2074
 9450W        W26297   9.556   4.338   3.026  0.1149  0.0197  0.0207
 9451W        W26298   0.833  12.599  12.164  0.0289 -0.1565  0.2776
 9452W        W26299   6.605   4.650  15.226 -0.0926 -0.1826  0.3805
 9453W        W26300  17.176  12.348   4.556 -0.1956  0.0323  0.1734
 9454W        W26301  17.738   5.251  15.576  0.2194 -0.0849  0.2661
 9455W        W26302  10.461   1.596   1.924  0.0522 -0.1865 -0.0489
 9456W        W26303   4.010  15.006   5.603  0.1216  0.4220 -0.0121
 9457W        W26304  12.960   2.928  13.958  0.1328  0.2252 -0.0692
 9458W        W26305   3.326   6.794   4.947  0.0944  0.0489  0.2697
 9459W        W26306  12.454  16.385   1.471  0.0916  0.3285  0.3315
 9460W        W26307  15.366  17.858  14.466 -0.0098  0.0631  0.1224
 9461W        W26308  15.680  13.352   5.061  0.0443 -0.0900 -0.3293
 9462W        W26309  16.779   2.725   4.225 -0.0552  0.5735  0.0526
 9463W        W26310  17.001  15.518   1.999  0.0478  0.0726  0.1270
 9464W        W26311  13.034  17.013  12.103  0.0515 -0.1027 -0.0110
 9465W        W26312   7.336   1.614  13.483 -0.3758  0.0643 -0.0036
 9466W        W26313  14.923   2.508   4.562 -0.1896 -0.0870  0.1918
 9467W        W26314   9.868  15.086   3.804 -0.1225  0.0981 -0.1230
 9468W        W26315   1.814  15.707   1.696 -0.0002 -0.0727  0.3137
 9469W        W26316   3.322   4.090   4.471 -0.2401  0.0635 -0.2070
 9470W        W26317  14.011   1.418   1.552  0.3818  0.2282 -0.0433
 9471W        W26318   3.777  15.531   3.953 -0.0356 -0.1117 -0.1765
 9472W        W26319   7.171  14.023   4.571  0.1749  0.3506 -0.2082
 9473W        W26320  14.760  15.269   2.821  0.3960  0.0029 -0.0649
 9474W        W26321   3.908   3.293  15.176 -0.2866 -0.0013  0.2347
 9475W        W26322  10.322   1.868   3.348 -0.1905 -0.0457  0.1436
 9476W        W26323  13.022   9.945   4.020  0.1588 -0.0509  0.0251
 9477W        W26324  16.580  10.049  11.299 -0.1030 -0.0724 -0.2948
 9478W        W26325  16.505   6.252   1.925  0.1376 -0.1936  0.1070
 9479W        W26326   8.804  14.451   4.714 -0.0771  0.2785 -0.0294
 9480W        W26327  14.488   6.062   3.374  0.2428  0.2254 -0.3026
 9481W        W26328   9.895   7.437   4.358 -0.0229 -0.1531 -0.1219
 9482W        W26329  12.261   5.576  14.018 -0.0129 -0.0321  0.0419
 9483W        W26330  17.720  14.982  13.875  0.0923 -0.0265  0.1193
 9484W        W26331  15.811   2.633  15.401 -0.1093  0.3155  0.1426
 9485W        W26332  10.066   6.343  14.191  0.0100 -0.2213 -0.2116
 9486W        W26333   8.373  12.108   5.177  0.2530 -0.0743  0.0022
 9487W        W26334   7.470   0.991   5.334 -0.0498 -0.1483 -0.0621
 9488W        W26335   7.933  11.334   5.748  0.0454  0.0889  0.0001
 9489W        W26336   9.937   3.477   4.903 -0.4565  0.1229 -0.0162
 9490W        W26337   1.997  10.703   2.638 -0.0762  0.1047 -0.0654
 9491W        W26338  12.614  11.583   4.086  0.1230 -0.1776 -0.0763
 9492W        W26339  14.942  12.804  15.794  0.1414 -0.2581  0.0154
 9493W        W26340   0.753   0.528   1.892  0.2018 -0.0020  0.2839
 9494W        W26341  16.922  17.701  14.330  0.1527 -0.2311  0.2186
 9495W        W26342  18.402   3.301   3.761  0.0714  0.5096 -0.1963
 9496W        W26343   1.654  10.658  13.531 -0.0791  0.3301 -0.0123
 9497W        W26344  10.303  16.507   4.173 -0.0746  0.1227  0.0546
 9498W        W26345  12.841  10.231   1.375  0.1069  0.1400  0.5800
 9499W        W26346  12.774   2.973   4.410 -0.0566  0.3742 -0.1331
 9500W        W26347   6.633  17.825  13.210 -0.3452 -0.1666  0.0813
 9501W        W26348  18.027   3.445   4.189 -0.1121 -0.0973 -0.0277
 9502W        W26349   6.842  13.304  14.731  0.1453  0.0014 -0.1402
 9503W        W26350   9.084  12.387   2.289 -0.1654  0.1708  0.1620
 9504W        W26351  14.707  14.181   2.494 -0.1486 -0.2365 -0.1311
 9505W        W26352   5.065   3.635  12.391  0.0516  0.1756  0.3267
 9506W        W26353  10.282  18.290  15.891 -0.1142 -0.3542  0.0645
 9507W        W26354   3.635   4.009  14.698  0.2314  0.1206  0.1041
 9508W        W26355  13.107  16.883   4.747  0.2329  0.1940 -0.2343
 9509W        W26356  10.906  14.335  14.374  0.1102  0.0881  0.2228
 9510W        W26357   4.959   6.800   4.378 -0.1135  0.0936 -0.1546
 9511W        W26358   7.818  15.102   3.224 -0.1799  0.1626  0.3132
 9512W        W26359   2.958  12.652  16.202  0.0913  0.0254  0.0398
 9513W        W26360   6.677   2.726   3.741 -0.1228 -0.2026 -0.1084
 9514W        W26361   9.213  12.878   4.118 -0.0377 -0.0337 -0.2258
 9515W        W26362   9.469  10.640   1.153  0.1398  0.0229 -0.3476
 9516W        W26363  14.804   0.851  12.620  0.1242 -0.0679 -0.0305
 9517W        W26364   0.408  10.679  12.675 -0.1381  0.0478 -0.1576
 9518W        W26365  12.190  12.967  15.828 -0.0569 -0.0142 -0.2621
 9519W        W26366  15.776   1.705   0.638  0.0878  0.1258 -0.0911
 9520W        W26367  17.596  14.913   1.889 -0.0267  0.7006 -0.0225
 9521W        W26368   7.365  10.065   6.304  0.1388 -0.1293  0.2795
 9522W        W26369  10.449   8.698   5.893  0.2171 -0.3368  0.2959
 9523W        W26370   0.644   2.595   2.901  0.1984 -0.0774  0.1396
 9524W        W26371  13.007   0.777   4.840  0.0446 -0.0563  0.0248
 9525W        W26372  14.894  15.019  16.036  0.1889  0.0714 -0.2132
 9526W        W26373   4.825  16.078   3.577 -0.4074  0.2199  0.0441
 9527W        W26374   1.457  16.778   3.600  0.3393 -0.0876 -0.1653
 9528W        W26375  10.268  13.372  14.807  0.0521 -0.0835 -0.0621
 9529W        W26376  10.948   6.219   0.333  0.0380 -0.4168  0.0898
 9530W        W26377   2.526   0.468   1.104  0.1957  0.3140 -0.0895
 9531W        W26378  16.921  14.096  15.216  0.0598  0.2935 -0.3701
 9532W        W26379   9.511  17.693  15.829  0.2533  0.1373 -0.1942
 9533W        W26380   6.515   3.247   3.977  0.0590 -0.1830 -0.2589
 9534W        W26381  11.533   5.363   2.524 -0.0585  0.2741  0.2321
 9535W        W26382   4.697  16.985  13.008  0.1362  0.1346  0.2269
 9536W        W26383  14.404  15.061  12.453  0.0073  0.0597 -0.0553
 9537W        W26384   7.006   9.880   1.365  0.1281  0.4516 -0.0288
 9538W        W26385   9.239  10.001  12.527 -0.0769 -0.0911  0.0774
 9539W        W26386   8.468  13.857  12.389  0.0799  0.0326  0.0102
 9540W        W26387  13.218   9.207   3.453 -0.0547 -0.0327  0.1138
 9541W        W26388   2.465  13.864  16.047 -0.0813  0.4348  0.2662
 9542W        W26389  13.680   5.594  13.839 -0.0324 -0.1105 -0.0718
 9543W        W26390  10.683   1.545  13.073  0.0629  0.0337  0.0315
 9544W        W26391  10.096  13.640  14.365  0.0193 -0.1000  0.1372
 9545W        W26392  12.069   0.019   0.149  0.1095 -0.2177 -0.2556
 9546W        W26393   2.150  17.294  15.961 -0.0178 -0.1987  0.1279
 9547W        W26394   4.222  14.017  14.279  0.2977 -0.0963  0.0765
 9548W        W26395   6.110   2.682   0.484 -0.2444 -0.4917 -0.3060
 9549W        W26396  15.442   0.686  14.410 -0.1545 -0.3185 -0.0672
 9550W        W26397   1.338   0.697  11.899  0.1253 -0.0955 -0.1529
 9551W        W26398   3.972   3.603   2.755  0.1497 -0.1644 -0.0016
 9552W        W26399  17.179   5.704   2.516  0.2374 -0.1049 -0.1068
 9553W        W26400   7.422  17.581  15.542  0.0809  0.0957 -0.1776
 9554W        W26401   9.325  16.631  16.155  0.0134  0.3115  0.1181
 9555W        W26402   2.818   6.726   2.555  0.0770 -0.1174  0.2442
 9556W        W26403   9.390  16.848   5.056 -0.1397 -0.0998 -0.2882
 9557W        W26404   2.899  14.998  14.394 -0.2313 -0.0123  0.2703
 9558W        W26405  15.525   8.368  11.901 -0.0619  0.1020  0.0346
 9559W        W26406   5.483   4.104   0.883 -0.2697  0.1353  0.1789
 9560W        W26407   1.267   6.951   1.100  0.1302 -0.0719 -0.0846
 9561W        W26408  13.723  10.313   2.132  0.0612 -0.1612  0.3328
 9562W        W26409  14.500  16.533   2.443 -0.3065 -0.5148 -0.0292
 9563W        W26410   7.890  11.440   0.969 -0.1414  0.0132  0.1192
 9564W        W26411   3.903  15.351  14.734 -0.2365 -0.2366 -0.2983
 9565W        W26412   1.490  10.104   1.613 -0.2316  0.1802 -0.1061
 9566W        W26413   6.891   0.006   3.248 -0.0975 -0.1846 -0.0956
 9567W        W26414   8.996   1.154  15.714  0.0832  0.1595  0.2003
 9568W        W26415   6.197   8.268  13.107 -0.1922  0.2994  0.3178
 9569W        W26416   0.738   7.718  15.249 -0.0861 -0.0345  0.0166
 9570W        W26417  14.845  13.813   1.366  0.0663 -0.0365  0.1875
 9571W        W26418  11.716   4.646   0.470  0.2058  0.0439 -0.4030
 9572W        W26419  17.397  17.476   1.193  0.0058  0.2283  0.1874
 9573W        W26420  16.137  16.292  15.887  0.1121 -0.0768 -0.0132
 9574W        W26421   4.302  17.099   0.111  0.1546 -0.2892 -0.4609
 9575W        W26422  18.267   2.836  12.839 -0.3298  0.0971  0.1708
 9576W        W26423   8.517   5.000   2.596 -0.0155  0.2861 -0.1107
 9577W        W26424  12.747   9.732   3.467 -0.1717 -0.2043  0.0581
 9578W        W26425  11.197   6.989  12.405 -0.1500  0.4135  0.0549
 9579W        W26426   6.797   8.447  11.476  0.1731 -0.2538 -0.2969
 9580W        W26427   5.972   4.128   1.021 -0.2188 -0.0313 -0.1954
 9581W        W26428  16.466   6.978  14.388 -0.0668  0.0645  0.1609
 9582W        W26429   8.274   1.864   4.728 -0.0703 -0.1321  0.0088
 9583W        W26430   6.528  14.695  12.786 -0.1439  0.0647 -0.3148
 9584W        W26431  17.306   9.111  13.171 -0.0900  0.0495  0.0625
 9585W        W26432   4.073   5.032  13.927 -0.0614  0.1568  0.3048
 9586W        W26433   5.862  12.483   6.396 -0.1474 -0.0045  0.0621
 9587W        W26434  15.652  12.684   5.047 -0.2249  0.0732  0.1257
 9588W        W26435  15.030  13.949   2.185  0.0655 -0.1017 -0.2208
 9589W        W26436   7.465  14.807   5.090  0.1207 -0.3738  0.0300
 9590W        W26437   7.657  17.610  14.488 -0.0031  0.0076  0.1760
 9591W        W26438   0.950  16.746   4.404  0.1679  0.2455  0.1631
 9592W        W26439   3.495  13.248   0.440 -0.0468 -0.0131  0.2469
 9593W        W26440   0.910   6.825   0.661 -0.3087 -0.0361 -0.2530
 9594W        W26441  12.192  17.476  16.044  0.0684  0.0316 -0.0002
 9595W        W26442   1.037   5.815   2.142 -0.0610 -0.0668  0.1023
 9596W        W26443   0.206   8.613  12.518  0.0698 -0.3042 -0.2069
 9597W        W26444  10.384   4.782   3.309 -0.2260  0.1275  0.0053
 9598W        W26445  15.807   6.419   5.745 -0.1324  0.2644 -0.1431
 9599W        W26446   0.319  11.208  13.613 -0.0809  0.0198 -0.0406
 9600W        W26447   9.678  17.516  11.616  0.0579  0.0169 -0.1942
 9601W        W26448   1.375   0.192  14.246  0.2492  0.0740  0.0239
 9602W        W26449   6.262   6.560  12.423 -0.4069 -0.1141  0.0018
 9603W        W26450  10.701  16.231  13.983  0.0889  0.0522  0.2022
 9604W        W26451   7.581   0.608   3.179 -0.0939 -0.0626 -0.0471
 9605W        W26452  13.791   0.030  15.311 -0.2416 -0.0976 -0.0528
 9606W        W26453   0.051   2.149   2.716  0.3797  0.0398 -0.2909
 9607W        W26454   0.916  13.532  12.688 -0.1600 -0.1307  0.3178
 9608W        W26455  13.004   3.597   5.274  0.3040 -0.0865  0.2834
 9609W        W26456   6.789   6.561   3.924  0.1634  0.0749  0.0848
 9610W        W26457   9.064  13.179  15.901 -0.0479 -0.3320  0.0588
 9611W        W26458   5.645  10.892   5.014 -0.0415  0.2115 -0.0802
 9612W        W26459   6.645   9.689   1.734  0.2861  0.3165 -0.1925
 9613W        W26460   3.461  12.211  14.186  0.1472 -0.2344  0.1388
 9614W        W26461   1.004   4.170   0.582 -0.2408 -0.1576  0.2057
 9615W        W26462   3.413   8.837   4.511 -0.0255 -0.1632 -0.0766
 9616W        W26463   6.086  14.521   4.932  0.3306 -0.0027  0.1973
 9617W        W26464  17.307  16.647  15.863  0.3867 -0.1116  0.1407
 9618W        W26465   0.274   5.870  14.758 -0.4878  0.1969 -0.0999
 9619W        W26466  15.191   3.008  13.242 -0.2451  0.1288 -0.1193
 9620W        W26467   6.360  10.737   2.468  0.2032 -0.1332 -0.0170
 9621W        W26468  11.406   6.790   0.439 -0.0078 -0.0615  0.1312
 9622W        W26469  15.302   7.970   4.716  0.0171  0.1477 -0.0152
 9623W        W26470   3.630   8.355  12.096 -0.2566  0.0933  0.3572
 9624W        W26471  17.593   5.419  10.659 -0.0944  0.2313  0.1178
 9625W        W26472  15.818   3.444  13.014 -0.0480 -0.0942  0.0034
 9626W        W26473   6.926   5.320   4.092  0.0586  0.0620  0.0694
 9627W        W26474   3.873  13.959  15.959  0.1099  0.0215 -0.3922
 9628W        W26475  15.929  14.784   0.846  0.0845  0.1050  0.1187
 9629W        W26476   9.457   5.935  12.581 -0.0360  0.2213 -0.2900
 9630W        W26477  10.756   0.848  16.062  0.0350 -0.1365  0.1349
 9631W        W26478   1.532   1.413   0.223  0.1818 -0.0172  0.1907
 9632W        W26479   7.934   2.447  13.972  0.0672  0.1227  0.1016
 9633W        W26480  14.166   9.783   0.824 -0.1980 -0.1551 -0.0498
 9634W        W26481   3.104   6.486   1.240 -0.0473 -0.1904  0.4233
 9635W        W26482  12.896  13.946   2.643  0.0601  0.0686 -0.2673
 9636W        W26483  16.722  15.659   2.494 -0.1323 -0.0698 -0.0436
 9637W        W26484  14.030  12.525  11.910 -0.0509  0.3032 -0.2874
 9638W        W26485   5.061   8.784  14.345 -0.1773  0.3386  0.4986
 9639W        W26486  16.302  10.979   1.591 -0.0456  0.0542 -0.0691
 9640W        W26487   9.303  13.812   3.902  0.3528 -0.3683  0.1194
 9641W        W26488  14.239   8.406  13.237 -0.2723  0.3571  0.0579
 9642W        W26489  15.902  13.860   1.278  0.1070  0.2584 -0.1125
 9643W        W26490   4.524   5.769   1.276  0.0422 -0.0761 -0.0393
 9644W        W26491   7.410  12.724  13.574 -0.2498  0.0636  0.3882
 9645W        W26492   4.445  16.366  13.791  0.3281  0.2160  0.0806
 9646W        W26493   3.030   9.610   3.201  0.1866 -0.2043 -0.0015
 9647W        W26494  14.911   0.192   0.248 -0.1299  0.0560 -0.1923
 9648W        W26495  10.555   0.369  13.799 -0.0607 -0.2123  0.2587
 9649W        W26496   9.578  12.361   1.447  0.0084  0.3186 -0.1640
 9650W        W26497   5.422  12.458   2.306  0.1691  0.3968 -0.5514
 9651W        W26498  15.027  14.058   5.773 -0.0025  0.4567 -0.0405
 9652W        W26499   0.185  14.323   5.558  0.3480  0.3959 -0.0538
 9653W        W26500   3.000  11.124  12.638  0.0220  0.0879  0.0296
 9654W        W26501  12.928  12.646  13.384  0.3312 -0.0840 -0.1713
 9655W        W26502  18.155   0.030   4.541  0.0791  0.1937 -0.1200
 9656W        W26503   6.161  12.322  12.906 -0.2120  0.0739 -0.1467
 9657W        W26504   2.367   9.525   1.478 -0.0735 -0.1364 -0.0178
 9658W        W26505  12.641  11.535   2.087 -0.1452 -0.1991 -0.4602
 9659W        W26506   7.229  15.700  15.663 -0.0421  0.2611  0.3334
 9660W        W26507   0.125   5.543   3.068  0.0875 -0.0544 -0.0879
 9661W        W26508   9.736  13.738   0.282 -0.0160 -0.1675 -0.1147
 9662W        W26509   9.542   3.127   1.048 -0.1502  0.1332 -0.0261
 9663W        W26510   9.253   9.690   3.347  0.2914  0.1125 -0.0077
 9664W        W26511   8.316   9.527   1.701 -0.0645  0.1408  0.0076
 9665W        W26512  12.800  13.146   5.097  0.2391 -0.1288  0.0086
 9666W        W26513  17.340  17.870  11.993 -0.1908  0.0257  0.0065
 9667W        W26514   3.809  14.047  11.411  0.0177 -0.3241  0.0054
 9668W        W26515   9.533   7.712  12.473 -0.2213 -0.2336 -0.1280
 9669W        W26516  10.027  13.472  12.386  0.1569  0.2428  0.0384
 9670W        W26517   1.434   0.087  16.241  0.0776 -0.2434  0.0703
 9671W        W26518   4.628   8.471   2.051 -0.1964 -0.1435 -0.0271
 9672W        W26519  15.846  12.465   1.072 -0.1059  0.3476 -0.2322
 9673W        W26520   7.656   9.298  13.722  0.1956  0.2512 -0.3149
 9674W        W26521   2.785  10.420   2.330  0.3386 -0.1249  0.3114
 9675W        W26522  16.535   9.365   4.158  0.2618 -0.0153  0.0810
 9676W        W26523  16.706   5.708   0.825  0.1881 -0.0564  0.0181
 9677W        W26524   1.466   5.366   4.939  0.2190 -0.0954  0.4119
 9678W        W26525  13.388   8.869   1.074  0.2005 -0.1021 -0.0345
 9679W        W26526   6.474   6.932   0.464  0.0445 -0.2776 -0.1330
 9680W        W26527  17.432   1.245   2.246  0.0871  0.0749 -0.3166
 9681W        W26528  16.032   8.734   1.815 -0.0981  0.0177  0.0969
 9682W        W26529   6.174   3.211  13.146  0.1386  0.4387  0.0363
 9683W        W26530  12.028   1.929   1.979  0.0126  0.2000 -0.0463
 9684W        W26531  14.271   2.048  14.836 -0.1268  0.0295 -0.2181
 9685W        W26532  11.242  14.584   4.562 -0.0211  0.0521  0.0509
 9686W        W26533   1.981   7.004   5.165  0.3396 -0.2813 -0.0596
 9687W        W26534   6.356   4.293   5.286  0.1150 -0.0831  0.2404
 9688W        W26535   4.782   7.543   3.046 -0.0105  0.0715 -0.0294
 9689W        W26536   4.946  14.551  14.465  0.3039 -0.2139  0.4583
 9690W        W26537   7.750   0.108  12.121 -0.2980  0.1393  0.0233
 9691W        W26538   5.115   3.983   4.097  0.0824  0.0788  0.0922
 9692W        W26539   9.734   3.290  15.055 -0.0742 -0.1911 -0.1944
 9693W        W26540   6.705   5.085   3.301  0.0977 -0.0113 -0.0208
 9694W        W26541   0.293   5.057   9.591  0.0935  0.1078 -0.0446
 9695W        W26542   5.403  10.991  15.504 -0.2238 -0.0347  0.0145
 9696W        W26543  12.027  10.194   3.856 -0.0400 -0.0133 -0.1090
 9697W        W26544  10.954  16.006   0.539  0.0637 -0.2224  0.0630
 9698W        W26545   3.809  10.163  12.793 -0.0669  0.2341  0.0763
 9699W        W26546   3.052   3.470  15.602  0.0243 -0.0825 -0.1636
 9700W        W26547   1.304   6.879   2.896 -0.2317  0.0741  0.2183
 9701W        W26548  12.833   4.730  12.111 -0.1522  0.2892  0.0972
 9702W        W26549   9.215   6.639  15.808  0.1574 -0.0386  0.1462
 9703W        W26550  14.116  14.222  16.148 -0.0788  0.1686  0.3265
 9704W        W26551   2.151   0.528   4.396  0.0946  0.0953 -0.1375
 9705W        W26552   9.673   8.197  12.892 -0.2123  0.0856  0.0098
 9706W        W26553   8.714   0.816  14.458 -0.1445  0.3876  0.1802
 9707W        W26554  16.434   8.788  13.663 -0.1350  0.0059 -0.1884
 9708W        W26555   1.533  16.626   5.673  0.0679 -0.2401 -0.3266
 9709W        W26556   6.271  17.886   2.076 -0.0675 -0.1183  0.2149
 9710W        W26557   6.204   9.242  13.341 -0.0347  0.0739 -0.0518
 9711W        W26558  15.215  10.708   0.898 -0.2009 -0.1162 -0.3271
 9712W        W26559   5.769  16.678   4.835 -0.2088 -0.0586 -0.2918
 9713W        W26560  16.380   0.301  11.212 -0.1145  0.1303  0.1193
 9714W        W26561  16.334  16.568   0.876 -0.1973 -0.0098 -0.0299
 9715W        W26562   4.483  13.059  12.172 -0.1046  0.2259  0.0573
 9716W        W26563  12.779  12.962  15.819 -0.1553  0.1273 -0.3671
 9717W        W26564   6.490   8.916   6.395 -0.1327  0.0028 -0.0096
 9718W        W26565  18.201  17.881  14.002  0.1169 -0.1397  0.1091
 9719W        W26566   1.739   3.350   1.617 -0.2024 -0.2992 -0.0637
 9720W        W26567  14.701   0.660   3.017 -0.1429  0.1820 -0.2007
 9721W        W26568  13.047   9.456   3.902  0.0054 -0.0429 -0.1233
 9722W        W26569   5.223  11.957   1.206  0.0336 -0.0936 -0.0375
 9723W        W26570   3.558  11.016   1.355 -0.2966 -0.3882 -0.0393
 9724W        W26571   4.221  16.920   5.919  0.3269  0.0502  0.3156
 9725W        W26572   3.390   8.300   5.304  0.1307 -0.0868 -0.1467
 9726W        W26573   7.123   4.946  14.497 -0.0787  0.3504 -0.1761
 9727W        W26574  13.755   1.046   3.393  0.0977 -0.1069  0.0321
 9728W        W26575   0.157   3.739   2.317  0.3196  0.0815 -0.3507
 9729W        W26576  14.544   7.477   3.901 -0.3381 -0.1472 -0.1314
 9730W        W26577   6.214   0.841   5.541  0.1864  0.0410  0.5245
 9731W        W26578  16.623   9.223  16.356 -0.2402 -0.0449  0.1722
 9732W        W26579   0.287   2.487  15.716 -0.4835 -0.1185 -0.0644
 9733W        W26580  14.692   3.234   1.171 -0.1069 -0.0749 -0.3013
 9734W        W26581  15.332  16.964   4.268  0.1307  0.1518 -0.0710
 9735W        W26582   2.039  17.889  14.752 -0.0664  0.0723  0.2664
 9736W        W26583   9.019  14.283   3.704 -0.2682  0.0535  0.2823
 9737W        W26584  11.628  11.778   2.753  0.1775 -0.0103 -0.1454
 9738W        W26585   7.334  13.543  15.128 -0.0251 -0.3172  0.0076
 9739W        W26586  12.774  15.024   5.856 -0.0651 -0.1114 -0.0972
 9740W        W26587   5.318  15.571   4.093  0.2891 -0.0940 -0.0426
 9741W        W26588   9.333   6.627   3.877 -0.2891 -0.1399 -0.2546
 9742W        W26589  10.947  17.728  16.068  0.0646 -0.0395 -0.3032
 9743W        W26590   3.601  16.408  13.326  0.1750  0.1696 -0.0278
 9744W        W26591  16.760   8.439   5.886 -0.1060 -0.0807 -0.1609
 9745W        W26592  13.334   1.924   2.163 -0.1323  0.1867 -0.1068
 9746W        W26593   7.804   7.401  14.381 -0.2205  0.1399 -0.2333
 9747W        W26594   1.667   4.999  15.206  0.1684  0.2696  0.2236
 9748W        W26595  17.022  11.934   0.194 -0.1536  0.0965 -0.2565
 9749W        W26596  14.452   7.128   3.169  0.1765 -0.0751  0.1183
 9750W        W26597   3.154   3.736  16.012 -0.1925 -0.1583  0.0921
 9751W        W26598  15.882   7.376   5.072 -0.3134 -0.2915 -0.0134
 9752W        W26599  16.464   0.163   3.641  0.0732 -0.0275  0.1224
 9753W        W26600  13.018  18.206  14.229  0.0759 -0.0326  0.0280
 9754W        W26601  14.565  13.211   5.280  0.0198  0.1571 -0.1139
 9755W        W26602  10.554  14.102   5.202 -0.4400 -0.1201  0.0615
 9756W        W26603  10.487  13.957  14.445  0.0588 -0.1427 -0.0047
 9757W        W26604   1.290   2.184   3.980  0.2100  0.3692 -0.0057
 9758W        W26605   5.498  15.790  14.881  0.2273  0.1991 -0.2825
 9759W        W26606   3.613  12.380  14.631  0.0321  0.1356  0.2078
 9760W        W26607   5.537   6.355  11.130  0.1675  0.2866 -0.0296
 9761W        W26608   3.902  12.418  13.439  0.0743  0.1131 -0.0598
 9762W        W26609  15.103  14.979   2.045 -0.0080  0.1177  0.0383
 9763W        W26610   4.231   1.173   4.172 -0.1385 -0.0690 -0.1458
 9764W        W26611   3.416   2.844  11.985  0.0919 -0.0533  0.2386
 9765W        W26612   1.101   2.557   2.534 -0.1036  0.0591 -0.0087
 9766W        W26613   5.168  14.521   0.666  0.1152  0.2928  0.1139
 9767W        W26614   9.510   5.163   4.354 -0.2580  0.1707 -0.0702
 9768W        W26615   2.526  18.317   6.416  0.1486 -0.1559  0.2218
 9769W        W26616  10.857   6.325  13.683 -0.1213 -0.1416 -0.0851
 9770W        W26617   8.873   3.803   2.092 -0.3397  0.1379 -0.1403
 9771W        W26618   4.170  15.844   0.524 -0.1426 -0.3986  0.0325
 9772W        W26619  18.122   2.228   1.067  0.1320  0.1228 -0.2487
 9773W        W26620  11.397  13.989   5.397 -0.2699 -0.0483 -0.1344
 9774W        W26621  17.389   1.776  12.655  0.0961  0.3544  0.4162
 9775W        W26622  16.933   8.949  12.844 -0.1219 -0.2350  0.2142
 9776W        W26623  12.271   4.091  16.304  0.0743 -0.2317  0.1195
 9777W        W26624   2.940  14.954  15.946  0.2090 -0.0182  0.4230
 9778W        W26625   3.219  12.860  12.607  0.0360  0.2988  0.3260
 9779W        W26626  11.747  14.846  16.294  0.1056 -0.3025 -0.0152
 9780W        W26627   4.516   3.217   0.213  0.0566  0.0730 -0.1903
 9781W        W26628   3.081  10.002   4.079  0.1674 -0.1249 -0.0410
 9782W        W26629  13.747  16.985   4.157 -0.0795 -0.1739 -0.0428
 9783W        W26630   5.361   5.223  13.698 -0.0125 -0.5913 -0.0726
 9784W        W26631   0.508   3.551   2.634 -0.0937 -0.0962 -0.2989
 9785W        W26632  10.106  17.382   3.905  0.1727  0.0870 -0.1517
 9786W        W26633  10.654  13.773   2.241  0.3823 -0.1313  0.2371
 9787W        W26634  17.608   0.015   2.767 -0.2513 -0.2869 -0.1249
 9788W        W26635   9.034   2.182   4.096  0.0586 -0.0916 -0.0331
 9789W        W26636   7.369  17.798  12.626  0.1112 -0.1636  0.0195
 9790W        W26637  12.779   8.050   0.011 -0.2269 -0.4773  0.0987
 9791W        W26638  18.074  18.405  13.002  0.0375 -0.3016 -0.3500
 9792W        W26639  13.535  13.684   5.101  0.2550  0.0924  0.1103
 9793W        W26640   7.767   6.936  14.635  0.3630  0.0704  0.1699
 9794W        W26641   2.567  11.695   2.175  0.1021  0.2397  0.0837
 9795W        W26642  16.419  17.804  12.198 -0.2332 -0.1253 -0.0909
 9796W        W26643   7.437   4.024  14.338  0.1700  0.6166 -0.2300
 9797W        W26644  18.059  10.966   2.089 -0.3265  0.0750  0.1528
 9798W        W26645  13.689  12.908  16.202  0.2815 -0.0702  0.2026
 9799W        W26646   7.369   6.491   2.520 -0.0804  0.1852 -0.0125
 9800W        W26647  16.734   4.875   3.245 -0.2617 -0.0554 -0.0027
 9801W        W26648  17.231  11.877  13.948  0.2603  0.1032  0.2859
 9802W        W26649   6.912  15.494   2.399 -0.0311 -0.1730 -0.0413
 9803W        W26650  15.349  15.347  15.107  0.0343  0.0195  0.0551
 9804W        W26651  16.604   4.631   1.535 -0.1981  0.2083  0.0530
 9805W        W26652  17.442   7.809  14.916 -0.0512  0.4433  0.0538
 9806W        W26653  16.943   9.651   0.094  0.0178 -0.0881  0.1007
 9807W        W26654   3.659   9.190  13.819 -0.1823 -0.1253  0.2446
 9808W        W26655  12.949   3.794   4.185 -0.0315 -0.0244  0.0907
 9809W        W26656  12.779   9.093   5.158 -0.0097  0.1385  0.0683
 9810W        W26657   9.820  14.977  13.074  0.0868 -0.0633 -0.2684
 9811W        W26658   6.549  14.458  12.041 -0.1787 -0.0116  0.0071
 9812W        W26659  15.155   8.847   0.450  0.0198  0.1335  0.1834
 9813W        W26660   8.969  12.547   6.560  0.0691 -0.1618 -0.3161
 9814W        W26661  14.758   4.123  11.677 -0.0176  0.0457 -0.0463
 9815W        W26662   7.436   7.623   4.476 -0.0749  0.1129 -0.2238
 9816W        W26663   1.899   9.761  15.227  0.1095  0.0269 -0.0634
 9817W        W26664  10.879   9.923  15.907  0.0077 -0.2818  0.0475
 9818W        W26665   0.768   8.255  15.236  0.3588 -0.1207 -0.1126
 9819W        W26666   9.260  12.956   5.222 -0.0831 -0.0890 -0.1444
 9820W        W26667  10.482   6.636  12.170  0.1084 -0.2691  0.0856
 9821W        W26668   6.787   1.857  16.241 -0.1245 -0.1152  0.0949
 9822W        W26669   8.697   3.732  12.662 -0.0597 -0.0570 -0.1729
 9823W        W26670   9.645  13.643  13.940  0.0805 -0.0357 -0.0519
 9824W        W26671   0.214   1.101   4.703  0.2200 -0.0417 -0.0338
 9825W        W26672   0.781  11.248  15.031  0.0582 -0.0110  0.2550
 9826W        W26673   6.745  18.127   4.196 -0.1850 -0.2332  0.2290
 9827W        W26674   6.786  13.157  13.481 -0.1175  0.0135  0.1148
 9828W        W26675  14.987   9.260   3.616 -0.0613  0.0759  0.0978
 9829W        W26676   7.346   3.939   4.402 -0.0805  0.0316 -0.1352
 9830W        W26677   8.453  10.085  12.009  0.0722 -0.0337  0.0995
 9831W        W26678  17.751   2.117   3.231 -0.1561  0.2006 -0.2475
 9832W        W26679   0.268  11.969   0.207 -0.0407  0.0333  0.3048
 9833W        W26680   8.549  17.153  14.760 -0.1880  0.3279  0.2324
 9834W        W26681  15.247   0.760  10.106  0.1813 -0.1757  0.0554
 9835W        W26682   4.279   6.565  13.386 -0.2119  0.2004 -0.0473
 9836W        W26683   7.403   8.044   4.953 -0.0022  0.0708  0.0498
 9837W        W26684  10.227   8.390  13.616  0.1423  0.0399 -0.0138
 9838W        W26685   8.093   7.312   4.257 -0.1678 -0.0465  0.0111
 9839W        W26686  10.543   2.381  11.273  0.1846 -0.1871  0.1454
 9840W        W26687   4.612   9.390   4.168 -0.0229  0.0208  0.1136
 9841W        W26688   4.457  12.406  12.523  0.3253  0.0936 -0.0041
 9842W        W26689  14.718   2.630  15.430 -0.1225 -0.0805  0.0795
 9843W        W26690  18.212   9.954   4.088  0.3280  0.6280 -0.4151
 9844W        W26691  13.024  18.404   2.784  0.1085 -0.1566  0.0481
 9845W        W26692  15.354   1.972   0.374  0.1644  0.0327  0.1624
 9846W        W26693  15.979   4.386  14.754  0.2947  0.1359  0.0471
 9847W        W26694   9.981  11.922   5.748 -0.0338 -0.1205 -0.0162
 9848W        W26695   0.752  12.734   2.877  0.1303 -0.2781  0.2557
 9849W        W26696  15.258   2.877   4.297 -0.0509  0.4083  0.0155
 9850W        W26697  11.593  17.792   0.103 -0.2349  0.0573  0.1348
 9851W        W26698   6.427   9.483   3.175 -0.0837 -0.3177 -0.0129
 9852W        W26699   1.964  12.536   0.219 -0.1026 -0.1024  0.1763
 9853W        W26700   1.797   3.213  11.944 -0.2118 -0.2166 -0.0624
 9854W        W26701  14.433   0.132   5.118  0.2686 -0.0208  0.0767
 9855W        W26702  14.485  12.058   0.618 -0.0030 -0.0879 -0.1871
 9856W        W26703  11.222   8.516  12.207 -0.1204  0.2072 -0.0940
 9857W        W26704   6.282   8.824  15.083  0.1593 -0.1175  0.2684
 9858W        W26705  16.291   7.981  16.305  0.0433 -0.1152  0.1415
 9859W        W26706  16.908   1.581  14.839  0.3044  0.1647  0.0884
 9860W        W26707  17.124  12.200  12.018 -0.0276  0.0894 -0.0041
 9861W        W26708   0.313   0.832   4.146  0.1317 -0.1147  0.1665
 9862W        W26709   5.500  14.846   2.322  0.1483 -0.3889 -0.0739
 9863W        W26710  13.787  11.430  16.149 -0.0107 -0.0827 -0.2736
 9864W        W26711   9.940   6.292   0.426 -0.0175 -0.0554 -0.0907
 9865W        W26712  16.028   5.219   2.754 -0.0379 -0.1170 -0.0389
 9866W        W26713   2.984   2.956   0.688  0.0232  0.0891 -0.0894
 9867W        W26714  11.439  12.141  12.271  0.0256 -0.2435  0.0571
 9868W        W26715  16.384   2.966  11.396  0.0300 -0.0993  0.1576
 9869W        W26716   2.152  13.250   1.890  0.0490  0.2934 -0.3952
 9870W        W26717   5.359   6.768  15.640 -0.0801  0.0190 -0.0806
 9871W        W26718   2.911  14.526  12.212 -0.0005  0.3123 -0.1149
 9872W        W26719  10.768   1.487   0.800  0.1418 -0.0196  0.0685
 9873W        W26720  15.331   9.736   4.277 -0.2200 -0.2731 -0.0026
 9874W        W26721  17.470  16.844  12.230  0.1578 -0.1272  0.1033
 9875W        W26722  14.149   9.535  12.356  0.4486 -0.0979 -0.1632
 9876W        W26723   0.401  10.936  13.227 -0.1581  0.0543  0.0316
 9877W        W26724  16.464  12.684   2.450 -0.0175  0.3553  0.1389
 9878W        W26725  16.025   7.319   4.542  0.2404 -0.1026 -0.0658
 9879W        W26726  13.630  17.935   2.242  0.0595 -0.2119 -0.2009
 9880W        W26727  17.885   1.429  10.951  0.0010 -0.1016  0.2659
 9881W        W26728   7.130  14.927   3.455 -0.0318 -0.0867  0.2159
 9882W        W26729   6.256  17.884  14.583  0.0452  0.2618 -0.0379
 9883W        W26730   5.719  11.338   4.731 -0.2296  0.3136  0.2098
 9884W        W26731  11.955  18.419   5.676  0.1630 -0.0788  0.3560
 9885W        W26732   8.638  16.542  12.310 -0.1012 -0.2840 -0.0247
 9886W        W26733  15.102   8.083  11.800  0.1299  0.0755 -0.3252
 9887W        W26734   6.273   0.277  14.204  0.0434 -0.0406 -0.0545
 9888W        W26735  15.095  12.492  13.744 -0.0115  0.0166  0.0709
 9889W        W26736  10.813  16.668  14.571  0.1723 -0.4226 -0.0401
 9890W        W26737   4.635   6.957   6.018  0.1699 -0.0433 -0.2525
 9891W        W26738   7.561   7.780  14.231 -0.2672 -0.0557  0.1601
 9892W        W26739   5.731  15.619   5.890 -0.3512  0.3450  0.2533
 9893W        W26740   4.673  15.856   0.447 -0.1774  0.0421  0.1294
 9894W        W26741  17.009   8.314   0.573 -0.0789  0.0158 -0.3630
 9895W        W26742   7.815  17.008  12.322 -0.3118  0.1073  0.1813
 9896W        W26743   3.659  18.165  11.353  0.3110 -0.1870 -0.0357
 9897W        W26744   1.570   7.945  15.257  0.1529  0.0377  0.0724
 9898W        W26745  14.690  18.302   4.269  0.1573  0.1007 -0.0937
 9899W        W26746  12.989  14.554  14.275 -0.0513  0.0309 -0.1096
 9900W        W26747   4.457  16.034  11.665  0.1406 -0.2634 -0.1055
 9901W        W26748  13.242   5.828   0.897 -0.0321  0.1680  0.2570
 9902W        W26749  15.492   6.607  11.077 -0.1208 -0.1622 -0.0858
 9903W        W26750   9.861   5.753   1.483  0.2317  0.1594  0.1254
 9904W        W26751   0.572   0.093   2.115  0.3097  0.0210  0.2479
 9905W        W26752   7.581  17.225   3.042 -0.3496  0.1907 -0.0210
 9906W        W26753  11.798   4.562  13.896  0.0907  0.0585 -0.1505
 9907W        W26754   9.049  11.533   4.097 -0.0249  0.0161  0.1710
 9908W        W26755   1.880  18.082   4.024 -0.1517 -0.2110  0.1791
 9909W        W26756   8.634  16.575   5.204 -0.1740  0.2926 -0.1360
 9910W        W26757   3.985   0.761  15.100 -0.0193 -0.0645 -0.0915
 9911W        W26758  11.332   5.679   4.990 -0.2892 -0.2457  0.0999
 9912W        W26759   7.055  13.824  12.787 -0.0753 -0.0550 -0.0175
 9913W        W26760   7.253  13.734   0.341  0.2405  0.0620  0.0653
 9914W        W26761   5.469   0.762   1.801 -0.1629 -0.2297 -0.0460
 9915W        W26762  17.029   4.429   3.227 -0.3726  0.0273 -0.2608
 9916W        W26763  17.744   0.869  13.788 -0.0654 -0.2765 -0.2377
 9917W        W26764   4.679  10.338   0.096 -0.1303  0.1998 -0.0155
 9918W        W26765  17.019  15.083  13.196 -0.0854  0.1240  0.1547
 9919W        W26766  16.730  13.441  11.733  0.1758  0.2144  0.1597
 9920W        W26767   4.887   3.470   2.780  0.1766  0.0206  0.0049
 9921W        W26768   8.374  16.309  11.973 -0.0292 -0.1479 -0.0748
 9922W        W26769   3.931   5.340  15.408 -0.1557 -0.0520 -0.2811
 9923W        W26770   9.190   5.172  16.106  0.1528 -0.0565 -0.0472
 9924W        W26771   8.033  16.607  15.728 -0.0498 -0.0941  0.2436
 9925W        W26772   4.492  12.509   2.843 -0.2630  0.2638  0.1770
 9926W        W26773  16.260  17.441   5.093 -0.1009  0.5245 -0.0965
 9927W        W26774  13.120  11.859  13.417  0.3560 -0.0395  0.3249
 9928W        W26775  12.425  17.907  10.534 -0.1758  0.2448 -0.0259
 9929W        W26776   7.473   7.251  11.178  0.0266 -0.3952 -0.0264
 9930W        W26777  13.761  11.873  14.234  0.1018 -0.2499  0.0670
 9931W        W26778  11.775   3.137   3.867 -0.2491  0.0336 -0.4217
 9932W        W26779   1.512  17.984  16.374  0.0895 -0.1960  0.0401
 9933W        W26780   9.646  17.605  13.820 -0.0371  0.1886  0.3523
 9934W        W26781  12.953   5.249   4.344  0.1582 -0.1881  0.0489
 9935W        W26782  17.751  12.221   4.961  0.2476  0.3130  0.3902
 9936W        W26783  17.902   2.835  11.723  0.2880 -0.0810 -0.0795
 9937W        W26784   2.298   6.131  16.358  0.2122  0.0424  0.2309
 9938W        W26785   6.626   2.030  13.021 -0.0867  0.2909 -0.0394
 9939W        W26786   6.322  13.624   1.546  0.3239 -0.0317 -0.1920
 9940W        W26787  11.675   1.234   5.375 -0.1631  0.2322 -0.0089
 9941W        W26788   4.143  12.366  15.944  0.0534  0.0290 -0.0538
 9942W        W26789  14.407   2.094   5.760  0.0744 -0.2174  0.1319
 9943W        W26790  14.086   1.377  13.590  0.3849 -0.0657  0.0851
 9944W        W26791   3.044   7.742   2.882  0.2850 -0.1791  0.1479
 9945W        W26792  11.883  12.017  15.002  0.2477 -0.0225 -0.1693
 9946W        W26793  17.268   3.017   1.628 -0.1938  0.0883 -0.1275
 9947W        W26794   2.694  17.000   4.608 -0.0738  0.2217  0.3161
 9948W        W26795   3.398  17.939  14.295  0.1362  0.1055  0.0185
 9949W        W26796  11.683  18.108  13.871  0.0808 -0.1249  0.0997
 9950W        W26797  14.221   8.695   1.913 -0.0532  0.2158  0.2864
 9951W        W26798   0.663   1.946  14.676 -0.0308  0.2812 -0.2396
 9952W        W26799   3.069   0.742   1.471 -0.3968  0.1070  0.2035
 9953W        W26800  13.348  15.851   5.914 -0.0594  0.0030  0.1979
 9954W        W26801   7.498  11.255   1.843  0.1278 -0.2272  0.3393
 9955W        W26802  10.386   0.076   2.483 -0.2448  0.0876 -0.0300
 9956W        W26803  18.272   5.841   0.581  0.4537  0.0228  0.0500
 9957W        W26804   6.971  16.562   2.048 -0.2659  0.3358  0.3164
 9958W        W26805  11.588  12.764   2.284 -0.0919 -0.1005  0.2970
 9959W        W26806   6.795   0.803  11.727 -0.3086 -0.2017 -0.2815
 9960W        W26807  14.663   6.632  13.264 -0.1232  0.2792  0.0138
 9961W        W26808  11.277  12.523   1.018  0.0238  0.0744  0.1694
 9962W        W26809   7.969   0.718  13.882  0.0429 -0.1435 -0.0816
 9963W        W26810   3.130  10.886   1.135 -0.0338  0.3124 -0.0598
 9964W        W26811   2.901  18.083  16.348  0.0238  0.0839 -0.0900
 9965W        W26812   5.613  16.197  12.791 -0.1281  0.0303 -0.3030
 9966W        W26813   0.764  18.020  13.786 -0.4132 -0.0679 -0.0786
 9967W        W26814   8.535   7.782   4.500  0.0584 -0.2752 -0.3799
 9968W        W26815   6.934  18.128  14.008  0.2716  0.1472  0.2388
 9969W        W26816  12.058   5.989  15.881 -0.0065 -0.0212 -0.1591
 9970W        W26817   0.846  12.893   5.220  0.2598  0.2822  0.1471
 9971W        W26818   1.225   4.320   0.096 -0.1332 -0.5043 -0.0225
 9972W        W26819  16.320  10.504  12.929  0.1091 -0.3670  0.0884
 9973W        W26820   7.454  17.640   0.008 -0.0582 -0.2143  0.3652
 9974W        W26821  18.272   0.632   4.012 -0.2514  0.0406  0.3967
 9975W        W26822   6.433  11.900   1.745 -0.0347 -0.0975  0.1223
 9976W        W26823   3.850  10.810   5.933 -0.0507  0.1431 -0.1953
 9977W        W26824  11.474   1.345  11.794  0.0299 -0.0838  0.0768
 9978W        W26825   9.545  12.739   2.744  0.1504 -0.0883 -0.1752
 9979W        W26826   0.623   5.682  15.138  0.1160  0.1595  0.1724
 9980W        W26827   9.280  10.108  13.475 -0.0264 -0.1054 -0.1663
 9981W        W26828   8.070  13.221  15.302  0.3122  0.3179 -0.2064
 9982W        W26829  14.283   7.859  14.176 -0.0088 -0.1537 -0.1043
 9983W        W26830  14.802   4.107  11.164  0.1911  0.1888  0.1143
 9984W        W26831  11.805   8.487   0.303  0.3291  0.1976  0.3477
 9985W        W26832  15.124   7.219   1.648 -0.0039 -0.2000 -0.5239
 9986W        W26833   3.310   2.591   5.421 -0.1691  0.2082 -0.3313
 9987W        W26834   7.012  11.095   3.629 -0.3193  0.0282  0.1211
 9988W        W26835   4.389   2.357   4.659  0.2991  0.1926  0.1376
 9989W        W26836  10.612   6.522   1.391  0.0637  0.1656  0.3364
 9990W        W26837  15.921  17.789  15.455  0.3163 -0.1699  0.2769
 9991W        W26838  13.676  11.397   3.652  0.1297 -0.0880  0.2027
 9992W        W26839  12.560   2.434  11.813  0.0625  0.0025 -0.1007
 9993W        W26840  13.609  16.579  13.330 -0.3329  0.1173 -0.1722
 9994W        W26841  15.980   1.176   4.538 -0.0461 -0.0461  0.2567
 9995W        W26842  12.382  11.912  14.872 -0.1030 -0.2638 -0.2098
 9996W        W26843   1.354   3.119   0.824 -0.3123 -0.1726  0.2491
 9997W        W26844   0.236  12.794   3.570  0.0237 -0.0858 -0.0436
 9998W        W26845   1.333  15.642   1.831  0.0086  0.1852  0.1176
 9999W        W26846  12.017  10.789  16.202  0.3208 -0.1716  0.1651
10000W        W26847  16.113   2.939   3.347 -0.0366 -0.0479  0.2016
10001W        W26848  13.825  14.917   2.378 -0.0446 -0.1920  0.3364
10002W        W26849   1.612   7.902   2.301  0.0551 -0.0449 -0.2434
10003W        W26850   2.248  10.453  14.648 -0.2345  0.0223  0.0057
10004W        W26851   9.153  15.375  15.584  0.0526 -0.1096  0.3011
10005W        W26852  17.196  16.158   0.731  0.1473  0.0429 -0.1397
10006W        W26853  16.324   6.609   3.287  0.0187 -0.0703  0.2661
10007W        W26854  17.727   8.676   4.506 -0.1509  0.1692 -0.1468
10008W        W26855   6.092  11.644  15.356  0.4242  0.1049  0.1367
10009W        W26856   1.078  17.571  13.854  0.2234 -0.3448 -0.1469
10010W        W26857  18.136  16.761   4.894  0.0423  0.0601 -0.1378
10011W        W26858  12.432   0.178  16.154 -0.0912 -0.1327 -0.1559
10012W        W26859   1.808  14.373   4.276  0.2835  0.0754  0.0951
10013W        W26860  11.766   1.643  15.699  0.0510  0.2154  0.3163
10014W        W26861  16.132  11.755  11.783  0.0478 -0.0714 -0.1200
10015W        W26862   9.609  15.384  15.348 -0.1075 -0.0215  0.1603
10016W        W26863  10.658   0.369   5.119 -0.3356  0.1513 -0.2072
10017W        W26864  15.320   7.064  14.869 -0.2046 -0.2840  0.5395
10018W        W26865   9.643  16.939   5.526  0.0137 -0.0149 -0.1526
10019W        W26866  11.506  13.887   0.254 -0.0182  0.0523  0.4011
10020W        W26867  13.118  14.113   4.348  0.1509  0.1435 -0.0634
10021W        W26868   7.475   4.657  15.964  0.0472 -0.0811  0.1790
10022W        W26869   9.916   9.682   1.226  0.3410 -0.0407  0.1380
10023W        W26870  14.603   1.503   5.194 -0.0651  0.1406  0.1017
10024W        W26871  13.735   2.106  14.654  0.2448 -0.2104 -0.1709
10025W        W26872   7.309   0.608   0.164  0.1726 -0.3237 -0.3173
10026W        W26873   7.534   3.588   3.210  0.0203 -0.0884  0.0190
10027W        W26874   7.233  17.038   2.009 -0.1191 -0.0016 -0.0790
10028W        W26875   4.599   4.417  11.692  0.0126 -0.0426  0.1129
10029W        W26876   1.175  14.701  12.800 -0.3792  0.1928  0.0922
10030W        W26877   7.266  12.363  10.769  0.0372 -0.2455  0.0447
10031W        W26878  17.369  11.167  12.314  0.0177 -0.1909 -0.3706
10032W        W26879   9.774   9.727  14.964  0.1257  0.1682 -0.1744
10033W        W26880  12.442  15.806   0.827 -0.4705  0.0132  0.0029
10034W        W26881  18.082   3.494  12.676  0.2953 -0.0985  0.1142
10035W        W26882  11.154   3.965   5.024  0.2357 -0.4229 -0.0211
10036W        W26883   6.013   6.789   4.288  0.5290 -0.0986  0.2318
10037W        W26884  15.881  13.404  12.810  0.0499  0.0411  0.1615
10038W        W26885  15.967  17.475  13.312  0.1116 -0.0965  0.2393
10039W        W26886  15.584   7.156   2.201  0.0261 -0.0222  0.2037
10040W        W26887   8.704  10.149   1.022 -0.1835  0.1271  0.1373
10041W        W26888   8.341  10.471   5.620  0.1334  0.2476 -0.2997
10042W        W26889   8.467   3.386  15.358  0.1170 -0.1461  0.0558
10043W        W26890   9.163   6.317   2.607  0.0645  0.0749 -0.0275
10044W        W26891   5.971  15.712   5.001  0.0332 -0.1678 -0.1698
10045W        W26892  11.690   7.396   2.767 -0.1553 -0.2576  0.2302
10046W        W26893   5.635   8.991   1.989  0.0777  0.0198 -0.1350
10047W        W26894  18.076  14.067   0.871 -0.1501 -0.0180 -0.0083
10048W        W26895  16.579  12.254   2.737 -0.1280 -0.1888  0.3574
10049W        W26896  17.221   4.908   3.292  0.1351  0.0078 -0.2827
10050W        W26897   2.231   3.394   0.541 -0.2012 -0.0233  0.0227
10051W        W26898   9.640  10.074   3.410 -0.1709 -0.3106 -0.2525
10052W        W26899   4.791  14.816   4.493  0.0254  0.0899  0.2080
10053W        W26900   3.903   6.151   1.623 -0.1739 -0.1490  0.2437
10054W        W26901   7.582  10.293   4.045 -0.1265  0.2783 -0.2338
10055W        W26902  16.846   6.501  14.130  0.2377  0.1180  0.1321
10056W        W26903   3.009  14.567   0.263  0.3290 -0.0332  0.0541
10057W        W26904   1.379  15.465   4.950 -0.0943  0.1219 -0.1251
10058W        W26905  13.076  15.078   2.714  0.0344 -0.0697 -0.1660
10059W        W26906   4.115  11.253  15.044 -0.1962 -0.1903  0.1209
10060W        W26907   8.576   9.672  13.303  0.1356  0.0377 -0.3351
10061W        W26908  13.052  14.790   4.853  0.1461  0.3608 -0.2059
10062W        W26909  11.355   9.481  11.676 -0.0836  0.0383 -0.0599
10063W        W26910  18.058  14.268   3.815  0.1111 -0.0279 -0.1676
10064W        W26911   5.786   6.324  12.448 -0.2165 -0.3110 -0.1133
10065W        W26912   8.999  17.300   3.155 -0.3158  0.0410 -0.1054
10066W        W26913  13.978   2.801   1.209  0.0444  0.1038 -0.1379
10067W        W26914   7.304   2.611  13.651 -0.0152 -0.0043 -0.2634
10068W        W26915   0.005   8.774   3.839 -0.4898 -0.1975 -0.0104
10069W        W26916  11.275  15.866  12.072  0.0605  0.1660 -0.0785
10070W        W26917   7.127   0.690   5.123 -0.1065 -0.1041 -0.3782
10071W        W26918   8.736  17.019  12.084  0.2300 -0.0836  0.0613
10072W        W26919   9.142   6.629   3.450 -0.6537  0.1491  0.3641
10073W        W26920   4.479  12.187   0.864  0.5826  0.0557 -0.2485
10074W        W26921   9.942  16.497  15.507  0.0030  0.1321 -0.0238
10075W        W26922  11.639  13.601   3.521 -0.3373  0.0876 -0.1501
10076W        W26923  18.317  12.087   0.662 -0.1488  0.2004 -0.0398
10077W        W26924  13.744   5.284  11.145  0.1459 -0.0251 -0.1756
10078W        W26925   0.154  17.934  16.021  0.1336 -0.2290 -0.0489
10079W        W26926   7.731   6.870   1.466 -0.1300  0.1087 -0.5105
10080W        W26927   4.272   3.853   0.373 -0.3755 -0.2176  0.1389
10081W        W26928  12.653  15.099  12.072 -0.0567 -0.2494 -0.0588
10082W        W26929  14.286  10.041   2.713 -0.0738 -0.2709 -0.4591
10083W        W26930   8.899  13.250  13.003 -0.1339  0.0954 -0.3687
10084W        W26931   8.783   5.604   4.490 -0.1029  0.0717 -0.0337
10085W        W26932  17.454   3.413  14.409 -0.0992 -0.0219 -0.1513
10086W        W26933   7.504  11.639   5.752 -0.0532 -0.2613  0.1695
10087W        W26934   1.233   9.686   1.907 -0.3479  0.0013  0.1955
10088W        W26935   8.785  17.470   5.531  0.0285 -0.0064 -0.2151
10089W        W26936  12.428   8.384   0.208 -0.0654  0.1018  0.2269
10090W        W26937  12.998   9.853   0.390  0.0615 -0.1609  0.1037
10091W        W26938  16.687  11.891   1.923  0.0104  0.0219 -0.0619
10092W        W26939  17.105  13.423  12.144  0.0722 -0.0257  0.0899
10093W        W26940  14.811  14.974   3.439  0.2099  0.0615 -0.0716
10094W        W26941  13.369   3.067  12.662 -0.2930 -0.1011 -0.0576
10095W        W26942  15.600   8.785  11.216 -0.0682  0.5729 -0.1583
10096W        W26943  12.457  16.259   2.514  0.1421  0.1734  0.0448
10097W        W26944  16.500  14.124  13.367 -0.1788 -0.0520  0.0674
10098W        W26945   9.080   2.751   0.246  0.1337  0.0720 -0.1623
10099W        W26946   8.158   9.175   2.053  0.0648 -0.2925  0.0578
10100W        W26947  10.821  16.930   4.164 -0.1557  0.1650 -0.3345
10101W        W26948   8.789   8.038   4.910  0.0804 -0.0120 -0.2830
10102W        W26949  12.752   0.255   0.725  0.2464 -0.0591  0.1706
10103W        W26950  17.071  16.606   4.539  0.2052  0.0921  0.1524
10104W        W26951   6.321  14.408   0.071  0.1717 -0.3227 -0.0965
10105W        W26952   2.064  17.465  14.473  0.0770  0.5102 -0.0788
10106W        W26953   7.108   8.304   0.843  0.4006  0.3116 -0.0475
10107W        W26954  15.509   7.247   0.384  0.1499 -0.1033 -0.0291
10108W        W26955   4.502  11.477  13.459 -0.0582 -0.0585 -0.0057
10109W        W26956   6.404  12.728  12.616  0.0701  0.2392 -0.1429
10110W        W26957   2.990  15.841  15.413  0.3003  0.0878  0.0041
10111W        W26958  18.331  15.556   1.685 -0.3038 -0.3369 -0.1134
10112W        W26959  11.144  15.563   0.785 -0.0668 -0.1212 -0.0374
10113W        W26960   2.313  17.831  15.178 -0.1894 -0.0303  0.3453
10114W        W26961   0.962   1.193  12.707  0.0723  0.4085 -0.1833
10115W        W26962  13.572  10.073   3.863  0.0564  0.0284  0.1335
10116W        W26963  13.645   8.618  15.578 -0.2687  0.1512 -0.0021
10117W        W26964   9.248   1.758   1.343 -0.0984  0.0770  0.0535
10118W        W26965  11.745   5.802   4.616 -0.2926  0.0232 -0.0156
10119W        W26966   8.152   2.611   4.273 -0.1625 -0.1035 -0.1979
10120W        W26967  16.171   5.924   1.735 -0.2168  0.3308  0.0276
10121W        W26968  14.445  11.897  11.696 -0.0645  0.3065  0.3536
10122W        W26969   1.239  18.357  11.607 -0.0684  0.1029  0.0099
10123W        W26970  13.392   1.619   4.502 -0.0374  0.1590 -0.1474
10124W        W26971  10.936   3.983   0.823 -0.4564 -0.0651  0.3043
10125W        W26972   9.524  14.619   0.905 -0.2276 -0.0177  0.0276
10126W        W26973  11.346  12.290   3.930 -0.1486  0.1173 -0.1151
10127W        W26974  14.210   6.977   4.527  0.2366  0.1157  0.2370
10128W        W26975  13.203  10.281   3.660  0.0155  0.3194  0.1966
10129W        W26976   3.448   0.533   1.188 -0.0439  0.4621  0.0344
10130W        W26977   3.567   5.833  11.936  0.2498 -0.2587 -0.3630
10131W        W26978  11.918   0.616  12.307 -0.1595  0.0242 -0.2445
10132W        W26979   6.889  16.179  13.013  0.4023  0.0209 -0.1995
10133W        W26980  12.877   2.129   2.438  0.1849  0.0987  0.1383
10134W        W26981  10.954   5.279   1.658  0.2138  0.0821 -0.0004
10135W        W26982  17.662   2.196  13.077  0.0360  0.1796  0.1954
10136W        W26983  15.257   6.668  11.499 -0.1888  0.1047 -0.0923
10137W        W26984  14.524   6.539   1.939 -0.1387 -0.0983  0.3308
10138W        W26985  16.464   4.825  16.019 -0.0431 -0.0376  0.2842
10139W        W26986   7.048   8.061   4.587 -0.3129  0.0531 -0.3052
10140W        W26987  15.675  12.833   1.831 -0.0636 -0.2595 -0.0124
10141W        W26988   6.726  11.134   6.347  0.1199  0.0094  0.2168
10142W        W26989   4.468  14.766  15.919  0.2233  0.2554  0.1047
10143W        W26990  18.134  11.982   4.689  0.3182  0.0264 -0.0982
10144W        W26991  16.476   3.974   2.851  0.4429  0.1713  0.0443
10145W        W26992  16.697   9.604  16.007  0.4401  0.2026 -0.1295
10146W        W26993   1.657  16.254   3.866 -0.2439 -0.0502 -0.1431
10147W        W26994  13.848   8.720  11.269 -0.1357  0.0789  0.0108
10148W        W26995  12.667  13.570   5.448  0.1132 -0.0997 -0.0300
10149W        W26996  13.047  14.700  12.116  0.3513 -0.1833 -0.0087
10150W        W26997  16.031   6.484  14.782  0.1579  0.0198 -0.3625
10151W        W26998  16.135   4.541  15.760  0.3162 -0.0745 -0.3067
10152W        W26999   5.182  16.493   5.818 -0.0543  0.4837  0.2818
10153W        W27000   9.506   7.253  12.612 -0.0144 -0.2271  0.1140
10154W        W27001   6.977   9.916  16.230 -0.2404 -0.5343 -0.0308
10155W        W27002   8.367  10.586  11.897 -0.0352 -0.0042  0.3181
10156W        W27003  12.402   0.471   0.409  0.0122  0.2054 -0.0810
10157W        W27004  17.664  15.550  13.578 -0.0720  0.0708  0.1477
10158W        W27005   7.162  17.905   6.234 -0.2599 -0.2093 -0.0629
10159W        W27006   4.414  15.942   2.248 -0.0935 -0.6470 -0.3007
10160W        W27007   7.202   8.387  15.307  0.1179 -0.0502  0.1244
10161W        W27008   7.277   6.743   4.051 -0.0814 -0.0684  0.1135
10162W        W27009  11.303  10.107   4.721  0.0172 -0.1774  0.2426
10163W        W27010   3.478  15.146   4.658  0.1424 -0.1843  0.0855
10164W        W27011  11.155   4.398  13.273  0.0966 -0.1561  0.1693
10165W        W27012   2.394   9.091   1.776  0.1727  0.0396 -0.4822
10166W        W27013   8.245   6.449   5.864  0.0709  0.1329 -0.0730
10167W        W27014   5.632   8.069   5.045 -0.0023 -0.3121  0.2720
10168W        W27015  11.903   3.361  14.329  0.1034  0.0905  0.0837
10169W        W27016   4.724   6.402  12.296 -0.1134 -0.0175  0.2752
10170W        W27017  11.409   4.062   2.111 -0.0427 -0.1038 -0.0239
10171W        W27018   3.946   9.320   1.486  0.1023 -0.1141  0.0475
10172W        W27019   2.984  15.375  15.648  0.0963 -0.0376  0.2226
10173W        W27020  11.327  16.640   5.382 -0.1055  0.1467 -0.0552
10174W        W27021  13.219   7.362  12.569  0.0070  0.1813 -0.0404
10175W        W27022  12.319  11.070   4.186 -0.1001 -0.0571 -0.1315
10176W        W27023   9.772   2.833  15.973  0.1036  0.1002 -0.1624
10177W        W27024  12.479   5.615   0.709  0.0616  0.0068  0.3459
10178W        W27025   7.943   7.807   4.526 -0.0465 -0.0823  0.1231
10179W        W27026  14.546  16.987   0.408  0.0164  0.1687  0.2353
10180W        W27027   2.681  12.675  14.331  0.0374 -0.4428  0.0694
10181W        W27028   1.748  18.290  11.395 -0.1242 -0.0221  0.1164
10182W        W27029  13.438  15.334   0.296  0.1047  0.3649  0.0836
10183W        W27030   5.379   4.591   0.689  0.1788 -0.0174  0.0573
10184W        W27031   0.293   8.644   2.201 -0.1885  0.0083  0.2031
10185W        W27032  17.264   3.015  13.048 -0.1152 -0.0948  0.1088
10186W        W27033   8.548  18.404   2.442 -0.1121  0.0257 -0.3789
10187W        W27034   5.209   2.551   5.115 -0.4564  0.0777  0.1392
10188W        W27035   9.361   4.465   5.901 -0.1083  0.1299 -0.1277
10189W        W27036  15.468  11.250   0.236  0.3100  0.1560 -0.1731
10190W        W27037   6.256  16.335   1.099  0.0138  0.2509 -0.0079
10191W        W27038   6.964   7.056  14.938  0.0851  0.0926  0.0059
10192W        W27039   0.118  11.970  12.553  0.0345 -0.0581 -0.2099
10193W        W27040  14.363   8.006  13.541  0.1565  0.0991  0.2452
10194W        W27041  11.855  13.500  13.789  0.0506 -0.2216 -0.2046
10195W        W27042   7.339   5.455   2.294 -0.1214 -0.2152 -0.2385
10196W        W27043   3.484   9.689  14.584 -0.1839  0.0609  0.0966
10197W        W27044   5.396  11.254  12.265  0.1212 -0.0256 -0.1401
10198W        W27045  16.245  13.232  13.725 -0.1124 -0.1146  0.0421
10199W        W27046  14.157   2.386   1.012  0.1050 -0.1461  0.1091
10200W        W27047  13.877   0.844   0.403 -0.2507 -0.0636 -0.0253
10201W        W27048  16.511   8.826  11.882  0.0854  0.0645  0.4555
10202W        W27049  18.151  15.833  14.413 -0.2691  0.1123  0.2638
10203W        W27050   1.206   6.925   3.893 -0.0977 -0.0697 -0.0244
10204W        W27051   6.442   8.472   0.752  0.0386  0.1154 -0.0155
10205W        W27052  17.416   1.616   4.398  0.3155 -0.0831 -0.0590
10206W        W27053   2.599   6.228   2.746 -0.0371  0.0360  0.0110
10207W        W27054  13.476   7.293  15.380 -0.1362  0.0524 -0.0624
10208W        W27055   8.453  13.065  11.962 -0.2742  0.1524 -0.0975
10209W        W27056  16.725  16.301   0.627 -0.3801 -0.0703 -0.0384
10210W        W27057   8.604   7.898   1.356  0.1377 -0.1073  0.1521
10211W        W27058  14.131   1.476  11.898  0.1971  0.1153  0.1153
10212W        W27059  15.708  18.067  15.847 -0.3531 -0.2038  0.0319
10213W        W27060   5.173  10.865   5.214 -0.2115  0.0551 -0.0515
10214W        W27061  15.694   5.950   0.630 -0.1264  0.1092 -0.0895
10215W        W27062   1.046   8.840   2.537 -0.2251 -0.1752 -0.2232
10216W        W27063  17.009  11.031  16.036 -0.0570 -0.2661 -0.1401
10217W        W27064  11.096   8.970  12.424  0.0192 -0.2619 -0.1079
10218W        W27065   3.585   8.830  16.073 -0.0547 -0.0015  0.1670
10219W        W27066  14.826  11.290  12.220  0.1227  0.0786 -0.2798
10220W        W27067  15.447  14.214  12.942  0.2139 -0.2062  0.2594
10221W        W27068   1.613  17.599  13.637 -0.0722  0.0634 -0.2082
10222W        W27069  12.027  14.494   3.396 -0.1711  0.0775 -0.0441
10223W        W27070   6.505   7.531  16.277  0.1582  0.0929  0.4965
10224W        W27071  15.802   3.666   5.029  0.1156  0.2150 -0.0528
10225W        W27072   3.884   0.688   1.029 -0.0941 -0.0219  0.0659
10226W        W27073  11.387  15.600  14.855 -0.0514 -0.0291 -0.2087
10227W        W27074   9.316   4.818   0.512 -0.0387  0.2722 -0.0727
10228W        W27075  17.787   9.367   0.959  0.1572 -0.3633 -0.1336
10229W        W27076   8.190  16.629   3.604  0.2539  0.6351 -0.5023
10230W        W27077  14.582   0.489   5.518  0.2218  0.2271 -0.1735
10231W        W27078   2.650  13.462  11.269  0.0988 -0.0161 -0.1759
10232W        W27079  11.770   3.381  12.458 -0.0629  0.1478  0.3454
10233W        W27080  14.728   8.078   3.369  0.1761 -0.2303 -0.1845
10234W        W27081  10.570  17.908  14.775  0.0598 -0.0193  0.0504
10235W        W27082  15.540   7.686   2.330 -0.0918 -0.0925  0.0972
10236W        W27083   1.988  13.268   0.936 -0.0704 -0.0248  0.1049
10237W        W27084  17.056   0.768   3.223  0.0102  0.0458 -0.1791
10238W        W27085  15.480   4.162   1.653 -0.0110 -0.0133  0.1569
10239W        W27086  17.315   5.927   4.635  0.0991 -0.1053 -0.0677
10240W        W27087  11.464  18.049   1.786  0.1842 -0.2152 -0.0088
10241W        W27088   8.638  16.315   4.449 -0.0238  0.0046 -0.3905
10242W        W27089  10.908   4.139   0.293 -0.0179 -0.2187  0.0669
10243W        W27090   2.669   2.121  10.889 -0.3490 -0.0184  0.2293
10244W        W27091   4.725  17.175  15.323  0.0629  0.0569 -0.0793
10245W        W27092  18.254   6.006  10.747  0.1964 -0.2070 -0.0519
10246W        W27093  11.994   4.733   1.722  0.1956  0.2857 -0.0327
10247W        W27094   5.959  11.108  14.193 -0.0536  0.0199 -0.4768
10248W        W27095   8.374   2.594   2.301 -0.3736 -0.2570 -0.0533
10249W        W27096  10.623   9.562  13.859 -0.0779 -0.1801  0.0272
10250W        W27097  12.232  12.756  12.759 -0.2442 -0.0606 -0.3146
10251W        W27098   7.540   3.741  11.772  0.0325  0.2394  0.0063
10252W        W27099   1.489  12.343  16.374  0.2662 -0.0631  0.0079
10253W        W27100  17.958   8.581   1.772  0.0229  0.0147 -0.0825
10254W        W27101   2.173   4.635   3.064 -0.1986  0.0815  0.2901
10255W        W27102  14.390   4.139  16.183  0.2613 -0.1671 -0.0521
10256W        W27103   9.724   2.582   2.400  0.2206  0.2129  0.1260
10257W        W27104  12.778   6.058  10.993  0.0174 -0.0780 -0.3870
10258W        W27105  11.061   8.401  14.674 -0.0210 -0.0861 -0.3125
10259W        W27106   8.477   3.996  13.482 -0.1516 -0.0839 -0.3394
10260W        W27107   1.967  12.473  11.464 -0.0740  0.0721 -0.1360
10261W        W27108   5.526   5.500   1.707  0.2317 -0.2136 -0.3751
10262W        W27109  16.675   6.426  11.231  0.2095 -0.3857  0.4332
10263W        W27110   5.600   5.053   4.967  0.0917 -0.1881  0.2545
10264W        W27111  16.568  12.675   5.806 -0.0902 -0.0940  0.1380
10265W        W27112  15.272   4.287  15.810  0.4152 -0.4984 -0.1758
10266W        W27113   9.576  17.491   5.228  0.1520 -0.0295 -0.0544
10267W        W27114   1.747  12.344  15.264  0.1012  0.2385 -0.2388
10268W        W27115  14.780   8.234   1.737  0.1466 -0.2223 -0.0860
10269W        W27116   3.803  13.892  14.532  0.1507 -0.0171  0.2070
10270W        W27117  14.672  17.220   3.361 -0.0074 -0.2644 -0.0181
10271W        W27118  14.416   8.083   4.935  0.0674  0.3922 -0.1430
10272W        W27119  11.057  16.622   4.589 -0.3139 -0.0730  0.1641
10273W        W27120   5.642   9.027   0.001 -0.0331  0.0872 -0.0575
10274W        W27121   1.137   5.120  15.785 -0.0080 -0.0633 -0.0435
10275W        W27122   2.728  17.809  12.316 -0.0787  0.5682 -0.0990
10276W        W27123   4.484  11.026   5.376 -0.1983  0.0051 -0.1971
10277W        W27124   2.618   4.822  11.614 -0.0980  0.0982  0.2276
10278W        W27125  14.644   4.623   0.739  0.2322 -0.1676  0.2117
10279W        W27126   2.668  18.062  15.899 -0.2681 -0.3760 -0.2491
10280W        W27127   7.241   0.465  14.440  0.3929  0.4272 -0.3254
10281W        W27128   4.509   0.320  12.842  0.3834  0.1176 -0.0563
10282W        W27129   3.209   8.855   3.761 -0.0078 -0.0269 -0.1364
10283W        W27130   5.826   2.211  16.109 -0.0230  0.0012 -0.1158
10284W        W27131  11.684   5.781   0.188 -0.1839  0.1229 -0.1020
10285W        W27132  14.293  14.290   1.676 -0.2217  0.1738  0.0570
10286W        W27133  16.494  14.157   1.459 -0.1809 -0.0580  0.2738
10287W        W27134   1.885  17.434   2.476 -0.2592  0.0838  0.1999
10288W        W27135   2.637  12.232  15.379  0.0149 -0.0186 -0.0204
10289W        W27136   1.915  11.422   4.820 -0.1417  0.0924  0.0244
10290W        W27137   2.916   4.021   1.532  0.2104 -0.1442 -0.1600
10291W        W27138  16.747  10.080  15.943  0.4019  0.0540 -0.2332
10292W        W27139  17.567   8.741  15.045  0.0278  0.0657  0.1099
10293W        W27140   6.742   1.076   2.506 -0.2280  0.3793  0.1207
10294W        W27141   1.642   0.366   1.068  0.0294  0.0197 -0.0445
10295W        W27142  16.812  14.779   5.383  0.0053 -0.0950 -0.2133
10296W        W27143  13.270  15.676   0.648  0.1256 -0.1492 -0.0536
10297W        W27144  10.101  15.638  11.787 -0.1802  0.0567  0.1671
10298W        W27145  16.845   7.196   0.221 -0.3176  0.0394  0.2723
10299W        W27146   3.089   9.336  14.380 -0.1377 -0.0989 -0.2677
10300W        W27147   6.872  12.396   5.076  0.1009  0.1782  0.3826
10301W        W27148   2.671  14.076  13.606  0.1243 -0.1739  0.0509
10302W        W27149   2.939  10.674  15.145 -0.0790 -0.0756  0.1123
10303W        W27150  11.342   2.158   4.562 -0.2513  0.0534  0.0552
10304W        W27151   7.506   0.042   2.098 -0.5046 -0.0165  0.5901
10305W        W27152  18.168   3.122  14.666  0.2039  0.0243 -0.1642
10306W        W27153   3.815  14.961   5.141  0.1245 -0.0366 -0.3956
10307W        W27154   8.461  17.881   4.532 -0.5102  0.1857 -0.0960
10308W        W27155   6.413  18.308   0.686 -0.0984  0.0091 -0.1831
10309W        W27156   1.412   8.742  14.133 -0.2879 -0.0852  0.0949
10310W        W27157  17.630   7.767   0.164  0.1150  0.1288  0.0974
10311W        W27158   9.513  10.484  13.986  0.0604  0.0343  0.3173
10312W        W27159   6.571  11.179   0.776  0.0609 -0.1173 -0.0484
10313W        W27160   7.752  11.619   5.333 -0.0069  0.0288  0.2951
10314W        W27161   4.043   0.432  12.913 -0.0308  0.1374  0.1433
10315W        W27162   3.410   0.106   4.170  0.2097 -0.3110  0.0366
10316W        W27163  15.239  16.065  13.662  0.2039 -0.0063 -0.2758
10317W        W27164  13.593   2.758  15.615 -0.1394 -0.1619 -0.0708
10318W        W27165  15.669  10.426   1.192 -0.0462  0.1727  0.3290
10319W        W27166  13.212  13.712   1.300  0.1152 -0.0961 -0.3266
10320W        W27167  15.426  10.860   1.325 -0.1118  0.1426 -0.1720
10321W        W27168  10.633  14.109   1.299  0.3286  0.0832 -0.4861
10322W        W27169   1.149   7.271  11.506  0.0952 -0.3586 -0.2282
10323W        W27170  11.887   2.359   2.137 -0.2567 -0.3776  0.3159
10324W        W27171   2.262   6.869  14.702  0.1755 -0.0350 -0.1580
10325W        W27172  14.955   9.224   4.967  0.1120 -0.1784  0.2933
10326W        W27173  14.262   7.776   3.224  0.3489  0.1351  0.2594
10327W        W27174  14.164   5.594   4.624  0.1920 -0.2140 -0.2642
10328W        W27175  17.127   8.033  11.508 -0.2174  0.2897  0.1442
10329W        W27176   5.225   0.834   0.321  0.0696  0.1375 -0.0121
10330W        W27177   5.780   7.535  14.868 -0.1878 -0.0992 -0.0530
10331W        W27178  17.506   4.219   1.115 -0.0718 -0.0164 -0.1036
10332W        W27179   6.554   7.554  15.315 -0.0922  0.2536  0.3346
10333W        W27180  13.746  14.879   0.530 -0.1880  0.3238 -0.0164
10334W        W27181   2.728   8.908  14.455 -0.0371 -0.0875 -0.1223
10335W        W27182   4.818  16.812   0.124 -0.0731 -0.2635 -0.0387
10336W        W27183  16.821  14.243   5.106 -0.1721  0.2049  0.3337
10337W        W27184   5.869   1.282   1.561  0.2374 -0.0101  0.0790
10338W        W27185   4.592  18.404  11.526  0.0468 -0.0090 -0.0242
10339W        W27186   1.501  11.561  14.638 -0.0159 -0.0651  0.0440
10340W        W27187   2.719  15.930   6.301 -0.1327  0.2945 -0.0657
10341W        W27188  18.057  10.164  16.349 -0.5369 -0.1497 -0.0231
10342W        W27189   1.320   4.253  14.687 -0.1169  0.1865  0.0722
10343W        W27190   7.894   6.803   4.487 -0.0967  0.0953  0.0268
10344W        W27191  11.585  15.524  12.235 -0.3947  0.0373  0.0056
10345W        W27192   1.405  14.631  15.005 -0.0584  0.1880  0.2793
10346W        W27193  15.488  17.385  13.152 -0.1383  0.1670  0.0973
10347W        W27194   7.632  11.813  15.129 -0.1639  0.0994  0.0282
10348W        W27195   5.469  12.100   4.798 -0.1787 -0.3756 -0.0864
10349W        W27196  10.801  10.473   2.361  0.2033  0.0630  0.1228
10350W        W27197   7.684  11.908   4.244 -0.0448 -0.2229  0.1247
10351W        W27198   7.904   8.876  13.938  0.3530 -0.0761  0.1566
10352W        W27199   4.895  13.864  12.276 -0.1039  0.0647 -0.1925
10353W        W27200   8.630  17.643   4.102  0.1038 -0.1784 -0.1011
10354W        W27201   3.354   2.769   3.846  0.0660  0.0077 -0.0426
10355W        W27202  11.855   0.681   3.284  0.4147  0.4850  0.2927
10356W        W27203  13.763  14.487  12.307  0.1167 -0.0873 -0.1297
10357W        W27204   9.684  12.013   6.166 -0.2628  0.1014 -0.0444
10358W        W27205   9.300  15.295  11.819 -0.1049 -0.0525  0.0215
10359W        W27206   9.516   1.712   5.435 -0.0832 -0.0671 -0.2277
10360W        W27207  14.815  16.442   2.827 -0.2348 -0.1882 -0.0959
10361W        W27208  17.862  11.073  14.621  0.1100 -0.1237 -0.1404
10362W        W27209  13.229  14.939  12.891  0.1506  0.1403  0.0370
10363W        W27210  18.417  16.552  12.248 -0.2856  0.0273  0.1708
10364W        W27211   3.545  17.795   0.657  0.1917  0.3213  0.3038
10365W        W27212   9.754   1.516   4.168 -0.0926 -0.0707  0.2071
10366W        W27213  14.863   1.764   1.469  0.2207 -0.1765 -0.3219
10367W        W27214  10.041   9.951   0.050 -0.2940  0.2364 -0.1027
10368W        W27215   9.688  13.537  14.861 -0.1163  0.0015 -0.2200
10369W        W27216   6.929  12.403  12.668  0.1039  0.0282 -0.0592
10370W        W27217   9.221   3.748  13.828  0.1565  0.0623 -0.2477
10371W        W27218  12.865   0.216   0.199 -0.2016  0.4528 -0.1641
10372W        W27219  15.576   5.939   0.079  0.1487  0.0298  0.0492
10373W        W27220  17.234  15.534  11.971  0.4509  0.5214 -0.0210
10374W        W27221   7.370   0.317   2.644 -0.2057 -0.1021  0.1481
10375W        W27222  11.662  13.340  14.247  0.1251  0.1039 -0.0510
10376W        W27223  12.537  10.443  11.544  0.1603  0.4802 -0.0940
10377W        W27224  11.392  17.897   4.520 -0.2301 -0.0885  0.0814
10378W        W27225   7.731   0.914  16.310 -0.2289  0.0551 -0.0605
10379W        W27226  13.662   1.050   1.541 -0.4148  0.1698  0.2265
10380W        W27227  14.614   1.040   1.845  0.0603  0.2177 -0.1580
10381W        W27228   7.990   6.336   4.283  0.1693  0.0085 -0.0781
10382W        W27229   2.710  16.118   2.731 -0.2503 -0.1240 -0.0512
10383W        W27230   3.562   6.314  12.023  0.1431  0.1226 -0.1298
10384W        W27231  17.971   6.242  15.471 -0.0924  0.2718 -0.3657
10385W        W27232   2.132   0.366   3.873 -0.0511 -0.2476  0.1635
10386W        W27233   4.996  17.949   5.386 -0.1412  0.2569 -0.0136
10387W        W27234  18.393  13.751  11.909  0.1452  0.2620 -0.0811
10388W        W27235   9.401   6.849   0.857 -0.2143  0.0673  0.1998
10389W        W27236  17.264   0.676   3.681  0.0570  0.2278 -0.1273
10390W        W27237  16.098   2.674  11.654 -0.1459  0.0700  0.1698
10391W        W27238   7.014   7.513  15.120 -0.1341 -0.2765  0.2467
10392W        W27239   2.961  11.368   3.776  0.1221  0.1727  0.1601
10393W        W27240   2.298  18.412  15.699  0.0846  0.2153 -0.1056
10394W        W27241  10.452  17.519  13.922 -0.0251  0.1589  0.2511
10395W        W27242   1.559  16.365   2.874 -0.2610  0.5562  0.2758
10396W        W27243   4.126  17.590  11.455  0.0322 -0.3047 -0.0986
10397W        W27244  14.629  11.293  12.736  0.0166 -0.0005  0.1646
10398W        W27245   7.681  13.473  16.003 -0.0553  0.1197  0.0639
10399W        W27246  17.382   7.409  14.564 -0.5066  0.0115  0.2923
10400W        W27247  18.365  11.308   5.132 -0.0920  0.1980  0.0490
10401W        W27248  17.214   3.043   4.055 -0.2865  0.0335  0.1351
10402W        W27249  16.786   4.224   1.326 -0.0227 -0.0131 -0.0958
10403W        W27250  17.132   0.233  14.031 -0.1418 -0.4544  0.0569
10404W        W27251   4.734  16.065   1.765 -0.0776  0.4217 -0.2569
10405W        W27252   9.855  11.198   5.904 -0.2997  0.0529  0.0104
10406W        W27253  13.443   6.438   1.962  0.0619  0.0399  0.0693
10407W        W27254  15.998   0.282  15.079 -0.0300 -0.1552  0.2181
10408W        W27255  12.446   1.881   1.212 -0.3256 -0.2464  0.5610
10409W        W27256  15.868   5.945  11.956 -0.1040  0.0529  0.1003
10410W        W27257  12.802   4.941   1.941 -0.1743  0.1321  0.0122
10411W        W27258   0.155  16.129   3.954  0.0749 -0.0846 -0.2560
10412W        W27259  10.971   6.958  15.879 -0.1080 -0.1786 -0.0759
10413W        W27260  11.814  14.492   2.455 -0.0470 -0.1782 -0.2443
10414W        W27261  13.892  15.199   3.799 -0.2260  0.1688 -0.1710
10415W        W27262  11.588   5.385  14.528 -0.1694  0.1675  0.2000
10416W        W27263  17.035  15.787   0.000  0.0068  0.1082  0.0975
10417W        W27264  16.462  10.846  12.048 -0.2381  0.0638 -0.3892
10418W        W27265   6.343   4.508  16.133  0.0490 -0.0818 -0.1952
10419W        W27266  12.899  17.203   1.734 -0.2392 -0.0232 -0.2281
10420W        W27267  11.262   3.166   5.521 -0.2079  0.0006 -0.1206
10421W        W27268   9.189   7.411  15.181  0.0585  0.0485  0.0107
10422W        W27269   4.449  11.629   2.306 -0.1976  0.1019  0.0482
10423W        W27270  14.670  15.485   3.427 -0.3776  0.1305 -0.0632
10424W        W27271  12.792  13.728  14.618  0.3673 -0.0053  0.0573
10425W        W27272   4.391   3.585  13.613  0.1204  0.0978  0.1649
10426W        W27273  13.101  11.828   2.077  0.0723  0.0944  0.1715
10427W        W27274  16.273  17.406   1.804  0.1278 -0.0776 -0.4233
10428W        W27275  18.183  13.632   0.543 -0.0755  0.0516 -0.2969
10429W        W27276  13.781   9.505  11.073 -0.2286 -0.2012  0.0492
10430W        W27277  17.031   6.869  12.396  0.1175 -0.0417  0.1264
10431W        W27278  17.741   7.604   3.493  0.1879 -0.0016  0.1693
10432W        W27279  14.183   5.764   1.823  0.0218 -0.0354  0.1326
10433W        W27280  15.672  15.737   2.019  0.0304 -0.1751 -0.2052
10434W        W27281   8.337   0.862   5.226 -0.2195  0.2748 -0.1679
10435W        W27282  10.682   5.194  14.589 -0.0558  0.1433  0.1959
10436W        W27283  11.963   4.159   4.672 -0.1031 -0.0394 -0.0040
10437W        W27284  16.966  16.125   1.765  0.0022  0.2323 -0.1358
10438W        W27285   4.960   7.107   2.999  0.2787  0.2184 -0.1810
10439W        W27286   8.130   9.688  12.202  0.1651  0.1171  0.4319
10440W        W27287   2.729  16.647   2.929  0.2207 -0.1323 -0.2485
10441W        W27288  14.404   2.481   2.653  0.0985 -0.3339  0.0582
10442W        W27289   0.430   5.427   4.058  0.0769 -0.0459  0.1769
10443W        W27290   4.986   1.435  14.686  0.0750  0.1033 -0.1232
10444W        W27291  12.094  17.900  15.517  0.2879 -0.0505 -0.1788
10445W        W27292  15.871   9.400  12.262  0.0752  0.1175  0.1509
10446W        W27293   5.166  14.869   3.453 -0.0964  0.2771  0.0453
10447W        W27294   5.287  15.499  13.845  0.0851 -0.0086  0.0288
10448W        W27295   2.609   9.048   4.025 -0.0504  0.3844 -0.0700
10449W        W27296   0.240   0.129  11.853 -0.0010  0.1168  0.1396
10450W        W27297   9.340   3.041   0.601 -0.1469 -0.2224  0.0092
10451W        W27298   1.518   9.190   1.987 -0.0626 -0.0542 -0.1217
10452W        W27299   8.483  17.285   1.983 -0.1840  0.1096  0.0992
10453W        W27300   8.965  17.546  14.456  0.0762 -0.1653  0.1174
10454W        W27301  12.060   5.290   3.952 -0.0739 -0.3476 -0.1110
10455W        W27302   8.829  13.455   5.283  0.1951 -0.2855  0.2277
10456W        W27303   8.003  17.394  12.538 -0.1932  0.1194  0.1043
10457W        W27304  15.456   9.743  15.419 -0.0022  0.1773 -0.0834
10458W        W27305   1.875   7.564   3.172 -0.2554  0.1340 -0.0999
10459W        W27306   0.670   2.874   4.462  0.2571 -0.0310 -0.1860
10460W        W27307   9.694   8.770  15.872  0.2847 -0.1567 -0.0637
10461W        W27308  13.102   1.280   4.934  0.0314  0.0266  0.3136
10462W        W27309   1.028  14.136   3.583  0.0252  0.0717 -0.1089
10463W        W27310   7.016  10.542   3.661  0.0291  0.3184 -0.2210
10464W        W27311   7.769   5.246   2.097  0.0991 -0.0541 -0.0968
10465W        W27312   5.934  15.321  16.340  0.1830 -0.0512 -0.1968
10466W        W27313   1.765   1.445  12.435 -0.2558 -0.0900 -0.0174
10467W        W27314   5.518  17.467  15.443 -0.2845  0.0699 -0.0479
10468W        W27315  17.519  18.152  14.773 -0.2358 -0.0290 -0.2074
10469W        W27316   8.934   6.575   1.541  0.2459  0.0316  0.0547
10470W        W27317  11.066   7.000   0.815  0.1181 -0.0163 -0.1331
10471W        W27318  17.191   2.887  14.550  0.2077  0.1493  0.1003
10472W        W27319  11.235  18.338  15.130  0.3058  0.0495 -0.1493
10473W        W27320   7.510   4.838  11.744 -0.1370  0.0925  0.0331
10474W        W27321  13.429   0.190   0.722 -0.0572  0.5249  0.3663
10475W        W27322  14.953   5.053  14.288 -0.1603  0.0224 -0.0556
10476W        W27323  11.954   7.643  11.296 -0.3154 -0.1205  0.1040
10477W        W27324   4.366   3.162   3.390  0.0292  0.0012 -0.1114
10478W        W27325  11.385  14.397   4.090  0.1341 -0.2388  0.3046
10479W        W27326   9.612   7.082   0.116  0.0336  0.0763 -0.2443
10480W        W27327  14.390  18.381   2.561 -0.0411 -0.2444  0.1027
10481W        W27328   2.274   7.780  13.909 -0.2851  0.3351 -0.0271
10482W        W27329  13.200   8.983   0.075  0.1598 -0.0379  0.1791
10483W        W27330   0.775  16.081   1.264  0.0618 -0.1386 -0.1936
10484W        W27331  12.460   7.020   5.504  0.1557  0.0312 -0.0659
10485W        W27332   6.550   1.009  12.880 -0.0944  0.0718  0.0813
10486W        W27333  11.174  11.809  13.528 -0.0728  0.1818 -0.0184
10487W        W27334   7.160   4.242   1.694 -0.1677  0.2519 -0.1287
10488W        W27335  14.317   1.629  15.220 -0.0972  0.0605  0.1067
10489W        W27336   5.408   7.656   4.632  0.0925  0.0212  0.3967
10490W        W27337   8.697  11.188   3.797  0.2637 -0.0873  0.1160
10491W        W27338  10.013   1.317  13.664  0.0515 -0.0197  0.2382
10492W        W27339   6.322   8.479   4.371 -0.0560 -0.0536 -0.1246
10493W        W27340  14.614  13.948   3.808 -0.0535 -0.0063  0.1251
10494W        W27341   1.520  16.533  12.508 -0.0296 -0.0992  0.3058
10495W        W27342   1.260  12.579  12.561 -0.1185 -0.0673  0.0826
10496W        W27343   6.014  18.164   3.314  0.0827  0.0489  0.0092
10497W        W27344   8.175  12.751  15.605  0.1112  0.0480 -0.2267
10498W        W27345  13.408  16.178   3.152 -0.1366  0.1319 -0.0337
10499W        W27346   0.999  16.926   2.913 -0.0208 -0.0055 -0.4077
10500W        W27347   6.365  18.155   5.589  0.2014 -0.3101  0.0826
10501W        W27348   9.289   9.085  16.144  0.0050  0.3135  0.0496
10502W        W27349   2.458   8.358   4.950  0.0112  0.0092  0.1483
10503W        W27350   2.779  12.027  14.128  0.2448 -0.0083  0.0253
10504W        W27351   1.420  10.302   2.063  0.1243  0.2247 -0.3974
10505W        W27352  15.562  15.177   5.451 -0.4120 -0.3794  0.0144
10506W        W27353  15.825  14.008  12.704 -0.1275  0.0972 -0.0828
10507W        W27354  11.280   7.547   1.575 -0.1846 -0.0859 -0.1675
10508W        W27355   3.751   9.599  14.114  0.1294 -0.0794  0.2391
10509W        W27356  11.847   4.177   2.335  0.1164 -0.0507  0.0263
10510W        W27357   0.844  16.275  12.607  0.0819 -0.0905  0.2341
10511W        W27358   6.272  10.070  15.680 -0.1320 -0.2077 -0.0678
10512W        W27359   0.030   8.945  12.863  0.0868 -0.2049 -0.1095
10513W        W27360   0.857   1.986   0.905 -0.3262 -0.1786 -0.1012
10514W        W27361   9.036   5.080   4.215  0.1724 -0.1740 -0.0022
10515W        W27362   7.080  16.205  15.151  0.3301 -0.3630  0.1990
10516W        W27363  13.602  17.250  12.042 -0.1305  0.1199  0.0801
10517W        W27364  10.712  12.127  14.257  0.3540  0.0640 -0.2190
10518W        W27365   9.074  10.101  16.185  0.0992  0.2549  0.0307
10519W        W27366   1.858  17.369  11.530 -0.1095 -0.0925 -0.0578
10520W        W27367  10.394   1.105   0.571 -0.1752 -0.0549  0.1128
10521W        W27368   0.578  16.485   4.694 -0.1283 -0.0493  0.5277
10522W        W27369   5.227  16.341  13.613 -0.2826  0.0763  0.4207
10523W        W27370   2.611  13.039   1.618  0.2232  0.1421  0.1146
10524W        W27371  14.394  18.100   4.699  0.1799  0.3270  0.0815
10525W        W27372  15.308  13.982   3.262  0.1515 -0.1975  0.0281
10526W        W27373   6.681  15.286   4.631  0.0442  0.0086 -0.0819
10527W        W27374  17.423  16.588   0.964 -0.1752  0.0608  0.3019
10528W        W27375  15.861  16.265   0.397 -0.0378 -0.1331  0.4476
10529W        W27376  14.245  13.692  13.078 -0.1217  0.2322  0.1987
10530W        W27377  10.472  14.798   5.376  0.1721  0.1374  0.0605
10531W        W27378   9.621   6.693   0.417 -0.1314 -0.2828  0.0040
10532W        W27379  11.501   7.269  15.170  0.3825  0.3452 -0.0816
10533W        W27380  11.838   3.262   0.012  0.0640 -0.1227 -0.0760
10534W        W27381  17.780  12.560   1.307  0.0553 -0.1114  0.1341
10535W        W27382   0.759  11.918  15.222 -0.1845 -0.0414  0.2457
10536W        W27383  15.138  14.896  15.487  0.0966 -0.3303 -0.1983
10537W        W27384   5.164  16.677  11.784 -0.0194  0.1952 -0.3770
10538W        W27385  12.586   1.324   0.605  0.0891  0.8303  0.0219
10539W        W27386  14.802   4.163   2.466 -0.0401  0.1844 -0.0971
10540W        W27387   1.066  14.380  13.491  0.1414  0.1438  0.3414
10541W        W27388   3.178   8.447  14.327  0.2183 -0.1469  0.0935
10542W        W27389   2.648   4.663  15.200  0.2550 -0.0095  0.0474
10543W        W27390   1.900  14.869  14.913  0.4100  0.1238 -0.0036
10544W        W27391   0.830  18.000  13.265  0.2094  0.2249 -0.0776
10545W        W27392   8.714   7.415  11.354  0.1877  0.2835  0.0934
10546W        W27393   5.204   9.353   3.999  0.0216  0.1001  0.3365
10547W        W27394  10.798   9.085   2.164  0.0357 -0.0189 -0.0972
10548W        W27395  17.853   8.358   0.867  0.0964 -0.2106 -0.1709
10549W        W27396  13.688  15.358  15.863 -0.0395  0.1526 -0.1049
10550W        W27397  17.712  14.322  13.099 -0.0941  0.1891 -0.3827
10551W        W27398   6.498  15.081   6.206  0.1004  0.0379  0.1059
10552W        W27399  12.091   9.639  15.054 -0.1473  0.2153  0.0525
10553W        W27400   2.714   7.707  13.595 -0.1276  0.2714 -0.1360
10554W        W27401   7.201   9.488  16.367  0.2073  0.0128 -0.1481
10555W        W27402  18.365   7.464   2.636  0.1451 -0.1716 -0.0331
10556W        W27403  16.075  12.013  16.039  0.1421  0.1760  0.0737
10557W        W27404   7.345   4.466  12.627  0.1779  0.1645  0.1190
10558W        W27405   8.451   2.881  11.416  0.1463  0.0394  0.1422
10559W        W27406   1.095   0.301   2.474  0.0091  0.0975 -0.1812
10560W        W27407   9.425   6.293   4.635  0.1686  0.0882  0.1044
10561W        W27408   2.831  11.760  15.433  0.1987 -0.0374  0.0488
10562W        W27409  12.590   2.495  13.568  0.1211  0.1215  0.1256
10563W        W27410  16.185   2.509  16.198  0.2792 -0.2493  0.0656
10564W        W27411  15.904  15.169   0.467  0.1489 -0.1474 -0.4816
10565W        W27412  17.992  10.403   1.410 -0.0564  0.3306  0.0995
10566W        W27413   0.909   8.546  11.932  0.0143  0.0362  0.3779
10567W        W27414  16.255   0.596   1.907  0.3185 -0.2138  0.1471
10568W        W27415   5.109  18.374   3.477 -0.1195  0.2444  0.0633
10569W        W27416   3.109  10.947  12.179  0.1814  0.3556 -0.0619
10570W        W27417   0.369   1.125  14.350  0.0618  0.2183 -0.3405
10571W        W27418   2.094   2.599   0.446  0.1969 -0.2576 -0.1250
10572W        W27419   0.343   3.715  14.143  0.4922 -0.0790  0.1519
10573W        W27420  18.316   8.761  11.419  0.1324  0.1826  0.5456
10574W        W27421  11.262  13.849   4.014  0.1782 -0.3072  0.0565
10575W        W27422   7.123   3.773  13.041  0.0319 -0.3368 -0.4227
10576W        W27423  17.911   8.700   2.784 -0.0821  0.1400  0.0564
10577W        W27424  16.980   2.163   2.675  0.0450 -0.0490 -0.2557
10578W        W27425  12.852  11.478   5.751 -0.1074 -0.0386 -0.2666
10579W        W27426  15.460  16.080   0.154 -0.1596 -0.2028 -0.1744
10580W        W27427  17.296  11.085  11.419  0.0488  0.1032 -0.0233
10581W        W27428  14.592   7.733   0.420 -0.0710  0.1782  0.1118
10582W        W27429  16.791   4.591   4.141 -0.2814 -0.0612 -0.2397
10583W        W27430  10.407   4.541  13.786  0.0287 -0.0302  0.2092
10584W        W27431  13.950  12.163   5.198  0.2637  0.1842  0.2650
10585W        W27432  15.675   0.430   4.018  0.2351 -0.0836  0.1399
10586W        W27433  14.358   6.892  16.333  0.2019 -0.1455  0.0372
10587W        W27434   7.798   2.377   5.234  0.2243 -0.0836  0.0304
10588W        W27435  14.038  18.304  16.354 -0.1828 -0.0788  0.1199
10589W        W27436   6.759   6.666  14.101 -0.0060 -0.0294  0.1324
10590W        W27437  14.621   2.102   1.766  0.3078 -0.3598 -0.0105
10591W        W27438  14.148  16.485   2.083  0.4057 -0.2436 -0.3949
10592W        W27439  11.674  16.416  14.484  0.2070  0.1673 -0.0263
10593W        W27440  12.035   8.046   5.205  0.3146 -0.1128 -0.0054
10594W        W27441   5.074  13.129  12.863 -0.1106  0.4308 -0.2028
10595W        W27442  12.134   8.800  16.174  0.3891 -0.2825 -0.2613
10596W        W27443   9.609  14.760  11.745  0.0231  0.2096 -0.1123
10597W        W27444  18.321   4.005  12.809 -0.2942  0.3640 -0.1437
10598W        W27445  13.388  10.448  16.107 -0.0578  0.2293  0.0763
10599W        W27446  17.731  12.679  11.593 -0.2878  0.1152  0.0173
10600W        W27447  11.029   8.439   3.093  0.0685 -0.1217 -0.0647
10601W        W27448   0.070   2.516  11.367  0.0966  0.0908 -0.2377
10602W        W27449  15.567  13.204   2.663 -0.1240  0.0364  0.3499
10603W        W27450   9.544   2.921  12.204 -0.3056  0.4406 -0.4657
10604W        W27451  17.248   7.557  11.305 -0.1524 -0.0086  0.3187
10605W        W27452  17.275   9.807  13.546  0.0705  0.0914  0.0580
10606W        W27453   4.396  15.604  11.849 -0.0484 -0.1215  0.0210
10607W        W27454   4.377  11.671  15.423  0.0444  0.2156 -0.0281
10608W        W27455  10.134   2.200   4.750  0.2595 -0.2295  0.2583
10609W        W27456  12.201  17.215   0.365 -0.2107 -0.0913  0.4109
10610W        W27457   8.399  13.119   4.991 -0.2027  0.1621 -0.0996
10611W        W27458   8.311   4.692   0.617 -0.1596  0.2810  0.1589
10612W        W27459   4.317   8.194   3.071  0.0528  0.0245  0.2928
10613W        W27460  15.070   8.546  16.044 -0.1546 -0.1160 -0.1104
10614W        W27461  14.091   9.848   0.323 -0.2699  0.1475  0.3879
10615W        W27462   3.224   3.420   0.545  0.2068  0.2954 -0.0237
10616W        W27463  13.275  14.393  13.021 -0.0249 -0.2089 -0.0721
10617W        W27464  14.366   7.577  15.173 -0.1590  0.1685  0.0057
10618W        W27465   8.811  14.005   0.058  0.1273 -0.2471  0.2876
10619W        W27466  10.085  11.758  11.993  0.0940 -0.2343  0.0669
10620W        W27467  11.455  13.353   0.472  0.0431 -0.0657 -0.4754
10621W        W27468   2.481   8.242  16.150  0.0323  0.0593 -0.2867
10622W        W27469  14.211   5.946   0.702  0.0334  0.4126  0.1271
10623W        W27470  11.435   5.822  11.962 -0.2120  0.2956 -0.1674
10624W        W27471   8.016  13.855   1.316  0.1341 -0.1639  0.1204
10625W        W27472  12.422  14.510   5.908 -0.0914 -0.1599  0.0022
10626W        W27473   5.446  11.177  15.007  0.0309 -0.5799  0.1760
10627W        W27474   7.491  13.030   5.578  0.1176 -0.1692 -0.1842
10628W        W27475  12.655   7.572  16.165  0.0958  0.1600  0.2396
10629W        W27476   9.224  14.714   5.030  0.1910 -0.1763 -0.1961
10630W        W27477  11.244   9.953  14.825  0.1197  0.1806 -0.0809
10631W        W27478  11.766  18.011   5.373 -0.1170  0.1785 -0.0107
10632W        W27479  14.761   5.540   0.383  0.1425  0.2183 -0.0512
10633W        W27480   1.140   9.463   0.233  0.0360 -0.0039  0.2701
10634W        W27481   3.536   7.305   0.607 -0.2522 -0.0446  0.1237
10635W        W27482  10.353   8.217  16.146  0.1297 -0.0023  0.1729
10636W        W27483  14.275   7.471   0.680 -0.2388 -0.1506  0.1547
10637W        W27484  15.818   7.418  11.433 -0.1525 -0.0084 -0.2792
10638W        W27485  14.482   6.124   2.456 -0.1075 -0.0432  0.0121
10639W        W27486  12.763  12.318   5.285  0.2621 -0.1087  0.2337
10640W        W27487   3.269  17.541  13.662  0.1706  0.2342  0.0105
10641W        W27488   7.930   4.426  12.715  0.0211 -0.4514 -0.2095
10642W        W27489  17.696  10.751  15.573 -0.2835 -0.2623 -0.0671
10643W        W27490  13.245   0.221   3.321 -0.0903 -0.1013  0.3113
10644W        W27491   6.605   8.770   1.919  0.1574  0.2240 -0.2386
10645W        W27492  11.098   8.209  11.308  0.1195  0.1586 -0.4762
10646W        W27493   3.174  14.573   5.409 -0.0218 -0.1010  0.1862
10647W        W27494  15.820   9.277  15.716 -0.2878  0.0521  0.0002
10648W        W27495  14.307   4.222   1.451  0.2947  0.0884  0.0131
10649W        W27496   3.267   6.686  12.269 -0.1703  0.0345  0.1668
10650W        W27497  17.540  15.073  13.348 -0.0503 -0.2204 -0.2165
10651W        W27498   3.214  10.110  13.435  0.0089 -0.2316  0.0276
10652W        W27499  17.536   1.165   1.731 -0.0767  0.0592  0.2199
10653W        W27500   6.203   4.274  13.389  0.2054  0.1369 -0.1576
10654W        W27501  18.384   9.411  12.779  0.0510  0.2860 -0.2636
10655W        W27502  15.908   1.437  14.118  0.4890  0.1609  0.0245
10656W        W27503  17.785  18.211   0.170 -0.0853 -0.0161 -0.0501
10657W        W27504  16.053   0.435  13.085  0.3228  0.0900  0.1732
10658W        W27505   4.494  12.174  14.242  0.0077 -0.0955  0.2230
10659W        W27506   1.062   3.580  13.429  0.0284  0.0116 -0.0792
10660W        W27507  15.211   3.420  15.473 -0.0092  0.2062 -0.1460
10661W        W27508  10.963   6.278   4.596 -0.4162  0.1258 -0.2093
10662W        W27509  16.745  10.002  15.097 -0.0775 -0.1336 -0.0242
10663W        W27510  12.498  14.935   2.195 -0.3021 -0.1606 -0.1895
10664W        W27511   1.362   9.379  10.896 -0.0342  0.0490  0.0140
10665W        W27512   0.110  14.023  15.643  0.0206 -0.1160 -0.0874
10666W        W27513   5.657   1.183   4.869  0.0302  0.1924 -0.0815
10667W        W27514  11.833   7.313  15.530  0.1204 -0.1931  0.1035
10668W        W27515   1.691  10.444  15.296  0.0515 -0.0237  0.1579
10669W        W27516  14.718  17.433   2.912 -0.0290 -0.0202  0.2400
10670W        W27517   8.968  12.402  13.451  0.1589  0.1531 -0.0216
10671W        W27518  17.437  13.238   2.303 -0.2849  0.0109 -0.0638
10672W        W27519   5.744   3.264   4.622 -0.2620  0.1604  0.3291
10673W        W27520   3.062   5.482  11.145  0.1766 -0.1490 -0.2808
10674W        W27521   8.003   9.186  11.469  0.0864 -0.1699  0.0749
10675W        W27522   2.542  14.635  12.543  0.0332 -0.0692 -0.1665
10676W        W27523   4.652   5.205  12.444 -0.0798  0.1445 -0.1608
10677W        W27524   5.020   2.501  16.161 -0.0298  0.1626  0.4819
10678W        W27525   2.634  11.737   3.776 -0.2399 -0.0511  0.2746
10679W        W27526   1.172  14.352  15.995 -0.0184 -0.1823 -0.0801
10680W        W27527  11.150  11.802   0.371  0.4795 -0.2228  0.0654
10681W        W27528   6.072   8.579  14.245 -0.0727  0.3057 -0.3253
10682W        W27529  18.148   3.138   0.857  0.1962 -0.1495  0.2738
10683W        W27530  16.264  14.962   1.870 -0.0842 -0.0064 -0.0283
10684W        W27531   8.660  13.201   2.752  0.2099  0.3315 -0.1459
10685W        W27532  11.657  18.156  15.439 -0.0136 -0.2610 -0.2407
10686W        W27533   4.825  14.328  12.048  0.2664  0.1689  0.0420
10687W        W27534   9.262   6.463  13.796  0.3259 -0.2588 -0.4085
10688W        W27535   4.142   9.385   4.364  0.1980  0.0846  0.0520
10689W        W27536   2.305   6.186   1.070  0.0134 -0.2826  0.0364
10690W        W27537   5.085   8.369  11.577 -0.2734  0.1325  0.1108
10691W        W27538  10.961   5.861  15.302  0.3038 -0.2734  0.0209
10692W        W27539  10.942  16.284   1.532  0.2871  0.2070  0.1599
10693W        W27540   0.098  15.068   1.364 -0.0605  0.2275  0.0062
10694W        W27541   8.740  12.580   1.301 -0.0439 -0.1986  0.0364
10695W        W27542   4.393   5.585   4.386  0.1660 -0.0309  0.0347
10696W        W27543   6.239   4.009  16.335 -0.3662  0.1115  0.1629
10697W        W27544   2.639   7.514  13.105 -0.1088 -0.1046  0.2073
10698W        W27545  14.737   4.187   0.205  0.0892 -0.1320 -0.1642
10699W        W27546   0.866   0.479   1.249 -0.0223 -0.0591 -0.1540
10700W        W27547   8.498  18.347  14.008 -0.1085 -0.1249 -0.0591
10701W        W27548   9.134   1.194   1.180 -0.0787 -0.2228  0.3714
10702W        W27549   9.135   4.718  12.922  0.1211  0.0530  0.1028
10703W        W27550  12.493  17.880  12.318  0.3329  0.1901  0.2061
10704W        W27551   1.460   2.905   1.675 -0.4392 -0.1424 -0.0374
10705W        W27552  13.413   0.561   4.671 -0.1547 -0.1266 -0.4898
10706W        W27553   2.212  16.081   5.579  0.1179  0.0908  0.3039
10707W        W27554  13.276  12.190  15.661  0.1799 -0.1908  0.0352
10708W        W27555   0.127   4.963   4.506 -0.0479 -0.1773  0.2439
10709W        W27556   5.742  13.730   1.641  0.3011  0.0785 -0.3127
10710W        W27557  11.856  17.306   4.305  0.2200 -0.1094 -0.0761
10711W        W27558  13.152   6.337  14.942  0.2587  0.1386  0.0776
10712W        W27559  13.557  18.249   3.547 -0.4373 -0.3351  0.0863
10713W        W27560  16.529  16.976   4.987 -0.0795  0.1699  0.1642
10714W        W27561   6.265   4.908   3.085 -0.3258 -0.1989 -0.4158
10715W        W27562  12.489   4.112   1.740  0.0868 -0.1185  0.1987
10716W        W27563   7.086   5.102  13.611  0.0210 -0.0652  0.3373
10717W        W27564   1.168  16.503   3.116 -0.0969 -0.2220 -0.1428
10718W        W27565  10.146  13.305   5.505  0.1833  0.0611  0.0634
10719W        W27566   4.955   8.281  14.546 -0.3824 -0.0121 -0.1569
10720W        W27567   5.063   6.124  15.346  0.0856 -0.1189 -0.0654
10721W        W27568  11.776   9.680  15.504 -0.1775  0.1736  0.2306
10722W        W27569   1.701   5.071  12.662 -0.1028  0.1748  0.0239
10723W        W27570  18.309  14.428  11.901 -0.0234 -0.2597 -0.1231
10724W        W27571   0.805   3.789  12.869  0.4095  0.0089  0.0304
10725W        W27572  16.959  13.966   5.451 -0.1004  0.1233  0.3893
10726W        W27573  16.618   1.261  11.740  0.1126 -0.2119  0.0729
10727W        W27574   9.358  10.557   3.434 -0.1280  0.3947  0.2703
10728W        W27575  15.502   9.794  11.264  0.1185  0.0051  0.2073
10729W        W27576   0.254  11.546  12.179 -0.0455  0.1430  0.0684
10730W        W27577  17.858  10.538   4.417  0.0857  0.2582  0.0737
10731W        W27578   5.457  11.706  16.357 -0.0390 -0.1280 -0.0246
10732W        W27579  13.985  18.291  14.739  0.0150  0.1443 -0.1133
10733W        W27580   5.207   8.763   3.114 -0.1997 -0.0698 -0.3108
10734W        W27581  16.517   4.292   1.883 -0.0803  0.2725 -0.4677
10735W        W27582   1.446   5.356  14.915  0.0940  0.2916  0.0627
10736W        W27583   6.662   3.805  12.205  0.2644 -0.2035  0.1731
10737W        W27584   1.977  17.124  11.996  0.3534 -0.0981 -0.2134
10738W        W27585   6.757   3.441   2.716 -0.2673 -0.1683  0.0407
10739W        W27586   5.958   7.819  14.553 -0.0795 -0.1421 -0.1995
10740W        W27587  12.616   9.190   0.288  0.0117 -0.0771 -0.1178
10741W        W27588  10.543   3.946   1.511 -0.1111 -0.3559 -0.2254
10742W        W27589  12.428   6.726  12.366  0.1042  0.2157 -0.1636
10743W        W27590   5.185   9.248  13.575  0.1245 -0.2266 -0.1987
10744W        W27591  14.902  17.758   4.132  0.0597  0.0430  0.3789
10745W        W27592  12.206   8.811   1.184 -0.0695  0.0058 -0.0916
10746W        W27593  10.823   9.362  16.108  0.0012  0.2758 -0.1388
10747W        W27594  11.745  15.878   5.759  0.0356  0.1447  0.1343
10748W        W27595   3.084  11.560  14.950 -0.3287 -0.0324  0.2375
10749W        W27596   3.415   1.043   1.223 -0.1229  0.3046  0.0299
10750W        W27597  12.567  18.346  12.067 -0.1233 -0.1030  0.0305
10751W        W27598  15.608   3.148  13.504 -0.1992  0.1017  0.1380
10752W        W27599  16.962   4.841   4.586  0.1163 -0.1766  0.2100
10753W        W27600   3.160   0.064   0.119  0.0772 -0.1306 -0.0746
10754W        W27601   6.867  18.147   0.475 -0.1006  0.0989  0.1182
10755W        W27602  11.432   7.084  15.786 -0.5272 -0.1938  0.2472
10756W        W27603  16.606  15.413  14.309 -0.3495 -0.0376 -0.2857
10757W        W27604   7.733  18.035  11.772  0.0503 -0.0844  0.1927
10758W        W27605   8.402  17.609  11.622 -0.0028 -0.1754  0.2309
10759W        W27606  16.985  14.175  15.794 -0.0382 -0.1720  0.1256
10760W        W27607   7.751  14.622   4.478 -0.1640 -0.1819  0.2948
10761W        W27608  11.849  12.527   1.041  0.1816 -0.1123  0.2556
10762W        W27609  11.205   9.423   2.350 -0.2840 -0.1711  0.1207
10763W        W27610   4.959   9.437   0.922  0.0377  0.1444 -0.0393
10764W        W27611  16.011   2.830  13.354  0.1855  0.1043 -0.3412
10765W        W27612  18.091  11.216  12.969 -0.1152  0.4429  0.2749
10766W        W27613   8.736  14.883   0.226  0.0664  0.2594 -0.0562
10767W        W27614   9.278   5.096   2.552 -0.0714  0.2055 -0.0025
10768W        W27615   4.565   5.166  15.959  0.1216  0.0457  0.3190
10769W        W27616  15.228   4.248  10.759  0.0320 -0.3286  0.2231
10770W        W27617  15.243  15.814  11.777 -0.0312 -0.2094 -0.4547
10771W        W27618   6.145   1.131  15.772  0.2282 -0.2619  0.1363
10772W        W27619   3.014   2.017   3.568 -0.0529  0.0606  0.2326
10773W        W27620  10.826  10.132   3.962 -0.1417  0.2034 -0.3329
10774W        W27621  12.513   8.612  11.618  0.0464  0.3216  0.2387
10775W        W27622  10.211   3.344  15.323 -0.0744 -0.0709 -0.0412
10776W        W27623  15.569  11.169   4.706  0.0211 -0.0423 -0.0039
10777W        W27624  13.845  18.171   0.562 -0.2148  0.1279 -0.1158
10778W        W27625   4.409  18.087  15.804 -0.1777 -0.1667  0.2178
10779W        W27626  17.708  10.504   0.082 -0.3048 -0.0765  0.1716
10780W        W27627   9.658   4.046   0.537 -0.1690 -0.1845  0.2547
10781W        W27628   1.729   3.893  13.147  0.3245  0.0369 -0.0046
10782W        W27629  18.331   6.906  13.881  0.0959 -0.1204  0.0835
10783W        W27630   0.467  10.033   0.739 -0.3334  0.4406  0.1437
10784W        W27631  10.465  16.195  14.464 -0.0961 -0.1864  0.0553
10785W        W27632   1.555   2.395  14.670  0.1857  0.0947  0.1620
10786W        W27633   9.311  18.096   4.151 -0.1597 -0.1543  0.1124
10787W        W27634   1.827   2.747  12.790 -0.0572  0.0554 -0.1386
10788W        W27635   6.497   2.026  15.534  0.1212 -0.0362 -0.0450
10789W        W27636   6.673   7.011   1.305  0.2161 -0.5560  0.3579
10790W        W27637   7.903  15.755  15.860  0.1166  0.1020 -0.0613
10791W        W27638   2.901   6.404  12.431  0.2368  0.0201  0.1131
10792W        W27639   7.268  12.719   1.274 -0.1797  0.0386 -0.1175
10793W        W27640   6.965   6.236   2.675 -0.0253 -0.1627 -0.1731
10794W        W27641   7.822  11.039  15.565  0.0579 -0.1986 -0.1826
10795W        W27642   3.489  15.575  12.447  0.1178 -0.4952  0.4360
10796W        W27643  15.631   5.371  11.565  0.0374  0.1424  0.0062
10797W        W27644  13.727  17.435   3.059 -0.2718  0.1551 -0.1223
10798W        W27645  13.532  12.194   2.030  0.0595  0.3184  0.1143
10799W        W27646  15.005   3.814  13.493 -0.1891  0.2107  0.2203
10800W        W27647  16.572  13.536   3.400 -0.0764  0.1168  0.4051
10801W        W27648   9.973   5.425  16.351  0.0152  0.0137  0.2614
10802W        W27649   4.755  17.974  12.132 -0.0762 -0.0245 -0.1171
10803W        W27650  17.087   2.916   1.157  0.4907 -0.3001  0.0300
10804W        W27651  16.690  16.820   0.190  0.2234  0.0181  0.1322
10805W        W27652   6.503  11.965   5.000  0.3267  0.1639 -0.2725
10806W        W27653   4.774  15.924  12.936 -0.0698  0.1738  0.1208
10807W        W27654   2.167  12.443   4.567 -0.3649 -0.0240 -0.1605
10808W        W27655   2.027   1.134   3.312  0.1266  0.1132  0.4641
10809W        W27656  13.900   2.441   4.502 -0.2553 -0.4388 -0.0398
10810W        W27657   2.032   8.936   0.485  0.1741  0.1168 -0.1516
10811W        W27658   6.957   5.021   5.175  0.0740 -0.0506  0.0696
10812W        W27659   8.490  10.616   1.169 -0.1410  0.3709  0.4735
10813W        W27660  11.172   6.744   4.786  0.2148  0.2854  0.1823
10814W        W27661  14.718  16.336  13.221  0.1319  0.0484 -0.2829
10815W        W27662  11.644   9.338  14.266 -0.1167  0.2791 -0.2467
10816W        W27663  14.513   7.409  16.367  0.1286 -0.1143  0.0109
10817W        W27664  17.045   9.290   4.207 -0.0767 -0.2422 -0.0312
10818W        W27665   1.918  10.520   2.034  0.0210  0.1473 -0.4168
10819W        W27666   7.294  10.018   0.876  0.0750 -0.0374  0.1100
10820W        W27667   2.366   0.168  11.006 -0.0070  0.2577 -0.0701
10821W        W27668  11.766   2.991  11.436 -0.0015  0.2586  0.0758
10822W        W27669  11.102  15.833   4.104  0.0871  0.2623  0.2230
10823W        W27670  17.680  11.839   0.681 -0.0804  0.0223  0.1752
10824W        W27671   6.747   9.276   1.943 -0.0430 -0.0801 -0.1005
10825W        W27672   6.215  10.640  16.344  0.0661  0.3120 -0.1368
10826W        W27673   9.086   7.046   3.728  0.2397  0.1777 -0.0554
10827W        W27674   6.258   2.338  14.723 -0.2196  0.4860  0.0762
10828W        W27675   4.639   2.039  12.563  0.0414  0.0370  0.0415
10829W        W27676  13.653  16.250  14.861  0.1519 -0.0266  0.2898
10830W        W27677  11.302   8.630  14.295 -0.0378  0.0007 -0.3694
10831W        W27678   0.475   4.369   1.744 -0.2159  0.0969  0.1033
10832W        W27679  12.042   2.575  11.504  0.0091  0.0586  0.3086
10833W        W27680  13.319   7.473   4.124  0.0887 -0.2070  0.0597
10834W        W27681   7.781   8.411   2.494  0.0181 -0.0589  0.0614
10835W        W27682   2.609   0.444   4.159  0.0015  0.1043  0.2724
10836W        W27683  17.956   2.721  10.585  0.2391  0.1278 -0.2160
10837W        W27684   8.252   1.510   5.074 -0.0554  0.1845 -0.3468
10838W        W27685  11.562   3.718  16.183  0.1519 -0.1422 -0.0349
10839W        W27686   1.040  14.860   2.261 -0.1370  0.0425  0.1542
10840W        W27687   0.400   8.131   2.036  0.0309  0.0809 -0.0032
10841W        W27688   1.782   6.358   1.793  0.2304 -0.2571  0.1329
10842W        W27689   9.180   2.542   2.207  0.0505 -0.1079 -0.2057
10843W        W27690   8.788   0.104  14.824  0.1683 -0.1415 -0.0792
10844W        W27691  17.443  10.599   2.281  0.0505 -0.3029 -0.3447
10845W        W27692   8.898  10.432   6.238 -0.2089 -0.2818  0.0367
10846W        W27693   8.098  15.288   1.877 -0.0703  0.1896  0.1633
10847W        W27694   6.604  16.134   1.415 -0.0685  0.4011 -0.4323
10848W        W27695  13.790  17.461   4.918  0.1878  0.2666  0.2009
10849W        W27696   5.236   8.687   4.580  0.1040  0.2390 -0.2481
10850W        W27697  11.489  15.594  13.985 -0.0227 -0.2334  0.0655
10851W        W27698   8.145  17.183   4.431  0.1773  0.1167 -0.0902
10852W        W27699  10.079   6.887  14.079  0.0125 -0.1087 -0.0981
10853W        W27700   9.549  17.314   1.259 -0.2678  0.1599  0.1763
10854W        W27701   4.752  15.242   4.013  0.1963 -0.2593  0.1193
10855W        W27702   7.884  10.277   1.575 -0.1130 -0.1403 -0.1034
10856W        W27703   2.969   4.526   1.462 -0.1480 -0.0061 -0.0652
10857W        W27704  11.926  15.869   0.711 -0.1510  0.0973  0.1033
10858W        W27705   0.239  10.859   3.234 -0.0432 -0.2516  0.0733
10859W        W27706  15.049  12.961  13.185 -0.1549 -0.0985 -0.0971
10860W        W27707  15.788   1.311   3.195  0.3132 -0.2571 -0.2211
10861W        W27708   1.228  15.734   1.304 -0.4657  0.2299 -0.1397
10862W        W27709  15.139   9.434  10.896  0.0424  0.2325 -0.1038
10863W        W27710   0.562  11.336  11.866 -0.2314  0.2056  0.0618
10864W        W27711  14.627   2.282  11.949 -0.1289 -0.1485 -0.1232
10865W        W27712   1.784   4.173   1.344  0.0532  0.2089  0.4783
10866W        W27713  13.293   9.650  14.322  0.1617  0.3374 -0.0150
10867W        W27714  12.092   9.946   1.247  0.1084  0.1702  0.2074
10868W        W27715   1.047   6.140   3.108  0.1322  0.1976  0.0845
10869W        W27716  14.323   2.829   3.067 -0.1910  0.1513 -0.1435
10870W        W27717  14.818  10.162  13.404  0.2424  0.3672 -0.2961
10871W        W27718   2.061  17.002  15.278  0.0198  0.0146  0.3246
10872W        W27719   1.246  11.647  11.371  0.2377 -0.0097  0.0186
10873W        W27720   0.471  17.870   1.964  0.0926 -0.3028  0.2087
10874W        W27721  18.127   3.222   0.042 -0.0507  0.0448  0.0676
10875W        W27722   2.018  16.014   0.023 -0.4043  0.0146  0.0794
10876W        W27723   9.633   4.537   4.876 -0.1577 -0.1437  0.0331
10877W        W27724   6.617   4.989  16.239  0.0924  0.0171  0.1795
10878W        W27725   8.371  14.582   4.437  0.0796 -0.1208 -0.1005
10879W        W27726   7.491   0.949  13.989 -0.0464  0.1717  0.2693
10880W        W27727   8.578   1.502  15.369 -0.0363  0.0043  0.1959
10881W        W27728  14.976  11.824   0.439 -0.1744  0.0887 -0.2445
10882W        W27729   8.755  16.169  14.580  0.1365 -0.2326 -0.2010
10883W        W27730  12.731  10.700  11.883 -0.4420 -0.0268 -0.2575
10884W        W27731   1.624   7.224  15.113 -0.3260 -0.0472  0.0022
10885W        W27732   8.471   2.703   5.379  0.3145  0.1322 -0.0786
10886W        W27733  18.084  10.064  14.935 -0.2566 -0.0220 -0.1190
10887W        W27734  14.479   9.280  11.876  0.0388  0.1997  0.0634
10888W        W27735  14.489   4.722  14.359  0.0452  0.0126  0.4873
10889W        W27736  10.325   2.052  15.717  0.2252 -0.1293  0.0433
10890W        W27737   5.357  13.928  12.748 -0.0971 -0.1261  0.2493
10891W        W27738  16.423  12.505   5.288 -0.2531 -0.0676  0.1187
10892W        W27739  15.360   8.811   2.385  0.3332  0.0685  0.1701
10893W        W27740   6.801   0.803  14.296  0.0346  0.1534 -0.0926
10894W        W27741   6.715   3.515   0.383 -0.1271 -0.4286 -0.1932
10895W        W27742   8.491  13.128   2.240 -0.2280 -0.1363  0.2301
10896W        W27743  15.823   1.820  15.976 -0.0189 -0.1184  0.1016
10897W        W27744   2.954  17.026  11.872  0.1034 -0.1954  0.1440
10898W        W27745   1.932   6.978  11.269  0.2694  0.0107 -0.2684
10899W        W27746   6.830  13.511  16.266 -0.0221  0.2319 -0.0209
10900W        W27747   9.267  16.712  15.628 -0.0159 -0.0128 -0.0135
10901W        W27748   0.058   9.171  13.409 -0.0229  0.2468  0.3931
10902W        W27749  16.494   6.296   4.654 -0.1411 -0.2842  0.0818
10903W        W27750   7.269  13.177  12.230  0.0539 -0.1346 -0.1548
10904W        W27751   0.546  11.642  13.873  0.0532  0.3474  0.1212
10905W        W27752  15.962   6.276   2.046 -0.0368  0.2688 -0.2770
10906W        W27753   0.217  12.046  16.041 -0.0786  0.3009  0.1178
10907W        W27754  16.257  10.002   4.833 -0.1067 -0.1885  0.1818
10908W        W27755  13.664  15.226   4.581 -0.1381  0.0359 -0.1423
10909W        W27756  10.803  18.243   2.486 -0.3762  0.2141  0.2701
10910W        W27757   2.338   8.957   3.482  0.0832 -0.0350 -0.1711
10911W        W27758   3.985  16.020  14.200 -0.2130  0.1110  0.1910
10912W        W27759  16.600   2.587   2.837  0.2192  0.0872  0.0859
10913W        W27760   3.928  13.694   3.690 -0.3801 -0.0492  0.3237
10914W        W27761  12.852  12.505  14.422  0.0568  0.1117 -0.0101
10915W        W27762  14.372  17.304   2.582  0.1307  0.0067 -0.1667
10916W        W27763  14.933   1.740   0.132 -0.0972  0.4356 -0.5643
10917W        W27764  11.910   3.779  15.118 -0.1288  0.3021 -0.1424
10918W        W27765  16.086   1.536   5.150  0.1522 -0.0671 -0.1140
10919W        W27766  11.499  13.172   2.698  0.6661 -0.1572  0.1246
10920W        W27767  17.247   8.794  11.352  0.2332 -0.0875 -0.1944
10921W        W27768  17.658   4.839   1.516  0.1747  0.1330  0.1839
10922W        W27769   5.278  13.988   4.542  0.0479 -0.0193  0.2727
10923W        W27770   9.100  12.168   1.330 -0.1838  0.1080  0.1986
10924W        W27771   3.266   9.872  16.232  0.3341 -0.0787 -0.1411
10925W        W27772   1.649   2.580  13.207 -0.0292  0.1188 -0.2340
10926W        W27773   4.736   1.266  13.778  0.1539 -0.0908 -0.0854
10927W        W27774  13.505   2.271  15.324 -0.0149 -0.2288  0.1695
10928W        W27775   7.491  14.647   4.033 -0.1805 -0.0117 -0.0416
10929W        W27776  11.702  13.424  13.186  0.1687  0.0936  0.0992
10930W        W27777  11.992  11.215  15.370  0.0449  0.0314 -0.0946
10931W        W27778   8.573   3.333  16.289  0.0240 -0.1439  0.1326
10932W        W27779   5.775  14.937   1.079 -0.0298  0.3375  0.2823
10933W        W27780   5.515   7.169   5.111  0.1422  0.1155  0.1560
10934W        W27781   3.255   9.156   0.488 -0.0323  0.0068 -0.1007
10935W        W27782   1.459   1.832  13.574 -0.1558 -0.2904 -0.0095
10936W        W27783   0.759  15.855  12.312  0.0394  0.1350  0.3633
10937W        W27784  10.819   0.810  15.490  0.1818  0.1315 -0.3029
10938W        W27785   9.136  17.360  13.614 -0.2377 -0.3183  0.2909
10939W        W27786   7.105   2.007  11.796  0.0919 -0.2645  0.2294
10940W        W27787   8.286  12.339  14.149  0.2474 -0.1344 -0.1899
10941W        W27788  11.694   6.374  16.126 -0.1255  0.2252  0.0538
10942W        W27789  10.633   6.629   4.687  0.0825  0.1719  0.0280
10943W        W27790   6.216  17.685  12.168  0.0261 -0.0631  0.0498
10944W        W27791   4.467  13.719  12.859 -0.0511  0.4271 -0.1954
10945W        W27792   0.675   0.700   5.185 -0.0933  0.1420  0.1646
10946W        W27793   0.502   7.830  12.939 -0.2193  0.1527 -0.2998
10947W        W27794   4.356   1.721   4.484 -0.3859 -0.1990  0.0455
10948W        W27795  10.806  17.033  15.367  0.2072  0.0310 -0.2733
10949W        W27796  14.281  16.066   3.850 -0.0999 -0.1659  0.3072
10950W        W27797  18.252  15.676  14.923  0.0843  0.3014  0.2355
10951W        W27798   8.711  14.213   1.598 -0.1519 -0.4368  0.1586
10952W        W27799   6.984   5.254  12.642 -0.1014 -0.0782 -0.1807
10953W        W27800   4.035  16.372  12.318  0.1247 -0.0486  0.1147
10954W        W27801  12.611   9.549   5.315 -0.4685  0.1031  0.1042
10955W        W27802   9.519   8.451   2.386 -0.0478  0.1737  0.0430
10956W        W27803   0.673   6.138   5.237  0.2181  0.3994  0.0923
10957W        W27804  18.107   6.774   2.659  0.2592  0.1631 -0.1585
10958W        W27805  16.681  14.480  12.955 -0.2278 -0.0420 -0.3236
10959W        W27806  12.315  13.087  11.891 -0.2747 -0.0392  0.2616
10960W        W27807  17.102  14.609   2.554  0.1126 -0.3667 -0.0283
10961W        W27808   3.126   0.573  13.217 -0.1796 -0.1271  0.1736
10962W        W27809   8.753   9.135  13.036  0.0623 -0.0881 -0.1033
10963W        W27810   1.820   9.182   4.953  0.1380 -0.2719  0.1647
10964W        W27811  14.478   1.502  13.812 -0.1121 -0.0373 -0.0911
10965W        W27812  12.284   2.605  10.959  0.1017 -0.0951 -0.0098
10966W        W27813   2.325   2.749  12.699 -0.0818  0.0801 -0.1824
10967W        W27814  15.240   8.723   2.875 -0.2438 -0.0831  0.1983
10968W        W27815  10.503  17.183   1.684 -0.1103  0.2076 -0.0029
10969W        W27816  17.471   5.172   3.678  0.2009  0.0507  0.0810
10970W        W27817  14.687  12.416   4.788  0.1552 -0.0253  0.0231
10971W        W27818  15.935  11.077   5.069  0.3238 -0.1612  0.0610
10972W        W27819   1.803   4.931   2.457  0.0427  0.1014  0.0770
10973W        W27820   6.616  16.984  13.714  0.0590  0.2747  0.0444
10974W        W27821   3.077  17.720  16.018  0.2823  0.0465 -0.0743
10975W        W27822  17.121   1.622  14.003  0.1091 -0.2490 -0.0956
10976W        W27823  16.548  16.204   2.475  0.2304  0.3251 -0.1598
10977W        W27824   9.231   1.967  13.907  0.4841 -0.1461 -0.1629
10978W        W27825   2.628  13.684  12.263 -0.0010  0.0177 -0.0556
10979W        W27826  11.256   7.893   3.855  0.1069  0.0176  0.2598
10980W        W27827  14.938   6.002   5.005  0.0605 -0.0862  0.0567
10981W        W27828  17.426  10.829  13.448  0.0634  0.0910 -0.0243
10982W        W27829   8.019  11.112   5.252 -0.3890 -0.1584  0.1109
10983W        W27830  17.763   1.353   3.405 -0.1396 -0.4055  0.2126
10984W        W27831  16.505  15.586  16.228  0.0693  0.0916 -0.1211
10985W        W27832   0.019   5.184   1.891  0.1506 -0.0722  0.1203
10986W        W27833  14.335  16.067   2.782  0.0721  0.0563 -0.2304
10987W        W27834   8.720  10.409   0.413  0.0084 -0.0917  0.0275
10988W        W27835   6.419   9.743  15.287 -0.2473 -0.1806  0.2283
10989W        W27836  17.806   9.598  13.690 -0.1795  0.0063 -0.2020
10990W        W27837   7.130  11.240   4.127 -0.0021  0.1222 -0.0490
10991W        W27838   6.218   7.023   4.663 -0.1270  0.1755 -0.0109
10992W        W27839   4.441  15.819  15.539  0.1313  0.1945  0.1353
10993W        W27840   7.422   0.184  11.309 -0.2552 -0.0605  0.1855
10994W        W27841   9.399   8.174  14.631  0.0526  0.0267  0.0405
10995W        W27842  12.194   5.979   4.705 -0.0782 -0.0300 -0.2299
10996W        W27843  14.714   5.805   0.786 -0.2411  0.0440 -0.1956
10997W        W27844   7.874   8.906   1.734 -0.1105 -0.1394 -0.2155
10998W        W27845  15.478  15.918  14.656  0.1846 -0.0826 -0.2519
10999W        W27846   3.723   7.146  15.532  0.0017 -0.0902 -0.1451
11000W        W27847   5.481   9.157  14.042  0.3315  0.0437  0.1308
11001W        W27848   5.375  14.709  15.942  0.1863  0.2067 -0.0475
11002W        W27849   5.373   7.652  13.922  0.1304 -0.0494 -0.3314
11003W        W27850   8.584   6.730   1.961  0.0973 -0.0157 -0.1462
11004W        W27851   6.421   3.766   3.542  0.1127  0.1742 -0.1246
11005W        W27852  15.336   1.418   3.874 -0.1702  0.2075 -0.2150
11006W        W27853   9.734  15.958  13.695  0.0249  0.1564  0.1027
11007W        W27854   8.383   3.873   4.522 -0.0231 -0.1352  0.1408
11008W        W27855  16.447  13.801   0.278  0.1048  0.2340  0.0212
11009W        W27856  17.594   4.083   4.422 -0.2021  0.0903 -0.1125
11010W        W27857   3.475  14.871   1.281 -0.0838 -0.1914  0.4103
11011W        W27858  10.116  18.337   4.059 -0.0577 -0.0159 -0.0652
11012W        W27859  14.519  11.408  11.830  0.4591  0.2804  0.0474
11013W        W27860  13.863  12.511  14.060  0.2179 -0.0649 -0.0068
11014W        W27861  15.577   6.570  14.552  0.0059 -0.3125  0.2722
11015W        W27862  15.041   9.040  11.210 -0.2008  0.1622 -0.2116
11016W        W27863   8.951   4.940  14.860  0.2250 -0.3473  0.0278
11017W        W27864   1.090   8.746  12.429 -0.2276  0.0309  0.1280
11018W        W27865  12.215   2.670   2.587  0.3353  0.2216  0.0709
11019W        W27866  17.052  13.463   6.213 -0.2099  0.0557  0.0130
11020W        W27867  12.251   8.564   0.688 -0.0495 -0.3073  0.4022
11021W        W27868   9.537  18.350   2.697 -0.0575 -0.0162 -0.1228
11022W        W27869   1.737   3.684  15.539 -0.0675 -0.4687 -0.1643
11023W        W27870   7.708   9.523  14.263  0.0413 -0.2719  0.0585
11024W        W27871  16.962   7.176  12.794 -0.0680 -0.1816 -0.3185
11025W        W27872   2.598   6.196  14.571 -0.2617  0.1735  0.1943
11026W        W27873   0.814  16.520  13.195 -0.2900  0.3535  0.0976
11027W        W27874   5.795   4.953  13.464  0.2986  0.1120 -0.2366
11028W        W27875   1.588   2.847   3.402  0.0787 -0.3565 -0.0387
11029W        W27876  18.090   6.450  13.873  0.0584  0.0837 -0.0813
11030W        W27877   6.911   6.893   4.400 -0.1547  0.0197  0.0434
11031W        W27878   8.998  16.699   2.562  0.2178 -0.4405  0.0444
11032W        W27879  10.960   5.440  16.285 -0.0290  0.1697  0.3208
11033W        W27880   9.733  12.127   5.220  0.2069  0.1420 -0.2236
11034W        W27881   2.676  18.041   4.552  0.2009  0.0895  0.0418
11035W        W27882  15.398   4.541  11.978  0.2250  0.2559 -0.4166
11036W        W27883   0.027  16.894  14.858 -0.0331 -0.1761 -0.1147
11037W        W27884   9.593  13.464  12.177 -0.3368  0.0115  0.1114
11038W        W27885  18.153   1.487   4.706  0.3968  0.0130  0.0173
11039W        W27886   1.262   9.425   3.997 -0.1138 -0.1475  0.0662
11040W        W27887   7.837  15.113   4.731 -0.1774 -0.2547 -0.1818
11041W        W27888  11.970  16.685  11.848 -0.0754 -0.1251  0.0647
11042W        W27889  17.340   7.909   3.745  0.0387  0.0895  0.0586
11043W        W27890  17.643  13.254   1.057  0.1945 -0.1109  0.0380
11044W        W27891  15.490   5.921  12.897  0.4452 -0.0748 -0.0376
11045W        W27892  11.631  11.439   5.132 -0.1092 -0.1257 -0.1113
11046W        W27893  17.416  17.196   2.298  0.0006 -0.0551  0.1521
11047W        W27894   6.691  15.513  11.642  0.2879  0.1186  0.1537
11048W        W27895   4.765   2.182   2.720  0.1769 -0.0414 -0.0411
11049W        W27896   8.938   8.421  14.274 -0.2424  0.0330 -0.1171
11050W        W27897  18.238   5.383  12.285 -0.1165  0.1013 -0.0394
11051W        W27898   2.322   3.259   3.932  0.0464 -0.3317  0.2542
11052W        W27899  17.352  11.046   5.813  0.0539 -0.0330 -0.2619
11053W        W27900  11.654  16.298  16.157 -0.3805  0.1081 -0.2654
11054W        W27901  14.633  10.838  12.026 -0.1417 -0.3006  0.1065
11055W        W27902  14.139   6.609  14.759  0.1859 -0.2318  0.0818
11056W        W27903   3.902  16.989   5.021  0.0888  0.2489  0.0930
11057W        W27904  14.026   3.860  14.342 -0.0438  0.1433 -0.0194
11058W        W27905   1.495   6.881  12.166 -0.0963  0.0866  0.1027
11059W        W27906  14.631   7.971   4.113 -0.0920  0.2582  0.3402
11060W        W27907  15.313   8.190   2.977  0.2750  0.3594 -0.0348
11061W        W27908   7.457  17.585   0.752 -0.3397  0.1600 -0.0668
11062W        W27909  18.273   9.061   2.887  0.0652  0.1035 -0.1637
11063W        W27910  13.229   7.246  13.764  0.1826 -0.0814 -0.1903
11064W        W27911  13.907   1.819   1.277 -0.0316  0.2401 -0.0931
11065W        W27912  14.412  12.030   2.200 -0.1520  0.0805 -0.0448
11066W        W27913  17.026  11.983  11.524 -0.2618 -0.3590  0.0676
11067W        W27914   0.491  12.081  12.827 -0.1757  0.1418 -0.0578
11068W        W27915  15.189   2.676  12.223  0.0528  0.1202  0.0125
11069W        W27916   1.626  14.922  13.730  0.1476  0.1148  0.1105
11070W        W27917  15.915  12.319  14.235 -0.0242 -0.1541  0.1128
11071W        W27918   5.581   3.737  12.973  0.0906  0.3797  0.2469
11072W        W27919   8.706  11.874  15.956 -0.1140  0.0895  0.1749
11073W        W27920   5.931  16.515  14.493 -0.1221  0.3405 -0.0939
11074W        W27921   3.162  16.563   0.793  0.3985 -0.2016 -0.1864
11075W        W27922  14.534   9.828   0.017 -0.0021 -0.0694  0.6105
11076W        W27923  13.811   3.137  13.989 -0.0903  0.0797 -0.2359
11077W        W27924  13.232  12.099  16.172  0.0886 -0.1388  0.0473
11078W        W27925   9.836  14.208  12.417  0.0623 -0.0169 -0.2039
11079W        W27926   7.393   0.312   4.895 -0.2446 -0.1110 -0.1177
11080W        W27927   8.321  12.090  12.665 -0.1627  0.3062  0.2067
11081W        W27928   3.951   5.723   0.391  0.1925  0.1720  0.2546
11082W        W27929  17.842   2.824  16.330 -0.1482  0.2634 -0.0205
11083W        W27930   6.867   6.032   3.761  0.0886 -0.2664  0.1935
11084W        W27931  18.197  13.205   0.286 -0.0464  0.0063  0.1194
11085W        W27932  17.225   2.233   3.240  0.0525  0.0601  0.0994
11086W        W27933   9.591  15.689  14.120 -0.0876  0.0556  0.0833
11087W        W27934  13.931   6.694  13.306 -0.0850 -0.2931  0.2957
11088W        W27935   4.423  12.829   1.427  0.1193  0.1327  0.4123
11089W        W27936   9.391   0.284  15.417  0.2151 -0.1965  0.0752
11090W        W27937   2.646  12.501   2.387 -0.1777 -0.1085  0.1074
11091W        W27938  14.832   2.515   3.934 -0.1556 -0.0141 -0.0572
11092W        W27939   4.279   0.873   1.512 -0.2364  0.2258  0.1424
11093W        W27940   9.316   3.157   0.013  0.1052 -0.3645 -0.0310
11094W        W27941  17.836   7.904  14.673 -0.2466 -0.1949 -0.0140
11095W        W27942   9.809  16.548  14.993 -0.4295  0.4106  0.1403
11096W        W27943  18.319  15.594   1.233 -0.0081 -0.0108  0.0570
11097W        W27944  10.136   9.374  12.063  0.2216 -0.0812 -0.0213
11098W        W27945  16.450   7.481   4.287 -0.0878 -0.3650 -0.2407
11099W        W27946   0.878   8.013  10.701  0.1957  0.0416  0.0592
11100W        W27947   3.984   8.560   2.754  0.2434 -0.0049  0.0044
11101W        W27948  15.373   8.346  14.744  0.2459  0.2800  0.0764
11102W        W27949  11.571  14.346   4.970  0.1873 -0.1786 -0.1192
11103W        W27950  16.879  16.154  12.568 -0.2278 -0.0743 -0.1942
11104W        W27951  13.510   5.382  13.392  0.1545  0.0652 -0.2859
11105W        W27952  13.711   6.945   5.423 -0.2024 -0.0258 -0.1476
11106W        W27953   8.506   6.679  13.620 -0.0360  0.0691  0.2318
11107W        W27954   1.709   4.650   1.328 -0.2915 -0.0884  0.2440
11108W        W27955  10.767  16.245   4.109 -0.0548 -0.0349 -0.0077
11109W        W27956   1.638   5.477  13.651 -0.2278 -0.1095  0.0019
11110W        W27957  14.801  10.566  11.558 -0.0822 -0.3044  0.2275
11111W        W27958  11.760   7.348  12.223  0.1441 -0.1161 -0.2224
11112W        W27959   1.168  15.356  15.030 -0.1422 -0.3129 -0.1135
11113W        W27960  10.815  11.026   6.530 -0.0334 -0.2671 -0.1463
11114W        W27961   8.898   9.673   3.774 -0.1956 -0.0658  0.2369
11115W        W27962  17.396  14.913   5.016 -0.2637  0.1826 -0.0274
11116W        W27963  11.559  12.091   0.244 -0.0746 -0.2906 -0.1475
11117W        W27964   0.557   9.942  12.347  0.2212 -0.1556 -0.0727
11118W        W27965   1.242   0.062   5.535  0.2035  0.0066  0.1821
11119W        W27966  15.478  14.424   1.541  0.2043 -0.0764  0.0093
11120W        W27967   3.903   6.153  13.305 -0.1133 -0.2443  0.0245
11121W        W27968  12.588  14.912   4.555  0.0036  0.0484 -0.0867
11122W        W27969  14.551  14.371   5.124  0.2818 -0.0309  0.1671
11123W        W27970   5.407   0.145  12.773  0.2867  0.1953  0.0710
11124W        W27971  15.391  12.578   1.361 -0.1006 -0.2818  0.1022
11125W        W27972  12.181  11.933   4.354  0.1354 -0.0868  0.0550
11126W        W27973   7.175   1.219   3.732 -0.2163 -0.2968  0.1813
11127W        W27974  12.153  16.157  13.870  0.3834  0.2361 -0.0664
11128W        W27975   3.354   1.308  15.487  0.1181  0.0529 -0.2878
11129W        W27976  10.957   8.559  15.592 -0.2890  0.0347 -0.1623
11130W        W27977   6.163   3.883  15.870 -0.0806  0.0801  0.0942
11131W        W27978   4.986   5.729  15.935 -0.0687  0.2006  0.2439
11132W        W27979   5.889  13.025   5.110 -0.1666  0.0752  0.0590
11133W        W27980   9.184  10.940  11.725 -0.0914  0.0909  0.1011
11134W        W27981  17.686  13.690   4.708  0.1656 -0.0639  0.1007
11135W        W27982   4.421   4.436   2.664  0.0354  0.1536  0.2128
11136W        W27983   6.590   3.650  14.455  0.3351 -0.3352 -0.2018
11137W        W27984   4.251  18.032   0.043 -0.0930  0.1321  0.5640
11138W        W27985   9.603   1.149  12.373 -0.0819  0.0077 -0.2670
11139W        W27986  13.940  11.539  15.618  0.1944  0.0141 -0.3299
11140W        W27987   6.716   2.791  15.476 -0.0821 -0.0771 -0.0773
11141W        W27988  12.320   5.565   2.358 -0.2330  0.4748  0.0046
11142W        W27989  16.117  18.074  16.280 -0.1873  0.3249 -0.2901
11143W        W27990   8.396   7.909   0.050  0.0165 -0.1348  0.0271
11144W        W27991   5.876   8.868  15.862  0.0868  0.0980 -0.0431
11145W        W27992  14.140  15.080   5.912  0.2359 -0.0586  0.0398
11146W        W27993  14.168   7.803   3.899 -0.0315  0.0765  0.0573
11147W        W27994  13.090   0.142  16.090  0.2664 -0.0010 -0.0816
11148W        W27995  14.090  11.947  15.152  0.4631  0.2883  0.1001
11149W        W27996   0.338  11.525   4.194  0.0145  0.1617  0.4469
11150W        W27997  17.632   1.369   4.739  0.0944  0.0090 -0.0437
11151W        W27998   6.588   4.195   4.798 -0.2171  0.1705  0.0801
11152W        W27999   0.888  14.835  12.134 -0.1513 -0.1218 -0.1217
11153W        W28000  17.403   8.575   2.780 -0.0737  0.1117  0.0564
11154W        W28001   0.638   6.447  13.590 -0.3295 -0.0611 -0.4350
11155W        W28002   0.937   7.543  16.028 -0.1004  0.0802  0.0775
11156W        W28003  16.993  17.194   1.481 -0.0152 -0.3828  0.2210
11157W        W28004   6.231   2.142  13.347 -0.2365 -0.0088  0.2393
11158W        W28005  17.888   7.784   3.976 -0.1023 -0.1660  0.2728
11159W        W28006  16.296  18.253   5.593  0.1705  0.1579  0.1940
11160W        W28007   5.511   7.596   2.369  0.1251  0.3809 -0.1623
11161W        W28008   0.386   2.647  16.207 -0.2677 -0.2211  0.0800
11162W        W28009  11.743  11.771  11.718  0.6170  0.1439  0.0601
11163W        W28010   8.871   3.601  15.685  0.0916 -0.2996 -0.2680
11164W        W28011  12.571   6.697  12.872  0.0445 -0.1016  0.1773
11165W        W28012   1.347  13.546   2.785 -0.2692  0.0715  0.2750
11166W        W28013  12.837  10.173   3.282  0.1680 -0.4997 -0.1079
11167W        W28014   0.181  10.130  11.347 -0.2030  0.0006 -0.0564
11168W        W28015  18.192  16.469  14.999  0.0010  0.1844  0.2355
11169W        W28016   0.817   6.739  14.850 -0.1419 -0.1082 -0.2406
11170W        W28017  12.193   3.461  12.710 -0.4397 -0.0774 -0.2420
11171W        W28018   5.719   7.634   1.427 -0.0773 -0.0412  0.0016
11172W        W28019  10.577  12.138   3.689 -0.0514  0.2136 -0.2616
11173W        W28020   6.281  14.178  11.634  0.0655  0.0581 -0.0667
11174W        W28021  15.183  17.971  15.816 -0.0765  0.1090 -0.0945
11175W        W28022   0.920   7.840   1.143  0.0469  0.1148 -0.1863
11176W        W28023  11.826   2.405   3.989 -0.2873  0.1031 -0.3629
11177W        W28024   2.670   3.871  15.004  0.1629  0.0136  0.0067
11178W        W28025  14.852  13.741   5.073 -0.1808  0.0503 -0.1327
11179W        W28026   5.311   6.487   4.706 -0.3460  0.0177  0.2834
11180W        W28027  12.890  11.304   4.432  0.3773  0.1104  0.0159
11181W        W28028  13.746  11.399   6.701 -0.1524  0.2126  0.1319
11182W        W28029  17.813  17.655   4.906  0.1336  0.0672 -0.3393
11183W        W28030  17.289  12.266  14.353  0.3565 -0.0870 -0.0180
11184W        W28031   6.151  14.091   2.300  0.1004  0.0099 -0.2972
11185W        W28032   1.706   6.694  13.954  0.0270 -0.0993 -0.1514
11186W        W28033  13.592  10.613   1.749 -0.1565  0.0523 -0.2704
11187W        W28034  11.138   8.244   0.582  0.1575 -0.0014  0.0823
11188W        W28035   5.249  12.926   3.828  0.2330 -0.2198 -0.2100
11189W        W28036  15.502   0.925   0.466 -0.0650 -0.0833 -0.1057
11190W        W28037   5.818  16.382   2.875  0.0286  0.3744 -0.0752
11191W        W28038   7.767   7.016   3.917  0.0454  0.0495 -0.0386
11192W        W28039  15.144   4.102  12.035  0.0051  0.0440 -0.1895
11193W        W28040  17.463   2.140   0.668 -0.0229  0.0278  0.1374
11194W        W28041   5.124  15.108  12.953 -0.2160 -0.1246  0.1190
11195W        W28042  11.614   3.747   4.829 -0.0834 -0.0037  0.3289
11196W        W28043  12.297  10.638   3.943 -0.1013 -0.1580 -0.1125
11197W        W28044   1.206  12.720   4.352  0.0196 -0.2073  0.2754
11198W        W28045  17.450   9.564   1.270 -0.3125 -0.0880 -0.0507
11199W        W28046   6.707   2.402  12.461  0.2009 -0.1105  0.2109
11200W        W28047   7.185  17.033   2.497  0.0653  0.2167  0.1366
11201W        W28048   7.521   9.735  13.287 -0.2721 -0.0814 -0.2000
11202W        W28049  10.701   1.647  11.578 -0.1168 -0.1941  0.3101
11203W        W28050   0.510   4.186   0.884  0.2301 -0.0223  0.0132
11204W        W28051  12.446   1.738  12.329  0.0478  0.0204 -0.2469
11205W        W28052   3.651   6.018  13.713  0.1647 -0.3146  0.0022
11206W        W28053   6.170  11.607  12.058 -0.2090  0.0041 -0.1049
11207W        W28054  14.204  16.654  14.177  0.0784  0.2416 -0.0734
11208W        W28055  10.706   8.864   5.414 -0.1487  0.0820  0.1011
11209W        W28056   4.445  10.302   2.157  0.0925 -0.3612  0.0399
11210W        W28057  10.127   9.435   3.161 -0.0670 -0.0956  0.0411
11211W        W28058   2.239  10.795   3.060  0.0119 -0.3769  0.0165
11212W        W28059  14.629   9.137  14.799  0.1459  0.3268  0.0066
11213W        W28060   8.029   3.968   1.640  0.2611  0.2237 -0.0334
11214W        W28061  14.025  17.836   1.484  0.1746 -0.2212 -0.0786
11215W        W28062   2.138   1.956  14.926 -0.2556 -0.1112 -0.0010
11216W        W28063  15.792   1.401  16.228 -0.3166 -0.2601 -0.0057
11217W        W28064  12.779  10.329   2.194 -0.1199  0.0295 -0.2084
11218W        W28065  12.695   5.848   4.813 -0.1311  0.0408  0.1357
11219W        W28066   7.166  13.806   5.958  0.1041  0.0915 -0.0049
11220W        W28067  17.194   4.583   1.241 -0.0405  0.1273  0.1035
11221W        W28068   1.950   7.857  12.930 -0.0383 -0.1517  0.2556
11222W        W28069  18.047   7.766  12.111  0.0997  0.0478 -0.0702
11223W        W28070   3.216  11.754   5.380  0.3351 -0.1152  0.0353
11224W        W28071   2.258  15.297   4.952  0.3178  0.0857 -0.0714
11225W        W28072   1.929  10.961  15.222 -0.1620 -0.0744  0.0765
11226W        W28073  11.470  12.665  13.070 -0.1981 -0.2395 -0.3619
11227W        W28074   0.940  16.292  15.248  0.0849  0.1459  0.3330
11228W        W28075  16.036  12.899   0.397  0.4370  0.2976 -0.3609
11229W        W28076  17.402  17.873   3.726 -0.0889  0.2603 -0.2128
11230W        W28077   1.521   4.646  12.432  0.3164  0.0417  0.1071
11231W        W28078  15.828   2.620   0.647 -0.0212  0.1009  0.3123
11232W        W28079   7.944   7.724  13.764  0.2614  0.0035  0.2223
11233W        W28080   0.322  10.386  13.199  0.3141  0.1195  0.0724
11234W        W28081   8.309  14.016   5.376 -0.1006 -0.1159 -0.0462
11235W        W28082   5.098   4.357   4.485 -0.1843 -0.0338 -0.2960
11236W        W28083  14.869   3.383  14.634 -0.0200  0.1255  0.2023
11237W        W28084  13.359  15.338   1.940  0.0197  0.0612 -0.2392
11238W        W28085   5.952   5.026   3.768 -0.0590  0.0960 -0.2804
11239W        W28086  12.808   3.189  14.361  0.4056 -0.0028 -0.2154
11240W        W28087   3.836  11.589   4.810 -0.0832 -0.1786  0.1371
11241W        W28088  15.869   2.014  12.718  0.0120  0.1071 -0.0966
11242W        W28089   1.852  13.042  12.501  0.7525  0.2131 -0.0199
11243W        W28090   1.393  10.992  11.887 -0.0708 -0.1481  0.3074
11244W        W28091   4.797   0.554   4.044  0.2419  0.0657  0.4129
11245W        W28092   2.338  12.318   5.120 -0.0298  0.1515 -0.1909
11246W        W28093   8.212  17.390   6.562 -0.0898 -0.1929  0.2934
11247W        W28094   8.504   5.343   1.795  0.1407 -0.5510 -0.0162
11248W        W28095   3.171  11.015   4.853  0.0954 -0.1926  0.0514
11249W        W28096   8.602   0.965   2.298  0.0154 -0.0432  0.0257
11250W        W28097   6.623  12.426  16.318  0.1273  0.5120 -0.0862
11251W        W28098   0.643   5.744   3.131  0.0066 -0.2492 -0.1148
11252W        W28099   1.354  13.559   5.404  0.0219 -0.0800 -0.0284
11253W        W28100  10.970  12.378  12.984  0.0469 -0.1892  0.0251
11254W        W28101   0.812   9.263  14.721  0.1098 -0.1662 -0.0429
11255W        W28102   8.065  13.275  13.610 -0.0511  0.1193 -0.1301
11256W        W28103  15.949   3.678  12.607 -0.1408 -0.1146  0.0994
11257W        W28104   6.231  12.484   4.964  0.4083 -0.2846 -0.2774
11258W        W28105   6.018  13.714   3.144  0.0494 -0.4166  0.3647
11259W        W28106  12.585   0.957   3.492  0.0323  0.0283  0.2453
11260W        W28107   7.564   7.987  13.334 -0.2346  0.1381  0.1332
11261W        W28108   1.198   6.691   2.426  0.0090 -0.1677 -0.0462
11262W        W28109   1.649  15.398  13.614  0.1388 -0.3082 -0.0039
11263W        W28110  17.914  11.634  13.788  0.1171 -0.0805  0.2985
11264W        W28111   3.276  12.024  15.555 -0.0233 -0.0455 -0.1808
11265W        W28112  18.268   1.202  16.294  0.1176  0.0309 -0.3380
11266W        W28113   2.784  12.765  12.244 -0.1696  0.0812 -0.2174
11267W        W28114  14.557   1.740  11.926  0.2295 -0.1353 -0.0971
11268W        W28115   6.931   2.585   2.297  0.2736 -0.2174 -0.0342
11269W        W28116   1.074   8.982   0.081  0.2168 -0.0288  0.0554
11270W        W28117   4.522   0.390  16.055  0.0873 -0.0888 -0.1060
11271W        W28118   4.463   8.965   4.329 -0.0381  0.0437  0.0561
11272W        W28119  14.889   3.588  12.507  0.2144  0.0923  0.0094
11273W        W28120  11.391   3.203   1.980 -0.0190 -0.2103 -0.2323
11274W        W28121  16.256   6.280   3.686 -0.0092 -0.0830  0.1757
11275W        W28122  14.694  15.757  11.625 -0.2400 -0.1713 -0.2238
11276W        W28123   7.779  15.495  14.437  0.1602  0.0216  0.1120
11277W        W28124  14.205  15.621   0.978  0.0519 -0.1060  0.2776
11278W        W28125   9.941   0.094   0.633  0.0450  0.1301  0.1524
11279W        W28126  10.194   4.938   0.203  0.0419 -0.0473  0.0024
11280W        W28127  11.881   1.031   3.990  0.1682 -0.1111 -0.1181
11281W        W28128   3.546   0.165   3.633 -0.3275  0.2327 -0.2166
11282W        W28129  17.564   6.756  10.782 -0.1333  0.0712 -0.0007
11283W        W28130   4.855  14.030   3.370 -0.2200 -0.1095 -0.1242
11284W        W28131   4.603   4.354   0.613 -0.0645 -0.0450 -0.0783
11285W        W28132  15.970   3.234   2.061 -0.1322  0.0010 -0.0932
11286W        W28133   4.194  11.759   5.769  0.2271 -0.4021 -0.0129
11287W        W28134   3.542  16.790   2.371  0.1161  0.3084  0.0165
11288W        W28135  12.086   0.077  12.077 -0.0059  0.0105  0.3829
11289W        W28136   3.659   1.028  11.662 -0.1052  0.2081 -0.3226
11290W        W28137   5.259   8.901  15.507 -0.0885  0.0797 -0.0573
11291W        W28138   2.539   6.140  12.703  0.2201  0.0766  0.2953
11292W        W28139   6.395   8.678   2.410  0.1364  0.1069 -0.1704
11293W        W28140   6.660  14.580  13.685 -0.0871  0.0288 -0.1744
11294W        W28141   1.844   3.085  13.363  0.0630  0.1582  0.2503
11295W        W28142  16.940   2.737  15.926 -0.1953 -0.0836  0.0066
11296W        W28143   4.051  10.730   2.050 -0.0378 -0.1282  0.1161
11297W        W28144  12.913   4.168   1.218  0.2042  0.0432 -0.0410
11298W        W28145   4.235  10.819   4.907  0.1439 -0.0227  0.0524
11299W        W28146  11.612   0.656  11.393  0.1928 -0.1936  0.0461
11300W        W28147  15.061   6.478  12.086  0.3061  0.0293 -0.0135
11301W        W28148  12.941   6.706   4.176 -0.1014 -0.0709 -0.1062
11302W        W28149   8.052   0.555  11.478 -0.0154  0.1606  0.0025
11303W        W28150   4.838   6.506  13.271  0.2444 -0.1522  0.3340
11304W        W28151  16.282  12.227   2.254 -0.0963 -0.0537 -0.3000
11305W        W28152  15.607  12.569  13.858 -0.0661 -0.2283  0.3387
11306W        W28153   4.868  14.369   5.378 -0.3154 -0.0760  0.1102
11307W        W28154  12.304  10.500  11.999 -0.4731 -0.2118  0.2256
11308W        W28155   0.119   8.092   0.460 -0.1154 -0.0149  0.2261
11309W        W28156  13.651   3.646   5.191 -0.2378  0.0188  0.1178
11310W        W28157   0.628   4.559   0.578  0.0111  0.0949 -0.1240
11311W        W28158  16.454  12.846  12.401  0.1048 -0.2127  0.1259
11312W        W28159  10.399  11.253   0.272 -0.0034 -0.2912  0.3330
11313W        W28160  13.218  15.760  11.630 -0.4880  0.0752 -0.2098
11314W        W28161  14.362  13.174  13.333 -0.0246 -0.1431  0.3731
11315W        W28162   5.470   1.538  14.703 -0.3859  0.0207 -0.0950
11316W        W28163  12.959   8.385  11.721 -0.3376  0.0814  0.1160
11317W        W28164  18.243   0.408   3.128  0.3510 -0.0330  0.1501
11318W        W28165   2.249   5.780  10.545  0.0779  0.1359 -0.1627
11319W        W28166   4.583  13.508   6.393  0.1331 -0.0112  0.0592
11320W        W28167  16.736  11.616  15.915 -0.0586  0.0927  0.2469
11321W        W28168  14.231   4.033   2.235 -0.2492 -0.4349  0.1179
11322W        W28169   9.720   8.053   0.700 -0.2140 -0.1068 -0.3348
11323W        W28170   6.707  13.457   0.835 -0.1750  0.0622 -0.2965
11324W        W28171  17.301   6.748  15.550 -0.1087 -0.0061 -0.2040
11325W        W28172   4.919  10.156   2.353 -0.2520 -0.0340  0.4540
11326W        W28173   2.531   0.048  16.193  0.2146  0.3045 -0.0189
11327W        W28174  12.607   9.728   3.947 -0.3241  0.0152  0.0344
11328W        W28175  16.486   9.031   3.746 -0.0461  0.1698 -0.0913
11329W        W28176  16.377   0.988  13.720  0.0574  0.2978  0.0558
11330W        W28177  13.797   7.646  13.085 -0.1942 -0.0355  0.3224
11331W        W28178   1.035   8.489   4.828  0.1337  0.2750  0.0326
11332W        W28179  12.432   1.297  12.612  0.0136 -0.0185 -0.0204
11333W        W28180  15.764   4.594   1.600 -0.1111  0.2209  0.1540
11334W        W28181  15.539   8.158   0.186  0.1537 -0.0616 -0.0930
11335W        W28182  10.208  12.991   0.354  0.0766  0.2386  0.2427
11336W        W28183   8.301   6.278   2.165 -0.0945 -0.1419  0.0382
11337W        W28184   7.341   7.263  14.558 -0.0608  0.2677 -0.2788
11338W        W28185   9.273   4.632   2.748 -0.0637  0.3039 -0.2118
11339W        W28186  17.565   2.417  14.561 -0.0236 -0.0015 -0.1237
11340W        W28187  10.114  16.400  15.965  0.0990  0.1286  0.1867
11341W        W28188   5.060   5.224  16.021  0.0516 -0.2737 -0.2702
11342W        W28189  13.149   7.360   4.614 -0.1372  0.1045  0.2228
11343W        W28190  18.175   0.972  14.148  0.0886 -0.0822  0.3094
11344W        W28191   0.024  10.541  11.906 -0.0506 -0.1258  0.2293
11345W        W28192   3.485   0.700   3.529  0.2220 -0.0830 -0.3019
11346W        W28193   1.005  15.898  14.411 -0.2847  0.2274 -0.0274
11347W        W28194   1.250   5.883   1.290 -0.0014 -0.1480  0.1634
11348W        W28195  10.376  16.777   0.317 -0.1240  0.0639  0.0048
11349W        W28196  15.686   5.080  12.803 -0.0090 -0.1813  0.0722
11350W        W28197   5.918  16.506   4.265 -0.1539 -0.0339 -0.1736
11351W        W28198   1.465   4.036  13.568 -0.0827  0.1420 -0.0828
11352W        W28199   1.840  13.962  16.225 -0.1451 -0.1488 -0.2186
11353W        W28200  11.464  16.233  15.607 -0.2112  0.0900 -0.0987
11354W        W28201   2.805  15.715  16.067 -0.0901 -0.0568  0.1175
11355W        W28202   9.827  10.160   0.889 -0.1260 -0.0169  0.0195
11356W        W28203  13.380   9.173   4.499 -0.0494 -0.0643 -0.3953
11357W        W28204   3.964  14.936   1.296  0.0822 -0.0161  0.0824
11358W        W28205   4.262  15.112  12.989 -0.0485 -0.0718  0.0912
11359W        W28206   8.424  11.326   2.006  0.1695 -0.0554 -0.0239
11360W        W28207  14.456   5.346   1.555  0.1258 -0.0865 -0.0329
11361W        W28208   3.696   4.541  16.013  0.1797 -0.3037 -0.0719
11362W        W28209   2.294   1.294   4.514  0.3120 -0.0879 -0.4267
11363W        W28210   4.715  17.034  16.028  0.3506 -0.1064 -0.1805
11364W        W28211   4.184   0.700  15.620 -0.0357  0.0103  0.2811
11365W        W28212  13.934   4.277   1.831 -0.0766  0.1341  0.1625
11366W        W28213   9.324   1.717   3.429 -0.1503 -0.3431 -0.2168
11367W        W28214   8.719   0.873  15.353  0.0217  0.1986 -0.0643
11368W        W28215  10.878  17.954  11.675 -0.0789  0.0882 -0.0709
11369W        W28216   0.481  10.762   2.814  0.0682 -0.0412 -0.2689
11370W        W28217  12.238  16.982   4.940  0.0255  0.1218 -0.0417
11371W        W28218  17.024   0.313   1.556 -0.2812 -0.0721  0.0795
11372W        W28219  16.367  17.396  12.924  0.0301 -0.0132 -0.1418
11373W        W28220   2.584   5.134  13.164 -0.1583 -0.2659  0.2093
11374W        W28221  14.200   7.333   5.230 -0.0352  0.0712 -0.2186
11375W        W28222   5.597   1.310   3.920  0.0698 -0.2158 -0.2106
11376W        W28223   8.216  11.525  13.789  0.0661  0.3472 -0.1912
11377W        W28224  15.105  14.044   3.769 -0.2616 -0.1923  0.0275
11378W        W28225   0.267  17.283  13.643  0.0687 -0.0068  0.4093
11379W        W28226   1.332   2.421  15.161 -0.0803 -0.3117  0.3004
11380W        W28227  16.637  14.118   4.606 -0.0547 -0.0904  0.1551
11381W        W28228   0.180   3.138  13.054  0.1525 -0.3373  0.3612
11382W        W28229  12.876  16.761  13.795  0.0426 -0.0198 -0.0859
11383W        W28230   5.089   1.734  15.958 -0.0706 -0.3183  0.1313
11384W        W28231   7.603  17.224   1.681  0.0310  0.1657 -0.1258
11385W        W28232   7.503  15.906  15.234  0.1015  0.0348 -0.0674
11386W        W28233   0.218   7.609  12.599  0.0849 -0.1757 -0.1924
11387W        W28234  18.319   5.994  15.203 -0.2465 -0.1582 -0.0458
11388W        W28235   1.872   7.490   2.212  0.1866  0.0940 -0.0280
11389W        W28236   4.607  11.854   1.240  0.0928  0.0278 -0.0725
11390W        W28237   9.473   3.240   4.925  0.2504 -0.1295  0.1849
11391W        W28238  11.010  16.881  12.419 -0.3540 -0.0834  0.0063
11392W        W28239  14.655   3.914   4.124  0.2854 -0.1720  0.2333
11393W        W28240  12.099   2.464  15.965 -0.0416  0.3009  0.1973
11394W        W28241   7.405   9.180  16.035 -0.0013 -0.0969 -0.3797
11395W        W28242   2.404  14.600   1.136 -0.0993  0.2523  0.3651
11396W        W28243  17.501   1.793   1.947 -0.0956 -0.2525  0.0835
11397W        W28244  16.990  17.095   4.792  0.0148  0.2203  0.2872
11398W        W28245   1.044   9.031   2.110 -0.2036  0.2201 -0.1683
11399W        W28246  10.029  11.630   6.204 -0.0380  0.4640 -0.0393
11400W        W28247   3.568  15.701   0.330  0.0267  0.3529  0.1680
11401W        W28248  14.404   7.761  12.363 -0.1232  0.0329  0.0457
11402W        W28249  15.708   4.492  11.088 -0.0637  0.3520 -0.2042
11403W        W28250   3.816  12.690   5.524 -0.3449  0.0101  0.2514
11404W        W28251  15.565   4.174  15.054 -0.0974 -0.1257 -0.2571
11405W        W28252   6.405  18.024  16.233 -0.3413 -0.1615 -0.0496
11406W        W28253  11.202  12.220  11.534 -0.2693  0.3867  0.2659
11407W        W28254  18.333   8.342   2.100  0.1622  0.0225 -0.0917
11408W        W28255   9.699   7.907   1.204  0.0622 -0.3156  0.1108
11409W        W28256   5.430   0.762  14.354 -0.0203  0.3150 -0.1586
11410W        W28257   0.703  17.673  12.832 -0.2074  0.2067 -0.1611
11411W        W28258  12.862  13.744  15.321 -0.0507 -0.0801  0.3838
11412W        W28259  16.369   4.750  11.952 -0.0208  0.2585  0.1149
11413W        W28260   2.359  14.350  13.012 -0.0973 -0.0679  0.2715
11414W        W28261  10.852   1.322  15.314 -0.1070 -0.1192 -0.0384
11415W        W28262   6.291   3.035   1.142  0.1802 -0.4169  0.0827
11416W        W28263   3.941  16.008  15.952 -0.3259  0.3107  0.0759
11417W        W28264   3.591   5.310   1.312  0.0815 -0.2761 -0.1649
11418W        W28265  10.551   9.851   3.574  0.2452  0.2768 -0.1822
11419W        W28266   1.674   1.379   5.788 -0.0362  0.0143 -0.0120
11420W        W28267   2.067   5.865  11.079  0.1054 -0.3879  0.4111
11421W        W28268   7.452   8.646  12.128 -0.0268  0.0003  0.2395
11422W        W28269   6.235   2.968  14.969 -0.0687 -0.3061  0.0046
11423W        W28270   6.275   5.355   3.504 -0.3524 -0.1180 -0.1863
11424W        W28271  15.832  16.749   2.839 -0.0504 -0.2533 -0.1381
11425W        W28272  17.672  18.246   1.703  0.2137  0.1704 -0.2544
11426W        W28273  16.058   0.519  11.581 -0.2802 -0.1467 -0.0766
11427W        W28274  18.246  15.329  15.716 -0.1017  0.1434 -0.0745
11428W        W28275   1.673   4.719  10.836 -0.1410  0.2371 -0.0739
11429W        W28276  15.211   7.218   4.354 -0.2366  0.0794 -0.2120
11430W        W28277   1.272  11.252  15.285  0.1844  0.1042 -0.0891
11431W        W28278  13.165  14.888   1.888 -0.2423 -0.2150  0.0920
11432W        W28279   4.884   2.793  13.903 -0.0465  0.2301  0.0993
11433W        W28280  14.486   9.576   0.418 -0.5997 -0.0941  0.1450
11434W        W28281   4.697  15.447  12.792 -0.2240 -0.1156 -0.0679
11435W        W28282  11.376   8.429   3.683 -0.0620 -0.0888  0.1813
11436W        W28283   7.408   5.381   5.353 -0.2759 -0.1605 -0.2743
11437W        W28284   6.098   4.496  11.758  0.0686  0.0065  0.1393
11438W        W28285   1.139  10.836   5.562  0.1452 -0.0602  0.2392
11439W        W28286   2.362  17.942   5.047 -0.1584  0.0885  0.2373
11440W        W28287   2.284   1.700  12.207 -0.0316 -0.2168  0.1234
11441W        W28288   5.883   3.714   4.655  0.1761  0.1940  0.0920
11442W        W28289   3.267  14.776   3.790 -0.0159  0.1616  0.1214
11443W        W28290   9.947   7.428  12.346  0.2017 -0.0983  0.1170
11444W        W28291  16.088  11.602   2.967  0.2750  0.0945 -0.1626
11445W        W28292  12.196   3.702   1.690  0.1932 -0.6258  0.3740
11446W        W28293  12.345   9.539  14.004 -0.0812  0.3802  0.2201
11447W        W28294  11.888  10.216   4.927  0.1495 -0.0525 -0.0429
11448W        W28295   8.004   3.300   4.954  0.1357  0.1527 -0.3442
11449W        W28296  11.979   7.658  11.861  0.0836 -0.1171 -0.1076
11450W        W28297   4.510  16.709   2.974 -0.1660  0.3088  0.1836
11451W        W28298  15.388   2.279  12.475  0.1417 -0.2748  0.1003
11452W        W28299   1.854  11.157   4.375  0.4278 -0.2508  0.1404
11453W        W28300  12.926   2.884  15.642 -0.0015 -0.1398 -0.3368
11454W        W28301  18.059  14.338   5.509  0.3201 -0.2072  0.0126
11455W        W28302  15.787   2.130  15.318  0.3975 -0.0513  0.1260
11456W        W28303   6.832  13.530   5.761 -0.1659  0.1171  0.0114
11457W        W28304  10.471  14.848  14.967  0.3042 -0.2059  0.1244
11458W        W28305  11.758  13.289   4.835  0.2493 -0.0304 -0.1827
11459W        W28306  12.509   1.762  14.515 -0.0134 -0.4354 -0.0594
11460W        W28307  10.581  10.286   4.386  0.0969 -0.1365  0.0546
11461W        W28308  14.575   8.893  13.583 -0.0510 -0.1214 -0.3483
11462W        W28309  14.611   6.643   3.278 -0.0731 -0.2523  0.0374
11463W        W28310  13.167   1.488  15.749 -0.1117 -0.4207 -0.0323
11464W        W28311   9.695   4.716  12.332 -0.4618  0.1920 -0.2264
11465W        W28312   0.217   1.667   5.249  0.1541 -0.1418  0.1035
11466W        W28313  16.511  13.280  14.987 -0.0196 -0.3553 -0.2384
11467W        W28314  14.839  14.556  11.477  0.1834 -0.1448  0.1733
11468W        W28315  12.654  16.063  15.248  0.3893  0.0834  0.2621
11469W        W28316   3.895   7.549   0.901 -0.1586  0.3008  0.3382
11470W        W28317  18.262  16.957  16.300 -0.2603  0.1452  0.0163
11471W        W28318   4.946   1.309   1.757 -0.0493  0.1743  0.1996
11472W        W28319  16.774  14.876   5.865  0.1109  0.1050 -0.2173
11473W        W28320   9.080  18.148   4.640 -0.2787 -0.0387  0.2647
11474W        W28321  16.104  13.446   3.555  0.3597  0.3295  0.1405
11475W        W28322   6.886  10.554   5.175 -0.4633  0.2313  0.2042
11476W        W28323   3.334  13.422  16.316  0.0609 -0.1460 -0.0547
11477W        W28324   7.122  13.177   1.570  0.2307  0.0892 -0.3083
11478W        W28325   1.448   5.151   0.642 -0.1436  0.1816 -0.1352
11479W        W28326   5.671  16.386   2.392  0.0034  0.1723  0.0722
11480W        W28327  10.435  12.929  12.401  0.3787 -0.2784 -0.0781
11481W        W28328  14.666   2.746   0.473 -0.2209  0.0864 -0.1418
11482W        W28329   0.019   4.588  12.520 -0.0828  0.2183  0.3494
11483W        W28330   0.827  11.125  13.986 -0.3567  0.2399 -0.0455
11484W        W28331  16.624   1.364   4.087  0.2887 -0.3367 -0.4796
11485W        W28332   3.145   7.551   1.499  0.0318  0.3424  0.0489
11486W        W28333  10.283   4.703  16.124 -0.0744 -0.1630  0.0418
11487W        W28334  10.883   5.460   2.230 -0.2145 -0.3614 -0.2515
11488W        W28335   3.600   3.454  14.788  0.0720 -0.0667  0.2649
11489W        W28336  17.985   0.990  15.578  0.2616  0.0203 -0.1102
11490W        W28337  11.400  17.571   3.540 -0.2318  0.0686  0.0602
11491W        W28338  10.159   0.283   4.489 -0.3239  0.3299 -0.3312
11492W        W28339   2.336   5.783  11.775  0.2314  0.0761 -0.2416
11493W        W28340   4.595   0.386  14.327  0.0574 -0.2147 -0.2255
11494W        W28341  13.902   1.733   5.106  0.1012 -0.0464  0.0869
11495W        W28342   5.506   8.352   2.416 -0.2604 -0.2296 -0.1810
11496W        W28343   2.017  16.666   3.742 -0.0613  0.1480 -0.2075
11497W        W28344  18.108  10.695  15.974  0.1354 -0.0267  0.0968
11498W        W28345   0.160   8.960   0.936 -0.0181 -0.2466  0.1677
11499W        W28346  13.773   7.133  13.209  0.0553  0.0993 -0.1555
11500W        W28347   1.554   9.821  13.272 -0.3485  0.1216  0.1758
11501W        W28348   0.577  13.423   2.076  0.0021 -0.2167  0.1351
11502W        W28349   5.845   8.618   4.353  0.0277  0.0267 -0.0928
11503W        W28350   3.124  12.633   1.228  0.2252 -0.1470  0.0068
11504W        W28351  17.047   7.334  10.400  0.1040 -0.2799  0.1444
11505W        W28352   8.178  14.734  12.682  0.1325  0.1737  0.1015
11506W        W28353  13.507   5.146   4.402  0.1631  0.1033 -0.0910
11507W        W28354   7.916   0.146  13.659 -0.0121  0.0509 -0.0525
11508W        W28355   8.217  13.151   1.782  0.0665  0.2487  0.0327
11509W        W28356   5.248   6.492   0.233  0.0800  0.0675  0.0832
11510W        W28357  13.914   4.485  13.150  0.0411  0.2047 -0.2198
11511W        W28358   8.070  14.958   4.249 -0.2054 -0.0025  0.0662
11512W        W28359  11.763   8.708   3.862  0.3604  0.1761  0.0806
11513W        W28360   8.295   7.555  14.574 -0.0279 -0.0507 -0.2567
11514W        W28361   5.582  13.265  16.125  0.1584  0.1023 -0.2020
11515W        W28362   8.035  10.036   4.188 -0.0212  0.2170 -0.3689
11516W        W28363  15.301   1.968   2.958 -0.0317 -0.3207 -0.1271
11517W        W28364  10.216  17.005  16.213 -0.1665 -0.2013 -0.0439
11518W        W28365  12.029   2.372   5.247 -0.1153  0.4014 -0.1661
11519W        W28366   2.764  15.560   4.450 -0.1187  0.1516 -0.4233
11520W        W28367  13.163   8.057  15.140 -0.0967 -0.0420 -0.1990
11521W        W28368  15.814   1.758   2.325 -0.0734  0.0700 -0.0159
11522W        W28369  16.721  11.924  10.585  0.0181 -0.2133  0.1261
11523W        W28370  16.693   8.495   1.123 -0.2009  0.2363 -0.1654
11524W        W28371  11.713  14.949   2.834  0.0773  0.1774  0.3246
11525W        W28372   9.270  16.320   0.823  0.4184  0.1257  0.1606
11526W        W28373  17.204   9.796   2.486 -0.1662 -0.1084  0.0174
11527W        W28374  16.593  12.866   4.067 -0.2506  0.0173 -0.1092
11528W        W28375  12.583  12.271   4.654 -0.1335  0.3216  0.0075
11529W        W28376  13.337   0.594  12.880  0.0561  0.1899  0.0546
11530W        W28377  10.048  13.687   1.558 -0.1201 -0.0657 -0.0054
11531W        W28378   2.471  10.992  12.437  0.0775  0.0752 -0.1460
11532W        W28379   8.304   3.718   3.289 -0.1055  0.0584  0.2342
11533W        W28380   1.319   6.440  15.055 -0.2078  0.0557  0.1281
11534W        W28381  16.738   2.561  15.456  0.1185  0.0430  0.0156
11535W        W28382  13.586   1.292   4.219 -0.1771 -0.0396  0.1584
11536W        W28383   1.622   2.511   0.565  0.3427  0.1570 -0.1418
11537W        W28384  18.196  17.817   1.061 -0.1100  0.0617  0.0310
11538W        W28385  13.412   4.781  16.307 -0.0020 -0.0233 -0.0933
11539W        W28386  14.200   8.949   1.122 -0.3631  0.0144 -0.2962
11540W        W28387   5.090  13.387  13.300  0.0645 -0.1352 -0.2050
11541W        W28388  10.869   4.009   1.890 -0.2351  0.0560  0.1303
11542W        W28389  15.969   8.415   1.440  0.2118 -0.3551  0.2816
11543W        W28390  10.686   4.692   3.733  0.3325 -0.0397 -0.1181
11544W        W28391   9.429  13.609   5.793 -0.1796  0.1527  0.1018
11545W        W28392  12.570   3.847  15.753  0.0627  0.1166  0.0132
11546W        W28393   2.072  14.383  12.478  0.0072 -0.2558  0.0932
11547W        W28394  12.224  14.649  15.286 -0.1446 -0.2190 -0.1744
11548W        W28395   5.404  18.088   3.072  0.1640 -0.0083  0.3133
11549W        W28396   2.649   7.836  12.271 -0.2734 -0.0382  0.0112
11550W        W28397  10.970   5.059   3.672 -0.2086  0.3220 -0.0717
11551W        W28398  10.709   0.298  11.248  0.3210  0.2282  0.2319
11552W        W28399  17.346   6.121  13.979 -0.1194 -0.0840  0.4492
11553W        W28400  16.356  13.161   3.051 -0.1969 -0.1448  0.0565
11554W        W28401  15.974  10.018  14.098 -0.1337  0.0283 -0.2320
11555W        W28402   6.113   6.777   5.687 -0.1398 -0.0067  0.1032
11556W        W28403  14.385   2.409   3.798 -0.1712 -0.0149 -0.0956
11557W        W28404  10.906  14.327   5.457 -0.1689  0.3100 -0.1302
11558W        W28405  11.691  11.166  14.659  0.0771  0.1325 -0.3174
11559W        W28406   6.988   2.646   2.829  0.1103 -0.0621  0.1718
11560W        W28407  11.886  11.449  13.444  0.0191 -0.1497 -0.2547
11561W        W28408  18.121   7.687   0.295  0.0244  0.1828  0.0570
11562W        W28409  17.147   5.203  10.727 -0.1145 -0.1860  0.1183
11563W        W28410  15.972   4.531   3.540  0.0866  0.3511  0.0662
11564W        W28411  18.034   9.858   3.096 -0.1781  0.1674  0.1005
11565W        W28412   5.679  13.146   3.918 -0.2635 -0.1505  0.2363
11566W        W28413  13.029   3.391   2.646  0.1393 -0.0343  0.1627
11567W        W28414   4.336   5.215   4.793 -0.1325 -0.2943 -0.1508
11568W        W28415   2.180  16.789   1.748 -0.1121  0.0683 -0.0431
11569W        W28416   0.127   4.454  15.356  0.0759  0.1176 -0.3159
11570W        W28417   3.097   4.903  15.387  0.1885  0.0979 -0.1781
11571W        W28418  16.594  15.629   3.036  0.0511  0.0723 -0.2790
11572W        W28419   0.474  15.880  15.342 -0.0553 -0.5533  0.0622
11573W        W28420   4.352   7.338   0.126 -0.0470 -0.1676  0.0341
11574W        W28421   1.163  12.021  16.134  0.0628 -0.1821  0.0863
11575W        W28422   4.058  18.102   0.974 -0.1806 -0.0576  0.1276
11576W        W28423   6.171  12.188  15.187 -0.0192  0.0457 -0.3287
11577W        W28424   2.771   0.047   2.463 -0.2005 -0.2258 -0.2462
11578W        W28425  11.111  18.243  13.011  0.3237  0.0580 -0.1087
11579W        W28426  15.793  11.659   4.369  0.2063 -0.0781 -0.2519
11580W        W28427  12.884   4.435   1.684 -0.1181 -0.0502  0.0459
11581W        W28428  17.590   6.751   2.268 -0.0978 -0.0145 -0.1316
11582W        W28429  15.411   3.532  14.386  0.0781 -0.2043 -0.2011
11583W        W28430   4.433   0.910  16.114 -0.1260 -0.0025  0.1917
11584W        W28431  11.582   0.227   1.843 -0.4192 -0.2768  0.2714
11585W        W28432  16.673  15.991  14.369 -0.0694  0.0132  0.2046
11586W        W28433  12.520   6.671  15.889 -0.2232 -0.1206  0.2407
11587W        W28434  14.480   9.588   1.508 -0.1480 -0.0104 -0.1148
11588W        W28435   2.822   8.575  12.855 -0.0130  0.1131 -0.2192
11589W        W28436  15.010  11.422   0.210  0.0830  0.1485  0.0897
11590W        W28437   0.563  15.188  11.935 -0.1443 -0.2948  0.1301
11591W        W28438  16.390   5.572   2.709  0.0471 -0.1858  0.0040
11592W        W28439  12.834   5.653  14.114 -0.0997 -0.2717  0.2575
11593W        W28440   8.989   2.652  14.827 -0.0615 -0.3591 -0.0368
11594W        W28441  15.480   3.360  11.238  0.1948 -0.1185  0.3336
11595W        W28442  12.352   8.685  15.235 -0.1356 -0.2192 -0.0383
11596W        W28443   4.429   7.998   3.875  0.4714 -0.1553  0.1116
11597W        W28444   0.725   6.769   1.963  0.2408 -0.1629  0.0163
11598W        W28445  10.767  14.498  12.764 -0.2702  0.1204 -0.2043
11599W        W28446  11.916  12.114   0.584  0.2109  0.1204 -0.0858
11600W        W28447   9.971  10.053   5.518 -0.3095 -0.0636  0.6480
11601W        W28448  12.618   0.535  14.896  0.1116  0.0133 -0.1718
11602W        W28449   7.771  12.493   2.453 -0.0486 -0.1147 -0.0606
11603W        W28450  11.121   1.467  13.426  0.2487  0.0575 -0.0684
11604W        W28451   7.081   8.101   0.373  0.0172  0.4025 -0.0802
11605W        W28452  17.719  12.117  13.874  0.2598 -0.0539  0.0197
11606W        W28453  13.782  10.227   2.750  0.0058  0.0706 -0.2260
11607W        W28454   6.994   4.296   4.084 -0.2779  0.3817  0.0104
11608W        W28455   2.513  13.270  14.316 -0.1793 -0.0270  0.1311
11609W        W28456  14.651  12.196   5.229  0.1675 -0.0726  0.1265
11610W        W28457   9.518   7.717   4.114  0.1827 -0.0798  0.0381
11611W        W28458   8.240  12.570   3.884 -0.4161 -0.0285 -0.0456
11612W        W28459  12.400  18.386   1.347 -0.0162  0.1533 -0.3959
11613W        W28460  16.356  10.896  14.932  0.0484  0.1325  0.3525
11614W        W28461   6.010   6.691   0.613  0.1982  0.2333 -0.0099
11615W        W28462   5.304   7.394  13.447  0.3530  0.2333  0.0070
11616W        W28463   0.993   1.844   3.737  0.2355 -0.1451  0.2388
11617W        W28464   4.489  14.006   2.387  0.2173  0.1133 -0.0232
11618W        W28465   9.918   3.948  12.036  0.0361 -0.1112 -0.1442
11619W        W28466  16.718  11.209  13.289 -0.2717  0.0473 -0.1713
11620W        W28467  13.807  10.910   5.259  0.0214  0.0290  0.0326
11621W        W28468   3.028   9.209   1.606 -0.0707 -0.3171  0.1150
11622W        W28469   1.385   3.084  13.361  0.1583  0.0147  0.0302
11623W        W28470   2.365  14.545   2.586 -0.3352  0.1926  0.2464
11624W        W28471  15.396   5.567  15.487 -0.2531 -0.0428  0.0825
11625W        W28472   5.815  18.079   4.735  0.0423  0.0465  0.4066
11626W        W28473  17.933   5.189  14.221  0.2094  0.0537 -0.0932
11627W        W28474   9.830   4.602   4.032  0.0329  0.1381 -0.2189
11628W        W28475  14.607   9.142   4.195 -0.1035 -0.1142 -0.2267
11629W        W28476  16.884  14.124  14.337  0.0034 -0.0444  0.1715
11630W        W28477  14.615   9.696  12.912 -0.0765  0.1621  0.0794
11631W        W28478  15.923   5.706   2.549  0.0977  0.1387  0.2344
11632W        W28479  13.731   8.540  13.461  0.0308  0.3514  0.3014
11633W        W28480   8.818  17.008   1.078 -0.0707 -0.1362 -0.2173
11634W        W28481   7.809   3.086   1.677 -0.0710 -0.1866  0.1955
11635W        W28482  18.112   4.450  16.311  0.0154 -0.2019 -0.1940
11636W        W28483  13.995   3.734  14.817  0.0187  0.2192  0.3134
11637W        W28484   0.711  14.583  12.595  0.1250 -0.1397 -0.1554
11638W        W28485   3.712  10.184   1.493  0.0002  0.0675 -0.3764
11639W        W28486   9.670   1.992  13.515 -0.0564 -0.1352 -0.1621
11640W        W28487   5.613   6.693   3.836  0.1174  0.0244  0.0416
11641W        W28488  13.152  15.118  11.838  0.0669  0.1475 -0.0184
11642W        W28489   7.596   5.906   0.451 -0.1542  0.0757 -0.0951
11643W        W28490   8.276   2.115   0.559  0.1308  0.0680 -0.0508
11644W        W28491  14.677  10.038   4.677 -0.3370  0.2417 -0.0386
11645W        W28492   3.945   3.830  15.688  0.1040  0.0993 -0.1672
11646W        W28493  11.850   9.345   2.947 -0.0058  0.2940 -0.2119
11647W        W28494   7.974  17.659  11.931 -0.2543 -0.0702  0.2215
11648W        W28495  14.679  12.730   5.204 -0.1404 -0.2561  0.1921
11649W        W28496   8.525   2.315   0.919  0.1393 -0.2466  0.2460
11650W        W28497   6.323   7.530   4.697 -0.2872  0.0344  0.1663
11651W        W28498  14.117   6.079   4.317  0.4073 -0.1716  0.0254
11652W        W28499  10.047  10.939  12.137 -0.1958 -0.1126 -0.0595
11653W        W28500   2.826  14.377   3.476 -0.1558 -0.0793 -0.0443
11654W        W28501   9.279  11.970   3.028 -0.1697  0.0530 -0.1808
11655W        W28502   2.263  16.647  11.939 -0.0422 -0.0787  0.1858
11656W        W28503   5.979   3.344  13.788 -0.2575 -0.3214 -0.1776
11657W        W28504   9.600  10.215  11.574 -0.0526  0.0310  0.0488
11658W        W28505   3.038   6.857  10.432  0.2137  0.1785 -0.1230
11659W        W28506  16.094  15.607   0.827  0.1867 -0.3023  0.1182
11660W        W28507   4.026   6.856   2.264 -0.0849  0.0977  0.4648
11661W        W28508   4.795  15.764   4.768  0.2777 -0.2402  0.2333
11662W        W28509  14.299   9.550   5.402 -0.0379 -0.0464  0.0374
11663W        W28510   5.586   9.121  12.595 -0.3648  0.1908  0.2579
11664W        W28511  14.376  14.669  12.066  0.2587  0.1558 -0.0929
11665W        W28512  17.157   6.525  12.019  0.3896 -0.1722 -0.3398
11666W        W28513   6.602  11.155   2.093  0.1748  0.2077  0.0253
11667W        W28514   8.245   4.328  13.801 -0.2565 -0.0637  0.1517
11668W        W28515   4.811   5.251   4.325 -0.3305  0.0794  0.1965
11669W        W28516  11.442  12.278   5.657 -0.0842  0.2195  0.2182
11670W        W28517  11.768   1.480   1.759  0.0164  0.0719  0.3693
11671W        W28518  10.769   6.031  16.104 -0.0329  0.3142  0.0985
11672W        W28519  16.985   7.626  14.794  0.1567 -0.0324  0.1345
11673W        W28520  17.383   0.951   0.702 -0.3471 -0.2385 -0.1682
11674W        W28521   9.836  11.816   2.448 -0.1348  0.3706 -0.0977
11675W        W28522   6.708   3.836   0.818  0.3605  0.2087  0.1303
11676W        W28523   2.096   4.492  10.648 -0.0155  0.4943  0.1574
11677W        W28524   1.543   2.396  11.100 -0.0972  0.0340 -0.0529
11678W        W28525   0.774  12.473   1.026  0.2966 -0.0903 -0.0708
11679W        W28526  16.818   8.807   4.128  0.1178 -0.0279  0.1768
11680W        W28527  17.231   9.082   4.597 -0.1684 -0.2886 -0.0536
11681W        W28528   3.783   0.673  14.088 -0.0193 -0.1178  0.1560
11682W        W28529   6.278   6.504   4.895  0.0005 -0.1875 -0.4111
11683W        W28530  12.655  14.535   0.093  0.0544  0.4900  0.0217
11684W        W28531  11.859  17.229   5.215 -0.1386  0.0677  0.0117
11685W        W28532  14.910  16.899  11.192  0.3388  0.1216  0.3615
11686W        W28533  12.448   9.200   2.076  0.1503  0.0952  0.0475
11687W        W28534   9.970  16.487  11.772  0.2083  0.3691  0.0944
11688W        W28535   7.110   0.445   3.150 -0.0238 -0.1586  0.2542
11689W        W28536   2.546  14.017   5.486 -0.0274 -0.0016  0.1368
11690W        W28537   2.110  17.918   3.382  0.3616  0.2970 -0.2608
11691W        W28538   3.963   4.836  11.307  0.1346  0.1578 -0.1204
11692W        W28539   7.777  14.949   1.984  0.0407  0.1965 -0.1264
11693W        W28540  18.262   8.433  12.880  0.0297  0.1727 -0.2644
11694W        W28541   7.992  10.371   4.770 -0.0039  0.1164 -0.0775
11695W        W28542   0.966   1.683  13.695  0.2718  0.1346 -0.1532
11696W        W28543  17.870  18.073  14.316  0.0068  0.2859 -0.2731
11697W        W28544  17.521   7.735  11.789 -0.0422 -0.2034  0.2290
11698W        W28545   6.618  15.680   4.177  0.0748  0.2088  0.0839
11699W        W28546   7.456   6.829  15.027 -0.1401 -0.1487 -0.2284
11700W        W28547  13.596   7.536  13.488  0.1058  0.1260 -0.0965
11701W        W28548  11.610  11.645  13.870 -0.0344  0.0411  0.0196
11702W        W28549   9.214  13.447  12.542 -0.0373 -0.1058  0.0012
11703W        W28550   1.075   7.061   4.536  0.1768 -0.0289 -0.2780
11704W        W28551   7.856   4.215  14.104 -0.1407 -0.0058  0.2016
11705W        W28552  12.934  15.290   2.293 -0.0529 -0.1014 -0.0894
11706W        W28553   4.260   0.690  13.910 -0.1870 -0.0246  0.0277
11707W        W28554  12.509   0.288   2.127 -0.0551 -0.1016  0.1581
11708W        W28555   9.634  15.455  13.068 -0.0699 -0.0256  0.2299
11709W        W28556  14.238  18.350   1.225 -0.1811 -0.4803  0.0756
11710W        W28557  11.016   6.161  11.902 -0.0968 -0.0477  0.0946
11711W        W28558  16.297  16.488   2.774 -0.1707 -0.0154  0.2208
11712W        W28559   7.251  14.317  15.490 -0.1481 -0.0245  0.2520
11713W        W28560  14.943   2.967  11.899  0.5395 -0.2580 -0.1240
11714W        W28561  18.013  17.498  15.980  0.0641  0.3112 -0.1387
11715W        W28562   8.757  12.494  12.625  0.2603 -0.1635  0.1275
11716W        W28563   6.878   4.254  12.914  0.5600  0.1000  0.0235
11717W        W28564  15.643   0.621  11.797 -0.2413  0.1332 -0.2282
11718W        W28565   1.170   2.655   4.086 -0.0316  0.0718  0.2915
11719W        W28566   8.844   5.403  14.728 -0.1194 -0.1302 -0.3046
11720W        W28567   0.308   7.824  12.101 -0.1202 -0.0495  0.0667
11721W        W28568  17.303  13.793  15.678  0.0178 -0.2602 -0.1094
11722W        W28569   8.293   3.223   1.494  0.2187  0.2887 -0.4918
11723W        W28570  14.155  15.196  15.569 -0.0666  0.1956  0.1518
11724W        W28571  14.427   8.919   2.326 -0.0319 -0.4499 -0.2947
11725W        W28572  13.994  14.804   2.942  0.0525  0.1600  0.0204
11726W        W28573   7.047   1.272   2.857  0.0902 -0.1202 -0.2025
11727W        W28574   4.689   4.048  12.423  0.1838 -0.4538  0.2677
11728W        W28575  12.748   4.177  14.850  0.1785 -0.2313 -0.2332
11729W        W28576  12.616   5.116  12.548 -0.1040  0.0256 -0.0559
11730W        W28577  17.041  12.982   3.763  0.1591  0.4431 -0.3368
11731W        W28578  15.052  14.638   1.705  0.0720  0.1174 -0.1088
11732W        W28579   3.529  15.008  16.127 -0.2006 -0.0161 -0.3262
11733W        W28580   4.187   6.778   0.802  0.2490  0.3180  0.1108
11734W        W28581  18.005  13.291   4.733  0.0462  0.2015  0.1233
11735W        W28582   7.713   5.947   4.034  0.3032 -0.1120 -0.1237
11736W        W28583  10.535  18.247   5.415 -0.2919 -0.0873 -0.4213
11737W        W28584  13.819  10.240   0.502  0.4616  0.0600 -0.1370
11738W        W28585  16.822   7.298  14.477 -0.0444 -0.0091 -0.0379
11739W        W28586  17.172  11.950   4.287  0.0337  0.1374  0.4334
11740W        W28587  15.826  11.185   2.879 -0.0391  0.2754  0.3917
11741W        W28588   6.137   4.820   4.162 -0.0734 -0.0767 -0.0084
11742W        W28589   5.692   7.665   3.317 -0.3195  0.1573  0.2111
11743W        W28590   7.760  12.370   3.980 -0.0805  0.1509  0.4075
11744W        W28591  10.281   2.925  15.640 -0.2045 -0.0544  0.1327
11745W        W28592  17.334   7.924  13.833 -0.0892 -0.0481 -0.1042
11746W        W28593   1.495  10.761   2.300  0.0516 -0.0073  0.0695
11747W        W28594  10.259   0.043   0.048  0.0370  0.0769  0.1332
11748W        W28595  10.846   3.262  11.270  0.4261 -0.0180 -0.2594
11749W        W28596   6.592  17.081   5.114 -0.0416 -0.3492 -0.2367
11750W        W28597   5.019  16.594  15.025  0.1468  0.0369 -0.2572
11751W        W28598   4.213  10.690   0.872  0.3176 -0.2083 -0.1026
11752W        W28599  16.021  14.538  12.306 -0.0320  0.0475  0.1549
11753W        W28600   6.785   6.150  11.137  0.0215 -0.1858 -0.0788
11754W        W28601   5.946   8.008   3.681  0.0071  0.1311 -0.1512
11755W        W28602   4.631  10.752  12.557 -0.0438 -0.3945  0.1045
11756W        W28603  17.014   8.599   4.535  0.1020 -0.1428 -0.1605
11757W        W28604   4.035  17.607   3.753  0.1938  0.3440 -0.0938
11758W        W28605  10.698  14.828  14.347  0.0199 -0.0049 -0.0474
11759W        W28606   5.383  14.331  15.117 -0.1111  0.2974 -0.0108
11760W        W28607  10.999  16.883  13.574 -0.2444  0.0317 -0.3025
11761W        W28608  17.916  17.887   3.394  0.2123  0.0393  0.1283
11762W        W28609  12.948   1.168   2.147  0.3677  0.1666  0.3173
11763W        W28610   3.289  14.574   1.785  0.2685 -0.0668  0.1187
11764W        W28611  17.069   1.119  16.025  0.1911 -0.0124  0.0258
11765W        W28612  18.314   3.437  15.526  0.2234 -0.0398  0.0043
11766W        W28613  17.236   0.912  11.260  0.1331 -0.0312  0.0544
11767W        W28614   5.628  10.798  11.907 -0.0739 -0.1330  0.1140
11768W        W28615   9.797  12.323  11.502  0.1269  0.2233  0.0668
11769W        W28616   6.055  13.156  11.801  0.0845  0.0750 -0.0615
11770W        W28617  13.517  12.923  14.394 -0.1029 -0.3151  0.0440
11771W        W28618  13.574   3.620   2.558 -0.0289  0.2216 -0.1422
11772W        W28619  13.877   5.918   2.977  0.1861  0.0028  0.0939
11773W        W28620   8.471  17.002   6.757  0.1685 -0.1774  0.1523
11774W        W28621  13.917   5.495   2.603 -0.1855 -0.0313 -0.1595
11775W        W28622   2.935   4.340   0.413 -0.1096 -0.0480 -0.0963
11776W        W28623   3.518   3.966   1.471  0.0106 -0.1948 -0.1105
11777W        W28624   9.259  16.058   5.540  0.0670 -0.2412  0.1105
11778W        W28625   1.489   6.020  11.374 -0.0572 -0.1112 -0.1398
11779W        W28626   1.773  13.613   4.539  0.1106  0.0116  0.2630
11780W        W28627   6.599  14.138  15.042 -0.3194 -0.2434 -0.0071
11781W        W28628   0.320   7.972  15.304  0.1371  0.1234 -0.0991
11782W        W28629   0.500   9.084   0.617 -0.0816 -0.2580 -0.0521
11783W        W28630  13.416  17.820   3.328  0.3100  0.1487 -0.1008
11784W        W28631   1.752   2.860  16.011  0.1642 -0.0701  0.2403
11785W        W28632  13.692  11.881   1.135 -0.0458  0.0029 -0.2091
11786W        W28633  17.261   5.821   2.970 -0.1873 -0.2592 -0.2491
11787W        W28634   3.948   7.161  11.137 -0.0530 -0.0697 -0.3771
11788W        W28635   2.885  15.874  14.887 -0.1443 -0.2343 -0.0936
11789W        W28636   8.086   6.853  13.814  0.2254  0.2671 -0.3177
11790W        W28637  10.602  13.494   3.382  0.3344 -0.0520  0.0304
11791W        W28638  10.122   3.416   5.435  0.0354  0.1657  0.0682
11792W        W28639   9.351   4.192  15.163  0.3455  0.1712 -0.0247
11793W        W28640   0.783  11.478  16.077 -0.0719  0.0595  0.0161
11794W        W28641  13.277   1.158  16.095 -0.1135  0.0933  0.0610
11795W        W28642  15.709   5.593  10.825  0.1658  0.1692 -0.0858
11796W        W28643  15.735  14.790   4.197  0.0795  0.1788 -0.2621
11797W        W28644   5.532   8.123   1.525  0.1463 -0.0317 -0.0636
11798W        W28645   0.647  11.657   1.083  0.0807  0.1972 -0.3773
11799W        W28646   0.180  16.604  16.314  0.0724  0.5954 -0.3137
11800W        W28647  14.836  15.065  12.828  0.0785  0.0122 -0.1727
11801W        W28648  15.338   5.111   0.594 -0.3748 -0.2490  0.0730
11802W        W28649  17.085   3.007  16.310 -0.0824  0.0525 -0.0693
11803W        W28650  14.417  12.277   1.542  0.0500  0.0721  0.0790
11804W        W28651  17.209   6.543   1.426 -0.0264  0.2770 -0.0464
11805W        W28652   5.482   7.029   2.015  0.0973 -0.1541  0.1881
11806W        W28653   5.774   9.272   5.485 -0.1929  0.1860  0.0454
11807W        W28654  18.154  13.286  15.524 -0.1048  0.1754 -0.1611
11808W        W28655  15.350  11.623   4.177  0.0401  0.2681 -0.0671
11809W        W28656   6.236  12.216   3.780 -0.1209  0.2067  0.1067
11810W        W28657   5.040   1.654   5.081  0.4636 -0.1051 -0.0999
11811W        W28658   8.569   6.928  14.064  0.2920 -0.0397  0.2847
11812W        W28659   0.205  15.265  13.558 -0.1454  0.1497  0.0249
11813W        W28660   0.523  13.233   6.234 -0.2212 -0.1112  0.0592
11814W        W28661  13.213   5.593   3.555  0.2068  0.0883  0.0170
11815W        W28662  14.745  15.107  12.095 -0.0389  0.2364  0.1711
11816W        W28663   4.710   2.908  11.417  0.3181 -0.0027 -0.0561
11817W        W28664   7.015  13.645   3.622 -0.1143 -0.0809  0.0109
11818W        W28665   0.007  12.408   3.843  0.2546  0.0041  0.5202
11819W        W28666   0.859  10.453   2.901  0.0993 -0.2795  0.3345
11820W        W28667  15.940   4.881  14.636 -0.2218 -0.2843 -0.0527
11821W        W28668   8.882   1.696   1.678 -0.0218  0.1021 -0.1392
11822W        W28669   6.419   9.275  14.832 -0.2528 -0.0561  0.2458
11823W        W28670  12.503   3.859   4.013 -0.0975  0.0392  0.2776
11824W        W28671  12.642  11.549   1.557 -0.2471  0.0735  0.1421
11825W        W28672  15.684  14.123  11.469 -0.0728  0.2301  0.0139
11826W        W28673   0.472   5.764  12.744 -0.0354 -0.0966 -0.2135
11827W        W28674  10.983   3.390  13.421  0.2480  0.0140 -0.2360
11828W        W28675   4.758  13.894  14.596 -0.3249 -0.0036  0.3135
11829W        W28676   5.709   2.890   0.284  0.3440 -0.1186 -0.3643
11830W        W28677   4.804   0.933  13.457  0.1586  0.3721 -0.2600
11831W        W28678  13.467   6.974   1.942  0.0884  0.2382 -0.0111
11832W        W28679  17.936   9.612   4.374  0.3739 -0.4636  0.0366
11833W        W28680   8.474   3.493   2.826  0.2898 -0.2313 -0.1400
11834W        W28681   3.325  14.549  15.441 -0.0718 -0.1024  0.0127
11835W        W28682   4.415  15.082   3.613 -0.0745 -0.1796  0.0437
11836W        W28683   0.845  14.890   4.864 -0.2401  0.4452 -0.1781
11837W        W28684   9.622  11.286  14.411 -0.1166  0.1147  0.1633
11838W        W28685   9.920   2.969  14.702 -0.0185 -0.1140  0.0025
11839W        W28686   8.357   7.202   2.317 -0.0800  0.1484  0.0613
11840W        W28687  14.858   8.734   2.521  0.2702  0.0290 -0.2138
11841W        W28688   5.244  15.157  16.216 -0.1210  0.1906  0.0381
11842W        W28689   3.881   6.604   1.398  0.1646 -0.3736  0.0771
11843W        W28690  15.273  18.222  12.661 -0.4430 -0.2049 -0.1842
11844W        W28691   8.811  16.172  14.093 -0.0120 -0.0497  0.2615
11845W        W28692   2.095  17.141   6.216  0.0014  0.2831  0.3041
11846W        W28693   9.437  16.398   0.370  0.0098  0.1439  0.1478
11847W        W28694   6.348   6.953  10.827 -0.1806 -0.1443 -0.0348
11848W        W28695   9.577   7.091   4.043  0.2398  0.0057  0.1067
11849W        W28696  15.322  17.138  15.361 -0.0392  0.1027  0.1079
11850W        W28697  14.707  11.826  12.916  0.3250  0.2830 -0.0192
11851W        W28698   0.572  11.081   4.189 -0.2452 -0.0220 -0.0469
11852W        W28699   9.919  14.699   2.905  0.0201  0.0649 -0.0458
11853W        W28700  13.431   6.689   0.856  0.0686 -0.2736 -0.0471
11854W        W28701  15.456  18.160  11.921  0.1269 -0.0948 -0.2839
11855W        W28702   0.896   0.332  16.000  0.0529 -0.0847  0.2034
11856W        W28703   4.732   0.823   4.944 -0.2724 -0.3113 -0.3414
11857W        W28704   1.341  18.128   3.743 -0.0015  0.1789  0.0828
11858W        W28705   7.535  12.081   1.480  0.2749  0.0746 -0.1412
11859W        W28706  18.066   8.306   0.443  0.0743  0.0429 -0.0264
11860W        W28707   5.284  14.412   3.863 -0.2142 -0.0419  0.3263
11861W        W28708   1.300   0.240   5.102 -0.1359  0.2710 -0.0262
11862W        W28709   3.776  14.473   1.047  0.1763 -0.2643 -0.2142
11863W        W28710  15.190   0.449  14.030  0.0759 -0.2213  0.3075
11864W        W28711   9.999   7.614  15.120  0.2430 -0.3812  0.0758
11865W        W28712  13.081   7.452   2.092 -0.0238  0.0508  0.0106
11866W        W28713   7.215  11.520  12.863  0.4044  0.2033  0.2073
11867W        W28714   1.067   6.196   4.928  0.3427 -0.1576  0.0541
11868W        W28715   0.817   4.453   2.704 -0.0933 -0.1815  0.2397
11869W        W28716   9.973   5.056  13.743 -0.1377  0.2789 -0.1991
11870W        W28717   9.744   7.692   2.506 -0.0450  0.0983  0.1441
11871W        W28718   2.215   0.543  13.834  0.0146 -0.1399  0.2834
11872W        W28719   2.599  14.241   4.408  0.1794  0.1685  0.1698
11873W        W28720  11.593  16.362  15.071  0.0279 -0.1564 -0.5661
11874W        W28721  13.342  10.867   5.121 -0.1591  0.1421 -0.3178
11875W        W28722  14.334   6.527  12.845 -0.2176  0.0648 -0.2559
11876W        W28723   1.128   9.734  15.654 -0.3556 -0.0080  0.3267
11877W        W28724  10.569  16.650   3.773  0.1286 -0.1644  0.0895
11878W        W28725  16.835  11.063  15.082  0.0051 -0.1637  0.0554
11879W        W28726  10.013  17.264   3.402 -0.0313  0.1057  0.3192
11880W        W28727  14.574   2.300   0.695  0.2555  0.0152  0.4950
11881W        W28728  10.370  13.358   0.806  0.1340 -0.0530 -0.1938
11882W        W28729   9.313   9.057  14.371 -0.1299  0.2302  0.1796
11883W        W28730  11.580   0.573  14.231 -0.2036  0.0988 -0.0194
11884W        W28731   3.847   9.121  13.394 -0.0550  0.0744  0.0206
11885W        W28732   8.071   8.106   2.836 -0.5675 -0.0630  0.0091
11886W        W28733  13.644   7.171   2.851  0.1763 -0.0770  0.3540
11887W        W28734  15.826   8.957  13.132 -0.0569 -0.3068 -0.2707
11888W        W28735  14.522  13.278   2.657  0.0773 -0.4354  0.2984
11889W        W28736  17.909  14.602   4.825 -0.3737 -0.0132 -0.0357
11890W        W28737  12.212   2.365  14.275 -0.5672 -0.2552  0.1535
11891W        W28738   1.402   3.428  11.495  0.0139 -0.0239 -0.1053
11892W        W28739   4.265   4.342   4.373  0.5252 -0.0096  0.1369
11893W        W28740   0.500  12.716  15.721 -0.1285  0.0138  0.2214
11894W        W28741   5.804   9.903   4.872  0.3609 -0.2579 -0.0672
11895W        W28742  16.523   4.829  14.378  0.0701  0.1406 -0.0127
11896W        W28743   1.877  15.843   3.613  0.2573  0.3046 -0.1743
11897W        W28744   4.825  12.686   3.405  0.0146 -0.1242  0.4861
11898W        W28745   4.776  10.900   0.179 -0.2941  0.1513 -0.0286
11899W        W28746  13.088  15.211   1.518  0.2421 -0.2909 -0.2463
11900W        W28747   6.518   1.553  15.996  0.0632  0.2267 -0.0367
11901W        W28748   3.090  13.347  14.912  0.2263  0.4798  0.0621
11902W        W28749  13.112  13.986  12.792  0.1866  0.2093 -0.0319
11903W        W28750  16.860  15.581   4.858 -0.1825 -0.0666 -0.3633
11904W        W28751   3.889  17.058   2.068  0.0227  0.0169 -0.0967
11905W        W28752  14.804   6.590   1.258  0.1722 -0.1240 -0.2453
11906W        W28753  11.899  16.674   3.249 -0.1524  0.3083 -0.3646
11907W        W28754  13.854   4.773   2.044  0.1707 -0.0398 -0.1295
11908W        W28755   3.782  17.289  12.510  0.0382  0.2528 -0.0675
11909W        W28756   0.481   0.404   0.431  0.1685 -0.1549  0.3707
11910W        W28757  10.318   9.187   5.279 -0.2987 -0.2417  0.0983
11911W        W28758  11.975  17.777  14.167 -0.0053  0.0557  0.0703
11912W        W28759   3.228  12.365  15.913  0.2454 -0.2524 -0.1256
11913W        W28760  13.920   2.589  14.645  0.0884  0.0910  0.3085
11914W        W28761  14.745  18.166   5.294  0.0229  0.1209  0.1947
11915W        W28762  11.073  12.209   1.311  0.2370 -0.0407 -0.1574
11916W        W28763   3.031   8.719   5.389 -0.2104 -0.1478  0.0584
11917W        W28764   2.571  11.637   3.272  0.1131  0.0384  0.1189
11918W        W28765  10.116  12.863  14.898 -0.0813  0.2100  0.0910
11919W        W28766  16.861   8.031  12.648  0.1672  0.3894  0.0468
11920W        W28767   6.309  15.154  11.933  0.0995  0.1152 -0.1265
11921W        W28768  16.664   3.421  16.306  0.0543  0.0260  0.0034
11922W        W28769  15.926   2.320  13.536  0.0773 -0.0603  0.1904
11923W        W28770  12.754   4.984   4.988 -0.0105  0.1895  0.2288
11924W        W28771   4.397  16.345   2.550 -0.1467 -0.0579 -0.1431
11925W        W28772   7.796   6.963   3.173 -0.0570 -0.2969 -0.0940
11926W        W28773   7.839  17.000   5.469  0.2140  0.1138  0.1111
11927W        W28774  10.077   3.498   3.222  0.0023  0.3284  0.2183
11928W        W28775  11.791  11.846  12.510  0.2572  0.0485 -0.2969
11929W        W28776   1.062  14.902   2.772  0.1318 -0.1292  0.1666
11930W        W28777  10.492  12.667   3.579 -0.0099 -0.0768  0.1223
11931W        W28778  12.680   8.437  12.524 -0.4024  0.0599  0.2256
11932W        W28779   8.027   2.878   2.936 -0.0112  0.0599 -0.2470
11933W        W28780   4.498  11.559   2.847 -0.1905  0.2169 -0.2106
11934W        W28781   4.636  10.475   1.413  0.0442 -0.1157  0.1057
11935W        W28782  17.028   8.264   4.141 -0.3546 -0.0851 -0.0447
11936W        W28783  17.893   1.971  16.337 -0.0681 -0.1622  0.0098
11937W        W28784   2.433  12.913  14.713 -0.0142  0.0834  0.0532
11938W        W28785   0.027   3.127   0.467  0.2180  0.2016  0.1563
11939W        W28786  15.261   7.992   1.009 -0.1275  0.0345 -0.1263
11940W        W28787   8.869  12.994   3.315  0.0041  0.1321  0.0396
11941W        W28788  12.806  13.820  15.781  0.1137  0.0156 -0.1227
11942W        W28789  16.429   9.598  13.311 -0.1512  0.0854  0.2140
11943W        W28790   4.664   0.396   2.189  0.2543  0.2661  0.2816
11944W        W28791   5.102  13.854   2.434  0.1577  0.1333  0.1378
11945W        W28792  15.386  13.749   4.943 -0.4191  0.1540  0.0066
11946W        W28793  10.560  17.364  16.033  0.0558  0.1009  0.1539
11947W        W28794  12.301  18.008  13.816  0.0222  0.3718  0.0717
11948W        W28795  16.373  13.388  16.363  0.0662  0.0544  0.1382
11949W        W28796  12.473  15.157   5.005 -0.1109 -0.1024  0.0694
11950W        W28797   1.754  17.764   0.940  0.1329 -0.0122 -0.2426
11951W        W28798   8.278   7.345   0.116 -0.1255 -0.2537  0.1567
11952W        W28799  15.629   8.521  13.128  0.3964 -0.0513  0.0333
11953W        W28800   3.838   2.619   5.348  0.3003 -0.3392  0.1441
11954W        W28801  13.564  14.459   0.805 -0.1811 -0.3034  0.0186
11955W        W28802  15.959  12.451   2.605  0.1269 -0.0274 -0.2117
11956W        W28803   9.387   8.385   3.447  0.1368  0.1011 -0.1782
11957W        W28804   3.019   7.204   4.763 -0.0008  0.0969  0.0553
11958W        W28805  13.100  10.377   5.188 -0.0699 -0.0733  0.1264
11959W        W28806   2.437   7.079  11.280 -0.1902  0.0778  0.1233
11960W        W28807  17.693  17.225  14.434 -0.0168  0.1099 -0.0891
11961W        W28808   4.549  13.216   5.868 -0.2722 -0.3676  0.3240
11962W        W28809  12.300  13.406  15.052 -0.1634  0.0014 -0.3612
11963W        W28810   8.837  16.462   3.550 -0.1537 -0.3069 -0.1597
11964W        W28811   4.730   4.802   0.923  0.2336  0.0260  0.1701
11965W        W28812   0.073   1.513   4.200  0.1706 -0.0403  0.0836
11966W        W28813   2.963   2.551   2.131 -0.2247 -0.0058 -0.0530
11967W        W28814  16.000   1.147   1.964 -0.0453 -0.1382 -0.3537
11968W        W28815   2.446  12.579  16.373  0.1034  0.0127 -0.4005
11969W        W28816  10.075  14.225   2.757  0.2360  0.3051 -0.3065
11970W        W28817  10.631  11.493  15.588  0.1792 -0.1667 -0.1906
11971W        W28818  14.226  15.765  11.444  0.1136  0.1987 -0.3084
11972W        W28819   3.683   1.754  12.714 -0.1686  0.5063  0.1098
11973W        W28820   4.340   6.989  16.188  0.2567  0.3603  0.0746
11974W        W28821   6.973   7.692   5.451 -0.1790 -0.0871 -0.1600
11975W        W28822  15.406   4.364   2.909 -0.0790 -0.3183  0.2173
11976W        W28823  13.520  11.256   2.563  0.0706  0.0909  0.1117
11977W        W28824   4.826  12.570  15.146 -0.2061 -0.0114 -0.0536
11978W        W28825   8.648  15.666  14.286 -0.0958  0.1923  0.1713
11979W        W28826   1.828  13.138   2.289 -0.1152  0.3744  0.2274
11980W        W28827   2.475  13.286  13.760  0.2606  0.1162 -0.1607
11981W        W28828  16.710   6.105  12.814 -0.0719 -0.1865  0.2885
11982W        W28829  17.619  16.438  11.534  0.1421 -0.2099  0.3248
11983W        W28830   9.832  12.189  15.957  0.2832 -0.2583 -0.0561
11984W        W28831   2.377   1.510  11.282  0.1090  0.3824  0.0283
11985W        W28832   1.893  11.314   3.892 -0.4679 -0.0262 -0.0751
11986W        W28833  11.283  10.011   5.759 -0.0905 -0.0916  0.1350
11987W        W28834   8.424   9.563  11.795  0.0883  0.2272  0.0383
11988W        W28835   7.681   2.792  14.296  0.2015  0.1854  0.0816
11989W        W28836   6.958   4.284   0.580 -0.0526  0.2389 -0.2004
11990W        W28837  15.350  11.295   1.128 -0.0764  0.1192  0.3482
11991W        W28838  12.313   2.592   0.682  0.0462  0.1257  0.1360
11992W        W28839  11.195   7.491   1.130 -0.0158 -0.1404 -0.3666
11993W        W28840   3.618  11.745   1.004 -0.2258  0.0075  0.1847
11994W        W28841   3.780  16.380   3.442 -0.1703  0.1935  0.3191
11995W        W28842  11.128  17.189   1.834  0.0374  0.1684 -0.0335
11996W        W28843  11.421   7.187   2.385 -0.0396 -0.1245  0.3303
11997W        W28844   6.303   7.684  11.701  0.0535  0.0412 -0.3140
11998W        W28845  16.837  10.356  15.421  0.0982  0.3656  0.0172
11999W        W28846  18.161   1.547   3.542  0.2970 -0.0901 -0.1076
12000W        W28847   3.314  14.945   3.304 -0.0527 -0.1880  0.2096
12001W        W28848   4.286  13.596   4.509 -0.1304  0.2324  0.0051
12002W        W28849   3.873   7.992   2.876 -0.1529 -0.0609 -0.0658
12003W        W28850   2.055  16.069  12.175 -0.0369 -0.2119 -0.2126
12004W        W28851  10.704  16.026   4.923  0.0550 -0.1671 -0.1566
12005W        W28852   5.042   6.234  11.804 -0.2350 -0.0384 -0.0784
12006W        W28853  15.014   3.365  14.135 -0.1787 -0.3201  0.1914
12007W        W28854   5.422   3.917  11.655 -0.0663 -0.2290  0.0302
12008W        W28855  14.341  14.042  13.481 -0.2734 -0.0470 -0.0962
12009W        W28856   8.489   6.768   4.550  0.1921 -0.3634 -0.0787
12010W        W28857  13.796   1.807  11.603 -0.1996 -0.1383  0.3012
12011W        W28858  16.429  10.649  14.385 -0.3618 -0.0275 -0.4087
12012W        W28859   9.886   5.006  14.976 -0.2428  0.2821  0.1461
12013W        W28860   9.531  14.044   0.661  0.0752 -0.1111  0.0239
12014W        W28861  15.530  15.135   2.913  0.1037 -0.0275  0.2437
12015W        W28862   3.151   5.492   2.816 -0.0126  0.0317  0.0798
12016W        W28863  10.916  12.669   0.061 -0.0269  0.0528  0.1045
12017W        W28864   6.688   0.848   4.437 -0.1248  0.0396  0.0995
12018W        W28865  15.534  15.771   3.038  0.2837  0.1113 -0.1276
12019W        W28866   1.322  15.016   4.616  0.2917 -0.1972 -0.0007
12020W        W28867   0.239   3.203   5.070 -0.0667  0.2281  0.1707
12021W        W28868  15.041   9.173  15.118 -0.0883 -0.1584 -0.0288
12022W        W28869  16.184   7.882   2.468 -0.0547  0.1196  0.0327
12023W        W28870  10.112  17.807   5.379  0.4676  0.1308 -0.0541
12024W        W28871  17.923  13.777   2.638  0.5427  0.0858  0.0170
12025W        W28872  17.812  17.017  15.886  0.4415 -0.3563 -0.2962
12026W        W28873   0.405   6.314  13.031  0.0702 -0.1416 -0.2521
12027W        W28874  17.681   7.842   4.485 -0.0680 -0.2820  0.0706
12028W        W28875  15.581  14.337   5.379  0.2169  0.2748  0.1062
12029W        W28876  18.288   5.460   2.674  0.1498 -0.4715  0.1763
12030W        W28877   3.987   4.092   2.591 -0.0090  0.2950 -0.0692
12031W        W28878  10.140  10.121   1.314  0.1224 -0.0323 -0.0931
12032W        W28879   3.009   9.915  14.540 -0.1586 -0.0090 -0.4419
12033W        W28880   0.637  10.270  16.305 -0.0116 -0.1183 -0.3235
12034W        W28881   4.231   9.741  15.463 -0.0720 -0.2080  0.0288
12035W        W28882  11.524   4.392   2.932  0.1872 -0.2327  0.0631
12036W        W28883   9.030  10.175   3.637 -0.2307  0.1420  0.1294
12037W        W28884   0.345  14.133   4.525  0.0274 -0.0884 -0.1196
12038W        W28885   2.788  12.300   3.850 -0.2326  0.0841  0.1616
12039W        W28886  17.410   9.966  11.906  0.0269 -0.0872  0.2380
12040W        W28887   8.491  12.281   4.720 -0.2091  0.0827 -0.5287
12041W        W28888  12.891   8.225   5.008  0.2590  0.3039 -0.1460
12042W        W28889  12.194   6.224   2.866 -0.1513 -0.0337  0.0186
12043W        W28890  11.070   9.429  13.649 -0.3343  0.2120  0.0756
12044W        W28891  12.811   0.156   3.580  0.1505  0.1494  0.2271
12045W        W28892   0.137   4.396   0.612 -0.1712  0.2813  0.3381
12046W        W28893   4.569   6.953   2.757  0.0732 -0.1867  0.0637
12047W        W28894  17.803  11.516   4.419 -0.1003 -0.3313  0.0163
12048W        W28895  14.663   3.716   3.352 -0.1622 -0.0330 -0.1579
12049W        W28896   4.889  15.696   2.135 -0.1270 -0.1650  0.0918
12050W        W28897  11.718  13.001   0.869  0.1235 -0.0608 -0.0222
12051W        W28898   5.546  16.664   6.155  0.2827  0.3829  0.0746
12052W        W28899  13.556  14.880   3.714  0.1259 -0.1622  0.1158
12053W        W28900  12.956  12.908   2.906  0.2247 -0.0305  0.0300
12054W        W28901  16.082   5.995  14.484  0.0029  0.5085 -0.1976
12055W        W28902  13.863  14.439   5.289 -0.0947 -0.0264 -0.1668
12056W        W28903  10.726  10.539   1.708  0.1710 -0.2332 -0.0714
12057W        W28904   0.271  11.434   5.498 -0.0530 -0.0804  0.3085
12058W        W28905   1.630   1.114  13.876 -0.1691 -0.2716  0.1041
12059W        W28906  12.101   9.445   2.496 -0.0802 -0.2284  0.4022
12060W        W28907  18.143  14.365  15.530 -0.0300  0.3260  0.1057
12061W        W28908  12.515   2.772  15.893 -0.0443 -0.0745  0.1724
12062W        W28909   6.704  15.665  13.659  0.1765 -0.4354  0.3461
12063W        W28910   0.928  16.729   3.829 -0.1391 -0.1818 -0.1056
12064W        W28911  13.391  10.465   4.799 -0.0253 -0.4472 -0.0697
12065W        W28912  16.043   9.270   1.132  0.1165 -0.0784 -0.2524
12066W        W28913   5.372   7.713  12.519 -0.0144 -0.1392 -0.0422
12067W        W28914   4.156   8.442  13.538  0.0139  0.1945  0.0804
12068W        W28915  10.445   3.782   5.126  0.1948  0.0302  0.0188
12069W        W28916   9.412   3.183   2.959  0.1974  0.4576 -0.1911
12070W        W28917   4.027  11.444   0.689  0.0288  0.1503  0.0467
12071W        W28918   2.252   0.599  11.855 -0.0427 -0.1020  0.1358
12072W        W28919   7.915  13.793   3.285  0.4569  0.0190 -0.1149
12073W        W28920   4.603   6.391  14.980  0.3969  0.0413  0.2184
12074W        W28921  12.486  11.471  10.575  0.3789 -0.1143 -0.0445
12075W        W28922  10.298  13.756   5.437 -0.0724  0.2630 -0.0092
12076W        W28923   3.875   6.416  12.873 -0.4433  0.0331 -0.1236
12077W        W28924  17.456   9.029   2.095 -0.1726 -0.0755  0.1208
12078W        W28925   5.848  17.906   2.865 -0.1500  0.1456  0.0545
12079W        W28926   5.636  12.691  16.078 -0.0916  0.0384 -0.0601
12080W        W28927  16.092   2.553  11.158  0.1854  0.0102  0.2310
12081W        W28928   0.373  18.004   3.534 -0.1758  0.0958 -0.1939
12082W        W28929  12.887  11.899  11.410  0.2387 -0.2312 -0.4402
12083W        W28930   6.588   0.070   1.204 -0.1250 -0.0745 -0.0328
12084W        W28931   9.934   7.511  13.907  0.2372 -0.3246  0.1314
12085W        W28932   3.956   3.191  11.789  0.1935  0.2011  0.0207
12086W        W28933  12.836  16.772  10.304  0.0093  0.0152  0.2043
12087W        W28934   4.491   1.930  16.162 -0.2907 -0.0223  0.0446
12088W        W28935   6.549   4.131  15.391 -0.0436  0.1148  0.1033
12089W        W28936  11.460   3.954   2.615  0.2684  0.2934 -0.2323
12090W        W28937   2.266   8.861   4.823  0.1001  0.1798 -0.1526
12091W        W28938   5.517  17.868   5.467 -0.1925 -0.3558 -0.0884
12092W        W28939   6.590   4.592   2.825  0.1055  0.0345 -0.0244
12093W        W28940  10.556   8.774   2.490  0.0255  0.0166  0.1522
12094W        W28941   9.227   4.614   4.168 -0.3047  0.3084  0.1433
12095W        W28942  12.478   2.847  15.342  0.0212 -0.0917  0.0348
12096W        W28943   4.186   5.837  13.610 -0.2921  0.1533  0.2365
12097W        W28944  10.942   6.854   0.029  0.2385 -0.3092  0.2245
12098W        W28945   1.489   6.231  12.958  0.0793 -0.2376 -0.1198
12099W        W28946   3.053   4.995   2.734  0.1567  0.2272  0.0265
12100W        W28947  16.502   2.382  12.886 -0.2866 -0.1473 -0.4770
12101W        W28948   1.830   5.095  13.134  0.2077  0.2574 -0.3153
12102W        W28949  14.922  11.039   1.108 -0.3468 -0.1353  0.0347
12103W        W28950  16.090  10.501  15.371 -0.0357  0.1782 -0.2368
12104W        W28951  11.381   1.739   1.795 -0.2170 -0.3872 -0.1134
12105W        W28952  11.648   8.426  15.723 -0.1220 -0.0375 -0.0463
12106W        W28953   5.503   6.830   4.279 -0.3986  0.1946 -0.0206
12107W        W28954  18.025   0.621  13.412  0.3128  0.3109 -0.1882
12108W        W28955   7.691   1.379  13.751 -0.1247 -0.3938 -0.4065
12109W        W28956   5.218   5.533  14.616 -0.1292  0.1178  0.0027
12110W        W28957   9.942  13.283  13.271 -0.0192 -0.0304  0.0648
12111W        W28958   3.095  17.593   0.520 -0.2062 -0.0199 -0.0183
12112W        W28959  13.829  11.034   1.687  0.1928 -0.0481 -0.0129
12113W        W28960   2.557   1.588   4.866  0.2552  0.1771  0.1243
12114W        W28961   1.328  12.422  12.099 -0.3102  0.1646  0.2899
12115W        W28962   0.608   1.140   2.401 -0.0874  0.2107 -0.0445
12116W        W28963  11.336   8.948  13.294 -0.1740  0.2594  0.1377
12117W        W28964   0.727   6.315   0.906  0.0367  0.0910 -0.1042
12118W        W28965   2.104   1.394  14.231 -0.4064  0.1567 -0.2474
12119W        W28966  15.208   9.826  14.609 -0.0430 -0.1118 -0.0723
12120W        W28967   1.400   5.626  10.596 -0.1683 -0.1086 -0.1152
12121W        W28968   1.051   4.180   1.822  0.0557 -0.2902 -0.0396
12122W        W28969   2.787  10.786   3.643 -0.1883 -0.0128  0.0058
12123W        W28970  17.434  11.216  16.239 -0.1311  0.0335  0.2044
12124W        W28971  11.375   9.017  12.002 -0.1685 -0.1319 -0.1470
12125W        W28972  17.977  17.487  12.071 -0.0100  0.0272 -0.0452
12126W        W28973   3.942   7.284  13.568 -0.0039  0.0841  0.5095
12127W        W28974  10.216  12.766  13.682  0.1567  0.0182 -0.1455
12128W        W28975  12.636   7.597   2.499 -0.0950 -0.0370 -0.2588
12129W        W28976  15.737   6.332  12.719  0.0156  0.1504  0.0474
12130W        W28977   8.774   3.978   3.071  0.0565 -0.0884 -0.2018
12131W        W28978  17.188  18.275  14.319 -0.2084  0.0479  0.5240
12132W        W28979   7.100  15.323  13.392 -0.1455  0.1677  0.0958
12133W        W28980  14.163  15.223  14.299  0.0707 -0.0637  0.0954
12134W        W28981  15.065   2.239  15.121 -0.0200 -0.0508 -0.0955
12135W        W28982  16.964   7.222   4.357 -0.1823 -0.3191  0.0465
12136W        W28983   4.697  16.617   5.774 -0.1023 -0.0784 -0.3055
12137W        W28984   0.671   9.308   0.152 -0.0619  0.1359 -0.0598
12138W        W28985  16.938   4.950   3.747  0.2002 -0.4572 -0.3018
12139W        W28986   6.749   2.156   2.598  0.0646 -0.0758 -0.1319
12140W        W28987  16.053  14.212   0.077  0.1563 -0.0963 -0.1553
12141W        W28988   5.284   8.459  13.279  0.2805 -0.1766  0.2938
12142W        W28989   9.340  10.305   5.426 -0.1472  0.2794  0.0934
12143W        W28990   2.727   1.045   1.824  0.1685 -0.1102 -0.0028
12144W        W28991  13.624   6.056   4.517  0.0189 -0.1012 -0.0279
12145W        W28992   3.696   9.125  15.376 -0.0791  0.1873 -0.1081
12146W        W28993   9.667  11.636   2.898  0.0438  0.0735  0.2184
12147W        W28994  10.952   0.321  14.947 -0.0337  0.0282 -0.1497
12148W        W28995   4.699  14.777  14.943 -0.1029  0.3738  0.1253
12149W        W28996  13.667   2.238   5.196 -0.2736 -0.1151  0.0931
12150W        W28997  16.526  13.652   1.242  0.2319 -0.1256 -0.2329
12151W        W28998  12.270   3.410  13.741  0.4478  0.1050  0.0873
12152W        W28999   6.842  11.964   2.594  0.0934  0.1159  0.0996
12153W        W29000   1.430  11.449   1.594 -0.1406 -0.0684  0.2641
12154W        W29001  10.567  12.734   4.101  0.0712  0.0167  0.1279
12155W        W29002   7.195   4.135   2.423 -0.1818 -0.1648 -0.1416
12156W        W29003   9.519   1.125  16.337 -0.0426 -0.1523  0.1115
12157W        W29004  17.339  10.432  15.563 -0.0744 -0.0147 -0.0211
12158W        W29005  17.896   9.931  15.434 -0.0101 -0.0328 -0.4875
12159W        W29006   2.862   8.217   3.521 -0.0312 -0.1092 -0.5352
12160W        W29007  17.355   2.494  16.244 -0.2678 -0.1807  0.1681
12161W        W29008   3.354  12.680   0.709 -0.4477  0.0467  0.2184
12162W        W29009   6.417  10.633  13.809  0.1796  0.0114  0.1622
12163W        W29010  16.756  15.701   6.220  0.0760  0.0351 -0.1405
12164W        W29011  16.393   5.800  12.613  0.0360  0.0062 -0.0566
12165W        W29012  15.005   4.362  13.629 -0.1029  0.2740 -0.3281
12166W        W29013  17.606  11.097   2.316  0.0874 -0.1646 -0.0630
12167W        W29014  15.255   1.771  12.505  0.5093 -0.2762 -0.3194
12168W        W29015   9.286   4.138   1.834  0.1446  0.0688  0.0973
12169W        W29016   9.754   1.788  14.788  0.0586  0.1064  0.1565
12170W        W29017   7.170  14.517  11.925 -0.2799 -0.1343 -0.2479
12171W        W29018  18.252  15.789   2.591 -0.0667  0.0337  0.1138
12172W        W29019  13.895  13.845   2.312  0.0457  0.0757  0.2667
12173W        W29020   2.917  10.677   0.163  0.0383  0.2949 -0.0069
12174W        W29021  15.035  11.071  11.817 -0.3027 -0.0649 -0.1890
12175W        W29022   9.044  16.493   5.512 -0.0670 -0.5305  0.0487
12176W        W29023  11.707   0.791   2.533 -0.2508 -0.0022  0.0074
12177W        W29024   3.272  16.196   2.491  0.2000  0.0397 -0.1090
12178W        W29025  12.214   0.534  12.675 -0.0364  0.0614 -0.1314
12179W        W29026  12.653   2.424  14.640 -0.3929  0.1028 -0.3187
12180W        W29027   5.169   2.418   2.904 -0.0956 -0.0485 -0.0551
12181W        W29028   4.610   8.507  11.559 -0.0425  0.0823  0.0189
12182W        W29029   6.489  10.710   1.968  0.0781  0.1938  0.1181
12183W        W29030  15.632  17.480  14.195  0.2545  0.0304  0.0147
12184W        W29031  14.753  12.358  12.952 -0.0652 -0.0243  0.1196
12185W        W29032  15.757  12.017   0.793  0.0628  0.0471 -0.2132
12186W        W29033  11.396  17.525  15.937  0.1208 -0.1142 -0.4881
12187W        W29034   1.317  16.359  15.994 -0.1497 -0.2140 -0.2027
12188W        W29035  12.498   0.117  14.082 -0.5926  0.1379  0.0031
12189W        W29036  17.850  13.609   0.181  0.1626 -0.1009  0.2644
12190W        W29037   0.523  13.321  13.349 -0.1052  0.1710  0.0653
12191W        W29038  11.743   8.205  12.947  0.2651 -0.2971 -0.0907
12192W        W29039  12.865   7.060  16.135 -0.2932 -0.2745  0.0186
12193W        W29040  11.662   9.642   5.994  0.0062  0.1191 -0.0994
12194W        W29041  11.376  17.030  16.214 -0.2507  0.0873  0.3378
12195W        W29042   7.567   8.244   0.221 -0.0749 -0.0943 -0.1002
12196W        W29043  17.509   8.192   4.123 -0.1947  0.0914 -0.0593
12197W        W29044   7.759  10.842   5.534  0.0568  0.1904  0.1250
12198W        W29045  11.612   4.119   4.392  0.1543  0.1755 -0.2854
12199W        W29046   3.290  11.686  12.741  0.2482  0.3501 -0.1857
12200W        W29047  10.669   8.297   1.493  0.1073  0.2398 -0.1338
12201W        W29048   7.640   0.309  12.709  0.1164  0.0219  0.1696
12202W        W29049   8.657   5.756  15.574 -0.1447 -0.1013 -0.0729
12203W        W29050  14.856  17.474  12.272  0.0866 -0.0725  0.1707
12204W        W29051   4.370   2.627   5.876 -0.0968  0.3673  0.4009
12205W        W29052  14.492   8.468   0.854  0.0068  0.1589 -0.0946
12206W        W29053   6.270  13.052   0.493 -0.0852  0.0427  0.3653
12207W        W29054  10.355   0.548   2.182 -0.0889 -0.0329  0.1318
12208W        W29055  18.207  11.202  13.882  0.2056 -0.1596 -0.1187
12209W        W29056   6.116   0.325  13.602  0.2014  0.0025 -0.4213
12210W        W29057   7.757  12.596   5.258  0.0135 -0.1693  0.0308
12211W        W29058   3.696   2.325  14.374  0.0490 -0.0983  0.0614
12212W        W29059  12.400   0.418  11.316  0.0573  0.0471 -0.1159
12213W        W29060   9.535  17.234   3.692  0.1423 -0.1699 -0.0261
12214W        W29061  11.908  17.663   3.686  0.1567  0.2310  0.5375
12215W        W29062  18.297   4.202  10.736  0.2219  0.0479  0.2868
12216W        W29063  12.047   4.184   4.118  0.0665  0.0413 -0.0749
12217W        W29064   7.247   5.155   2.705 -0.1993  0.1707  0.2195
12218W        W29065   7.283  10.933  13.616  0.1592  0.1588 -0.0795
12219W        W29066   1.007   3.243  13.063 -0.0278 -0.1125  0.2398
12220W        W29067   0.216   3.148  15.883  0.0805  0.1966 -0.0853
12221W        W29068  10.285   0.269  11.543  0.2237 -0.0706  0.2233
12222W        W29069   3.637   1.257   4.902 -0.1633 -0.0849 -0.0670
12223W        W29070  17.850   2.582  14.095  0.1505 -0.2394 -0.1200
12224W        W29071  12.983   3.268   4.896 -0.1561  0.0606  0.2249
12225W        W29072   2.375  18.250   2.195 -0.1053 -0.0810  0.1798
12226W        W29073  14.265   6.576   1.044  0.0845 -0.2404 -0.1632
12227W        W29074  14.221   8.916  15.038 -0.0332  0.2038 -0.0981
12228W        W29075   4.025   2.122   3.381  0.0835  0.0651  0.1021
12229W        W29076  13.861  10.970  13.165  0.2649 -0.2751 -0.0750
12230W        W29077   2.745   9.550   2.725 -0.2431 -0.4230  0.2638
12231W        W29078  12.884   7.921   3.515  0.3204  0.0772  0.1787
12232W        W29079  12.535  15.301   0.200 -0.0985 -0.1250 -0.0539
12233W        W29080  10.627  18.374   5.960  0.0199  0.2177 -0.0502
12234W        W29081  11.082   0.982   5.491  0.3859  0.0235 -0.2583
12235W        W29082   2.113  13.254   3.345  0.3597  0.2273 -0.0375
12236W        W29083  18.391   7.211  14.881  0.1790  0.1823 -0.0173
12237W        W29084   8.841  13.842   4.220 -0.0139 -0.1006 -0.0326
12238W        W29085  17.292  17.327   0.096 -0.2188  0.2181 -0.5188
12239W        W29086  13.264  10.979   4.005 -0.0563 -0.1094 -0.0223
12240W        W29087  17.656   3.817  11.405 -0.0127  0.1281  0.5348
12241W        W29088  15.059   6.290  13.413  0.0466 -0.3146  0.1616
12242W        W29089  10.150   5.653  13.563  0.0971  0.0314  0.3455
12243W        W29090   0.771  13.549   3.941 -0.0147  0.0723  0.0093
12244W        W29091  17.624   7.805  12.373 -0.0708  0.2251 -0.1557
12245W        W29092  14.919  17.981  15.403  0.1226 -0.1071  0.1288
12246W        W29093  13.301   5.846   4.854 -0.0009  0.3507  0.0693
12247W        W29094   5.797   6.645  15.872  0.1026  0.0278 -0.0132
12248W        W29095  12.879  17.011   3.271  0.2666 -0.0848 -0.1806
12249W        W29096   3.609   6.301  15.975  0.1025  0.1768 -0.1057
12250W        W29097   2.858   1.292   4.649 -0.0893  0.1429  0.2615
12251W        W29098   0.183  16.723   2.317  0.1402  0.0003 -0.0601
12252W        W29099   4.796   1.288  16.033  0.0441 -0.1282 -0.1557
12253W        W29100   9.635   7.398  15.352 -0.1555  0.3185 -0.1221
12254W        W29101   3.482   5.787  14.127 -0.0402  0.1004  0.0417
12255W        W29102  15.204  17.770  12.814 -0.1682  0.1055 -0.1087
12256W        W29103   5.803  14.516  14.948  0.0963  0.1100 -0.0817
12257W        W29104   3.995   9.324   0.490  0.1769  0.2869  0.0600
12258W        W29105  17.552  13.624  11.186 -0.0303  0.1778 -0.4800
12259W        W29106   2.434  16.905   4.998 -0.1483 -0.2444 -0.3185
12260W        W29107   3.125   9.853   2.724 -0.3628 -0.0944 -0.0612
12261W        W29108   3.290   8.261   4.039 -0.1331 -0.1946 -0.0869
12262W        W29109  12.748  18.002   4.289 -0.0112 -0.0389 -0.1651
12263W        W29110  15.946   4.106   0.200 -0.1377  0.0866  0.3800
12264W        W29111  12.794   6.101  15.773  0.0263 -0.2325  0.0651
12265W        W29112   1.591   2.878  10.887  0.1402 -0.0860 -0.1964
12266W        W29113  12.349   0.057  11.653 -0.1463  0.3320 -0.0066
12267W        W29114   5.295  16.707   4.791 -0.3228  0.2977 -0.1565
12268W        W29115  17.052  16.015  14.709  0.1114  0.1982 -0.0518
12269W        W29116   9.369   2.869  11.731  0.0453 -0.2936  0.0853
12270W        W29117   6.781   1.445   5.640  0.0067 -0.1818 -0.0067
12271W        W29118   7.968  12.912  16.215  0.2563 -0.2371  0.1757
12272W        W29119  16.551  13.155   0.443  0.2254 -0.2412 -0.0544
12273W        W29120   1.994  10.156  12.199 -0.2199  0.0405  0.1282
12274W        W29121  13.600  16.845  12.316  0.0175  0.2257  0.2381
12275W        W29122   0.762   1.499   3.451  0.0360 -0.0289 -0.2760
12276W        W29123   2.737   7.299   3.220  0.1222 -0.0333  0.0622
12277W        W29124  15.980   5.671   0.300 -0.1736 -0.2613 -0.1146
12278W        W29125   1.712   0.745   0.589 -0.1762 -0.0152 -0.1386
12279W        W29126   6.917   1.575   1.946  0.1172  0.2943 -0.0310
12280W        W29127  10.297  12.423   2.779  0.2662  0.1476  0.1471
12281W        W29128   0.537  17.240   0.614  0.0510  0.0804 -0.1029
12282W        W29129  10.689   6.351   2.944  0.2088 -0.2730  0.1068
12283W        W29130   8.686   4.718  12.696  0.1438  0.0291 -0.0761
12284W        W29131   9.047   1.165  13.463  0.1127  0.0575 -0.0000
12285W        W29132  17.427   7.785  10.823 -0.0576  0.1353 -0.1374
12286W        W29133   4.813   5.536   0.871  0.1012 -0.2331  0.1231
12287W        W29134   9.655   5.341  15.940 -0.2398 -0.0215  0.0713
12288W        W29135  14.529  17.374  11.837  0.3512 -0.0968  0.1531
12289W        W29136   3.229   0.564  14.334 -0.1995 -0.0459 -0.1237
12290W        W29137   9.320  12.678   4.669  0.1377 -0.2756  0.1574
12291W        W29138   5.694   8.840   3.263  0.1239  0.0136  0.3494
12292W        W29139  17.243   4.080   3.667 -0.0659  0.0457 -0.1197
12293W        W29140  17.944   7.009   4.308  0.3941 -0.0243  0.1392
12294W        W29141  13.345   8.205  15.580  0.1659 -0.0722  0.1764
12295W        W29142  14.891  12.092  11.812  0.1117  0.4015  0.0952
12296W        W29143  14.820  16.362  15.027 -0.0656 -0.0568  0.0376
12297W        W29144  12.029  10.430   4.371  0.1121 -0.0458  0.5246
12298W        W29145   7.333   2.146  15.829  0.0633 -0.0335  0.0602
12299W        W29146   8.997   3.318  12.596  0.0957 -0.4907  0.0849
12300W        W29147   9.530  12.427   3.332 -0.3918 -0.0366  0.1135
12301W        W29148   9.206   1.154  12.045 -0.2775 -0.0227  0.0311
12302W        W29149   2.138  11.662   3.633 -0.1199 -0.1331  0.1864
12303W        W29150  16.536  16.909   1.185 -0.3823  0.2081 -0.1811
12304W        W29151  10.832   6.678   0.449 -0.0072  0.0631 -0.0021
12305W        W29152   2.475   8.918  12.386 -0.1595 -0.0667  0.3669
12306W        W29153  13.699   2.607   0.776  0.1857 -0.0410 -0.1534
12307W        W29154  17.768  15.158  15.705 -0.0466  0.1386 -0.0041
12308W        W29155   2.075  14.926   4.541  0.0076  0.3062  0.1315
12309W        W29156   6.028   0.844   2.723 -0.0008  0.0549  0.0079
12310W        W29157   9.770   5.546   4.168  0.2482 -0.0070  0.0714
12311W        W29158  17.871   4.647   5.358  0.0814  0.1489 -0.0388
12312W        W29159   8.069   7.281   5.319  0.1177 -0.3375  0.1740
12313W        W29160   2.466   5.465  15.859  0.3014 -0.3026  0.1225
12314W        W29161   8.128  17.331  13.569 -0.1919  0.0159 -0.0624
12315W        W29162  10.934  13.186  13.323  0.1144 -0.0936  0.1240
12316W        W29163   7.232   9.853   5.000  0.1139 -0.1320 -0.0556
12317W        W29164   7.764   5.032  16.340  0.1719  0.3756  0.1189
12318W        W29165   3.708   4.765   3.458 -0.0462 -0.1586  0.0308
12319W        W29166  17.826  16.987   2.096  0.1387 -0.2269  0.1016
12320W        W29167  12.962  15.000  14.734  0.0310  0.3414  0.0821
12321W        W29168   2.383   1.441   1.844 -0.1670  0.1565  0.0209
12322W        W29169   1.001  12.097   2.625 -0.2320 -0.0845 -0.1979
12323W        W29170  13.540   6.026   5.443 -0.1831  0.0857  0.0021
12324W        W29171  13.814   3.373   1.604 -0.3280  0.1729 -0.1243
12325W        W29172   1.663   4.561   5.706 -0.0881 -0.1898  0.0904
12326W        W29173  13.753  16.384   1.675  0.2686  0.1195 -0.4312
12327W        W29174  17.010  11.982  13.504  0.0403 -0.0110 -0.0556
12328W        W29175  12.999  18.011  15.275  0.3547  0.0359  0.2427
12329W        W29176   9.849   6.907  14.545  0.0715  0.0446 -0.1519
12330W        W29177   2.085   1.569   0.161 -0.0053  0.0634  0.2603
12331W        W29178   9.175   5.976   2.158 -0.1633 -0.0178 -0.0841
12332W        W29179   0.367  11.365   4.689 -0.0366  0.0323  0.0423
12333W        W29180  14.377  16.258   1.667  0.0940 -0.0213  0.1902
12334W        W29181  15.981   6.156   0.305  0.2479 -0.0151  0.1528
12335W        W29182  10.984   0.834   3.322 -0.3221  0.0464  0.1332
12336W        W29183   4.084  11.231   4.100 -0.0085 -0.0783 -0.0626
12337W        W29184   1.928   7.569  14.318 -0.0543  0.0708 -0.0281
12338W        W29185  13.610  10.114   1.597 -0.0380 -0.0373  0.0864
12339W        W29186  16.239   9.906   0.385  0.0740 -0.0806 -0.0432
12340W        W29187   4.221   4.982   9.987 -0.2867 -0.1055 -0.1132
12341W        W29188  10.265  11.444   5.745 -0.1471  0.0252  0.0120
12342W        W29189   5.442   5.123   2.020  0.0478  0.3884  0.0970
12343W        W29190  12.202  18.081  16.215 -0.2674 -0.3084  0.0180
12344W        W29191   2.926   5.763   0.507  0.2386  0.1624 -0.1948
12345W        W29192   7.359  17.041  15.576 -0.0840  0.2582  0.0997
12346W        W29193  10.541  17.834  12.009  0.1513  0.0597 -0.0935
12347W        W29194   2.801   3.358  16.161  0.1089 -0.1656  0.0392
12348W        W29195   8.228   3.686   3.805  0.2491 -0.1716 -0.0403
12349W        W29196   2.557   5.507   3.880  0.2279  0.0057  0.1614
12350W        W29197   7.897  15.497  12.593  0.0553  0.2321  0.0647
12351W        W29198   7.379  18.370   1.097 -0.2039 -0.0870 -0.2437
12352W        W29199  12.927  17.459  15.180  0.0596  0.3632 -0.2213
12353W        W29200   4.990  13.229   6.196 -0.0444 -0.0120  0.2000
12354W        W29201   3.990   1.073   3.483  0.3029  0.0507  0.1880
12355W        W29202   2.000  13.006   5.375  0.2418  0.5112  0.0217
12356W        W29203  15.573   0.807   1.110 -0.1031  0.0230  0.0029
12357W        W29204  17.708   0.693  11.223 -0.2870  0.0359 -0.2122
12358W        W29205   6.213  15.683  11.922  0.1469 -0.2129  0.0182
12359W        W29206  18.166  13.087   2.724  0.0919 -0.1502 -0.2413
12360W        W29207  10.160   6.319   2.619 -0.1353  0.0921  0.3060
12361W        W29208   4.785   8.395  14.055  0.1561  0.0006  0.1027
12362W        W29209   5.346  10.240   4.524  0.0426 -0.0000 -0.2815
12363W        W29210   2.795   2.523   5.421 -0.2961  0.0412 -0.0263
12364W        W29211  13.026   3.926   1.659  0.0172 -0.0470 -0.2430
12365W        W29212   5.203  17.935   2.513  0.2046  0.0370 -0.0520
12366W        W29213  13.232   3.611   2.039 -0.0772  0.0900  0.1061
12367W        W29214   8.219  16.149  10.992  0.3050  0.0599  0.1678
12368W        W29215   0.096   3.612  13.135 -0.3556  0.2748 -0.0226
12369W        W29216  12.428  18.267   3.937 -0.1558 -0.0133 -0.1077
12370W        W29217   4.340  13.297   1.579 -0.1908 -0.3338 -0.2615
12371W        W29218   5.453   7.187   1.296  0.4792 -0.3338  0.0668
12372W        W29219   4.613  10.400   3.317  0.2189  0.0980 -0.1923
12373W        W29220  10.097  15.317  12.815 -0.1502  0.1110 -0.0750
12374W        W29221  17.913   9.952  12.012 -0.0331 -0.2430 -0.2058
12375W        W29222  13.432  13.400  13.573  0.1176  0.1533  0.0660
12376W        W29223   3.663   5.496  15.871  0.1493 -0.0385 -0.0153
12377W        W29224   6.245   1.148  14.473  0.2432  0.3221 -0.0368
12378W        W29225   8.273  11.846  15.420 -0.2521 -0.0600 -0.0122
12379W        W29226   8.096   7.584   2.499 -0.0898  0.0024 -0.1532
12380W        W29227   8.731  17.112  15.213  0.2140 -0.0058 -0.4351
12381W        W29228   3.357   1.169   3.685  0.1568 -0.2216 -0.1673
12382W        W29229   6.761  17.849   4.676 -0.2294 -0.0969 -0.1672
12383W        W29230  16.175  14.102   4.832 -0.0423 -0.2178 -0.3068
12384W        W29231  10.528  12.984   5.098  0.0798 -0.1092 -0.4036
12385W        W29232   6.617   1.297  15.288  0.0550 -0.2269 -0.0304
12386W        W29233   3.868  11.788  14.160  0.1870  0.0211  0.0547
12387W        W29234   0.031  12.724  13.876 -0.2961 -0.1746  0.0412
12388W        W29235   2.151  13.768   1.655  0.1668 -0.3978 -0.1389
12389W        W29236   3.550   1.021  15.056 -0.1693  0.3287 -0.1652
12390W        W29237   4.926   3.793   2.348 -0.3088  0.0949 -0.0899
12391W        W29238   4.872  10.682  16.085  0.2513 -0.0566  0.1127
12392W        W29239   3.056   7.846   0.319  0.3110 -0.0771  0.1616
12393W        W29240  13.591   2.613  13.379 -0.1477 -0.0739  0.2937
12394W        W29241   2.136   2.250   1.255 -0.0789  0.1775 -0.2892
12395W        W29242   5.325   6.610  16.113  0.3656  0.0802 -0.2486
12396W        W29243  17.687  17.506  11.620 -0.0273  0.0533  0.1006
12397W        W29244  16.121  13.530   4.133  0.1859 -0.0936 -0.0064
12398W        W29245  13.789  14.949  13.640 -0.0927  0.1065  0.0782
12399W        W29246   2.365  15.752   4.757  0.5850  0.0227  0.1728
12400W        W29247   6.093   7.014   3.297  0.1462  0.5828 -0.1661
12401W        W29248  11.200   2.956   2.398 -0.0571  0.0065  0.0473
12402W        W29249   3.548  12.759   3.373 -0.0027 -0.3628 -0.2179
12403W        W29250  16.941  13.239   4.258  0.1258 -0.0955  0.1070
12404W        W29251   4.295   2.957  15.301  0.0554  0.0487 -0.0364
12405W        W29252  13.726   4.764   3.090  0.0258  0.0113 -0.0913
12406W        W29253   5.046  15.842  14.208  0.0498 -0.1392  0.0162
12407W        W29254   5.621  15.879   4.637  0.1097 -0.1754 -0.2367
12408W        W29255   7.829   5.060  15.822 -0.0691 -0.2774 -0.2142
12409W        W29256  16.504  13.567  13.974 -0.1832  0.0458 -0.2358
12410W        W29257   5.009  11.976   2.089 -0.0029 -0.1838 -0.1468
12411W        W29258  15.324   0.215  13.592 -0.0134  0.2329 -0.0917
12412W        W29259  15.740   0.964  11.210 -0.2777  0.1997  0.0160
12413W        W29260  11.538  16.668  14.057  0.2788 -0.1235 -0.0508
12414W        W29261  13.839   7.028  14.640 -0.1459 -0.0183  0.1239
12415W        W29262   8.194   0.351   3.793 -0.0357  0.0010  0.0177
12416W        W29263  11.541   2.111   0.968  0.1647 -0.0325  0.1466
12417W        W29264  14.631   3.320  12.093 -0.1843 -0.4196 -0.1716
12418W        W29265   5.877  11.870   3.555 -0.0069 -0.2396 -0.1404
12419W        W29266  13.655  10.656   2.452  0.3520  0.1505  0.0205
12420W        W29267  17.137  15.550  13.972  0.0505 -0.4171 -0.1168
12421W        W29268   2.684   5.057   3.625 -0.3597  0.0679 -0.1359
12422W        W29269   7.164  13.779   5.012  0.1644 -0.3090 -0.3885
12423W        W29270   6.376   4.652   4.707 -0.1226 -0.0201  0.2570
12424W        W29271  18.361   5.198  13.879  0.0510  0.2682  0.1005
12425W        W29272   7.289   2.522  13.180 -0.3781  0.2407 -0.3949
12426W        W29273   6.241  10.273  12.270 -0.3024  0.1470 -0.2417
12427W        W29274   2.304  16.488  12.401 -0.1238 -0.0842 -0.3431
12428W        W29275   3.391   6.044   1.753 -0.3268  0.1459 -0.2169
12429W        W29276   2.637  11.596  10.401  0.3266  0.0071  0.2433
12430W        W29277  10.861  15.432   1.860 -0.0475  0.2474 -0.4454
12431W        W29278  11.641   2.481  12.293 -0.0903 -0.1506  0.0226
12432W        W29279  13.436  17.247  15.008 -0.0503  0.1314  0.1219
12433W        W29280  12.678  15.951   5.350 -0.1789  0.1786 -0.0454
12434W        W29281   6.696  10.008   3.841 -0.0168  0.3410  0.0881
12435W        W29282   5.315   4.835  12.140 -0.1479 -0.1528  0.1408
12436W        W29283  12.616  15.393   1.919  0.0672  0.2660 -0.1035
12437W        W29284   5.835   9.921  16.090  0.0235 -0.0298  0.3341
12438W        W29285  14.301   3.359  15.637  0.1123  0.0044 -0.1325
12439W        W29286   8.036  13.690  11.817  0.1920  0.2459  0.0002
12440W        W29287   1.693   8.564  13.790  0.0028  0.1496  0.0377
12441W        W29288   0.361  11.540   0.445  0.0994 -0.4496 -0.1531
12442W        W29289   7.926   5.143  14.057  0.1761 -0.2752  0.0029
12443W        W29290   2.876  16.513   4.621  0.1399  0.0232  0.4213
12444W        W29291   9.599  15.867   2.129 -0.1681  0.3202 -0.2776
12445W        W29292   7.893   0.077   5.330  0.1240  0.1256  0.2157
12446W        W29293   2.339  18.102   0.194  0.1267 -0.3085 -0.0749
12447W        W29294   3.278   2.834   1.891 -0.0160 -0.2306 -0.2223
12448W        W29295   5.567   9.524  13.302  0.1528  0.0782  0.2789
12449W        W29296   4.368  12.647  13.310 -0.3262 -0.0484  0.0293
12450W        W29297   4.338   2.101  15.746 -0.1714 -0.0187 -0.2305
12451W        W29298   7.838   1.657  14.559  0.1874 -0.3269  0.0262
12452W        W29299  15.064  14.350   1.282  0.3126  0.3041  0.0348
12453W        W29300   2.185  14.546   0.416  0.1609 -0.0059  0.1365
12454W        W29301   4.618  13.346  13.078  0.0882  0.0275 -0.0579
12455W        W29302   9.071  12.048  14.336  0.1784  0.0479 -0.0641
12456W        W29303  14.929  13.273   4.862  0.0987 -0.1461 -0.3194
12457W        W29304   5.130  11.704   3.149  0.1238 -0.0968  0.1890
12458W        W29305   1.829  18.100   2.251 -0.4207 -0.0730  0.2522
12459W        W29306   9.657   3.772  14.604 -0.0035  0.2077  0.4027
12460W        W29307   3.975   8.207   4.003 -0.0650  0.1836  0.2814
12461W        W29308  13.761  12.806   4.878 -0.0292 -0.3823 -0.1583
12462W        W29309   9.172   5.272  12.116  0.3050 -0.2113  0.2322
12463W        W29310   5.651   0.130   4.627 -0.1764  0.1742  0.1231
12464W        W29311   2.977   7.873  14.993  0.0163 -0.1170  0.0328
12465W        W29312  18.055   8.293   4.928  0.4567 -0.1194  0.2090
12466W        W29313   3.981  13.826  12.883 -0.0184  0.0254 -0.1637
12467W        W29314   7.321  10.554  13.909 -0.0805  0.0603 -0.1247
12468W        W29315  15.763   5.414   3.827 -0.0592 -0.0568 -0.0428
12469W        W29316  16.975   3.198  13.604 -0.0555  0.1583  0.3179
12470W        W29317   6.398   3.520  11.625 -0.0610 -0.0560 -0.0992
12471W        W29318   5.714   3.588  15.778  0.3747  0.1068  0.0536
12472W        W29319   7.578  11.061  12.987  0.0937 -0.3674  0.5651
12473W        W29320  12.025  17.409   1.260  0.2359 -0.0430  0.5100
12474W        W29321  17.453   1.131   3.752 -0.1310  0.1239 -0.0024
12475W        W29322  15.198   8.498   0.100 -0.2146  0.0906  0.1614
12476W        W29323  15.970   8.894  15.979 -0.2899  0.0026 -0.2413
12477W        W29324   1.562   5.335  15.608 -0.4552 -0.3203  0.1413
12478W        W29325  16.484  15.939  15.654 -0.3736 -0.0712  0.2677
12479W        W29326   4.836   1.621   3.579  0.1336  0.0824 -0.0907
12480W        W29327   2.342   3.180   1.736 -0.0880  0.0108  0.0482
12481W        W29328   3.948  10.898   2.545 -0.0807  0.0864  0.2009
12482W        W29329  11.701   1.372   1.079 -0.1917  0.0164  0.2391
12483W        W29330   3.581   9.899  13.693 -0.0022 -0.2999 -0.0642
12484W        W29331  10.955  15.253  10.433 -0.1065  0.1002 -0.1082
12485W        W29332   9.437  15.601   4.871 -0.1155 -0.3091  0.1514
12486W        W29333   5.037  14.608  13.837 -0.1820 -0.0738  0.1637
12487W        W29334   0.983   1.896   4.802  0.4513  0.0552 -0.0959
12488W        W29335  16.554  16.116  12.999 -0.1724  0.4108 -0.2191
12489W        W29336   1.751  17.862  15.930  0.4058 -0.0543 -0.2768
12490W        W29337   0.272   4.614   4.791  0.3753 -0.0881  0.1278
12491W        W29338   9.213  11.498  14.630  0.0197 -0.1512 -0.0719
12492W        W29339  18.056  13.747   3.846  0.1069  0.1096  0.1369
12493W        W29340   5.789   7.797   0.513  0.1653 -0.1077  0.3539
12494W        W29341  13.043   2.004  15.916  0.0161  0.1097 -0.3096
12495W        W29342  11.566  13.774  13.493 -0.0692 -0.1063  0.0274
12496W        W29343   6.132   0.949  16.239 -0.0932 -0.0410  0.0270
12497W        W29344  15.308  11.077  15.305  0.2580  0.0096  0.4896
12498W        W29345  11.187  17.516   0.031 -0.0472  0.1605 -0.0993
12499W        W29346   2.032   2.721  10.629 -0.2953 -0.0182 -0.0639
12500W        W29347  13.542   4.082  11.359  0.3268  0.3125 -0.1388
12501W        W29348   6.782  13.019  12.425  0.0446 -0.1768 -0.0359
12502W        W29349   4.795   2.259   0.199  0.1585 -0.2619 -0.0517
12503W        W29350  14.905   1.635   4.101  0.0426  0.0631 -0.1265
12504W        W29351  18.205   6.140   3.891 -0.2058 -0.0845  0.2122
12505W        W29352   9.341  12.040   0.895  0.0491  0.1219  0.1160
12506W        W29353  10.096  16.363  13.833  0.0974  0.2805  0.1826
12507W        W29354  16.975  17.116  12.243 -0.1192  0.2054 -0.0485
12508W        W29355   4.429   9.314   1.314  0.0329  0.0410  0.0278
12509W        W29356   4.562  11.187   1.168  0.1208 -0.0094  0.0699
12510W        W29357   1.828   4.835  13.925  0.0758  0.1117  0.3654
12511W        W29358  16.061  10.685   3.080 -0.2175 -0.0522 -0.0937
12512W        W29359  14.444  17.776   3.329  0.2783 -0.0651 -0.0349
12513W        W29360  14.158  10.704   4.092 -0.2293  0.0938  0.0147
12514W        W29361  10.663  18.177   3.437  0.3248 -0.3065  0.4199
12515W        W29362  16.005   9.530   5.033  0.0590 -0.0753 -0.0882
12516W        W29363  14.841   1.063   3.921 -0.0226 -0.3521 -0.2972
12517W        W29364  12.187  11.318   1.594 -0.0246  0.1081  0.4615
12518W        W29365  16.192   4.503   2.731 -0.2598 -0.5115  0.0652
12519W        W29366  10.057   0.416  15.879 -0.2288  0.0985 -0.2421
12520W        W29367  15.391  13.350   3.197 -0.1545  0.0042  0.1677
12521W        W29368  17.106   9.306   2.453 -0.3990 -0.4281  0.1707
12522W        W29369  17.061   1.381  13.098 -0.0546  0.3078  0.0283
12523W        W29370  13.896   6.452   2.168 -0.1925 -0.1060 -0.1377
12524W        W29371  11.916   6.226   5.111 -0.0473  0.1943  0.1536
12525W        W29372  13.452   3.225  15.861 -0.0176 -0.0220 -0.0093
12526W        W29373   9.155  13.416  14.073  0.0067  0.1003  0.2206
12527W        W29374   4.735   8.203   5.568 -0.4265  0.0871 -0.0724
12528W        W29375   4.531   3.143   1.660  0.1554 -0.2477  0.1474
12529W        W29376  13.052   3.603  13.196 -0.1582  0.1622  0.0013
12530W        W29377  18.241  14.280   6.359 -0.0992  0.2207 -0.2754
12531W        W29378   2.566  10.177   0.454  0.0704 -0.0477 -0.0822
12532W        W29379   7.919   0.901  12.837  0.2194  0.0405  0.2364
12533W        W29380  14.921   5.906  11.240 -0.0856 -0.0477  0.0935
12534W        W29381   5.825   5.809  16.269 -0.2088  0.3453  0.0056
12535W        W29382   2.357  17.010  14.556  0.2325 -0.2617  0.0486
12536W        W29383   3.778  10.983   3.034  0.0391  0.1716  0.1119
12537W        W29384   8.447   7.722   2.097  0.2900  0.1244  0.1835
12538W        W29385   2.530  13.806  13.218 -0.3367  0.3590 -0.1095
12539W        W29386  14.314  10.935   5.348 -0.0588  0.0120 -0.1382
12540W        W29387   8.344   3.116   4.252 -0.1809  0.0613 -0.1689
12541W        W29388   2.737  16.811   0.023 -0.0063  0.1885 -0.0891
12542W        W29389   8.073   1.048  15.854  0.0092  0.0045 -0.0835
12543W        W29390   7.955  11.844   5.699  0.6276  0.0657 -0.1220
12544W        W29391  13.702   1.261  12.033 -0.1170  0.3350 -0.0789
12545W        W29392  13.994  11.101   1.168  0.1555 -0.1895 -0.0045
12546W        W29393  13.406   9.976   5.233 -0.1588 -0.2116 -0.1065
12547W        W29394   8.919   7.643   1.780  0.4621  0.1826  0.0519
12548W        W29395   5.420  11.249  14.474  0.0637 -0.0041  0.0614
12549W        W29396   3.837  10.333   0.931  0.1353 -0.2255 -0.3980
12550W        W29397   5.606   8.012  11.495  0.1366  0.1331 -0.1119
12551W        W29398  11.731  17.720  15.017  0.3411 -0.1899  0.2126
12552W        W29399   8.690   8.080   1.841 -0.1222 -0.2686 -0.1241
12553W        W29400   8.646  12.393   2.497  0.2060 -0.2343 -0.1638
12554W        W29401  10.648  14.530  15.304 -0.1399 -0.0585  0.2060
12555W        W29402  16.509   6.889   9.926 -0.1613 -0.1986  0.2287
12556W        W29403   6.767  15.783   0.591  0.4765  0.3679  0.1291
12557W        W29404   7.206   2.354   1.865  0.0874  0.0132  0.2588
12558W        W29405   5.074   1.956  15.067  0.1022 -0.1517  0.1882
12559W        W29406   9.927   0.757  12.236  0.0909 -0.0473 -0.0892
12560W        W29407  14.706   1.719   0.972 -0.3883  0.0458 -0.0497
12561W        W29408   5.707  13.429   0.246 -0.0305 -0.0304 -0.1870
12562W        W29409   0.386   5.281  12.333  0.2640 -0.0332  0.0068
12563W        W29410   4.192   9.888  16.053 -0.2695 -0.1560 -0.2671
12564W        W29411  12.910   4.286   3.914  0.0262  0.1732 -0.0563
12565W        W29412   6.477   5.462  15.536 -0.3171  0.0490  0.0290
12566W        W29413  10.324   5.352  13.926 -0.3310  0.1060 -0.1672
12567W        W29414   4.286   7.537  10.075 -0.1918  0.1675 -0.1292
12568W        W29415  15.442  14.162   2.492 -0.1465 -0.1136  0.0081
12569W        W29416   4.289   0.659  12.585 -0.0436 -0.1453  0.0340
12570W        W29417  16.194  10.620   1.967 -0.0020 -0.2087 -0.1892
12571W        W29418   1.655  16.311   0.494  0.0343  0.2775  0.1051
12572W        W29419  14.974   3.060   0.784  0.0313  0.0695 -0.1045
12573W        W29420   8.528  10.871   2.846 -0.1132 -0.3241  0.3267
12574W        W29421   8.130  12.012   3.935 -0.2048 -0.1524  0.3279
12575W        W29422   2.631  11.093  13.258 -0.1417 -0.0349 -0.0376
12576W        W29423   6.598  16.504   5.208 -0.2164 -0.1934  0.0158
12577W        W29424   2.739  12.341  12.021 -0.0149 -0.0256 -0.0758
12578W        W29425   5.659   4.100  14.746  0.0540  0.2626  0.1212
12579W        W29426   1.021  11.931   3.883 -0.4147  0.2710  0.1828
12580W        W29427  18.277  17.944   4.875 -0.0475  0.0924 -0.3322
12581W        W29428   1.495  16.189  15.467 -0.2969 -0.1781  0.0471
12582W        W29429   9.653  10.350   4.601  0.0522  0.2244 -0.0202
12583W        W29430  16.502  10.880  16.005  0.1038 -0.1671  0.4013
12584W        W29431   9.170  12.648  11.679  0.1945  0.1247 -0.0883
12585W        W29432  14.428   8.540  11.844  0.4246  0.1169 -0.0467
12586W        W29433   4.236   2.900  16.362 -0.1258  0.1807 -0.0733
12587W        W29434  18.155  17.953  15.702 -0.1116 -0.2980 -0.0142
12588W        W29435  18.231  16.178  14.061 -0.1070 -0.0659 -0.0736
12589W        W29436   2.375   3.199  14.092  0.0323 -0.1471 -0.0585
12590W        W29437   9.123   0.130   2.316 -0.2310  0.4336 -0.2662
12591W        W29438  17.847  13.549  13.278  0.0979  0.1380  0.0139
12592W        W29439  13.364  16.901  11.618 -0.3634  0.2484 -0.1300
12593W        W29440  17.705   8.031   0.564 -0.1650  0.1739 -0.0515
12594W        W29441  13.466   5.524  12.416 -0.1360 -0.2879 -0.2382
12595W        W29442  15.402  16.915  12.959  0.1467  0.2393  0.2123
12596W        W29443  13.920   0.102  13.882  0.0369 -0.1570 -0.0087
12597W        W29444  13.528   6.306  14.449  0.0266 -0.2568 -0.3237
12598W        W29445  13.536   8.293  12.005 -0.2464  0.1900  0.0851
12599W        W29446   7.828   3.958   3.041 -0.1660 -0.0979 -0.1805
12600W        W29447   0.396   9.675   2.505  0.4374  0.1236 -0.0330
12601W        W29448  12.471  15.129  14.668  0.2189 -0.0275 -0.1906
12602W        W29449  17.545  15.629   2.933  0.0450  0.0490  0.1314
12603W        W29450  11.916  13.870  14.443 -0.2221 -0.1208  0.4787
12604W        W29451   9.907  15.153   1.752  0.2285  0.1412  0.0764
12605W        W29452   8.085  13.993   4.897 -0.1345  0.0185  0.2956
12606W        W29453   2.177  11.101   0.793 -0.1729  0.0202  0.1162
12607W        W29454   5.329  14.182   5.541  0.1323 -0.1209 -0.1022
12608W        W29455   0.125  18.110  15.057 -0.2368 -0.1773 -0.0012
12609W        W29456   5.493   0.901  12.110 -0.0388 -0.0124 -0.1186
12610W        W29457   2.298  10.150   4.549  0.1239 -0.3850 -0.0460
12611W        W29458   6.615  16.038   3.803 -0.1410 -0.4339 -0.0109
12612W        W29459  16.036  16.314   3.738 -0.4266  0.0455 -0.0215
12613W        W29460  15.976  10.341   0.287 -0.4666  0.1254 -0.0562
12614W        W29461   4.046   2.182  16.152 -0.1140 -0.2372  0.2487
12615W        W29462   0.093   4.663   1.974  0.2354  0.2864 -0.0366
12616W        W29463  11.218   9.575   1.508  0.0650  0.2188 -0.0785
12617W        W29464  16.126   8.245   5.487 -0.1050 -0.4695 -0.1061
12618W        W29465   4.362   4.484  13.177  0.0411  0.0965 -0.3997
12619W        W29466  13.487   5.812   2.685  0.0355  0.3990 -0.1427
12620W        W29467   2.461  13.235   0.996 -0.1855  0.2309  0.0778
12621W        W29468   4.461  12.013  12.225 -0.0432  0.3158  0.4152
12622W        W29469   3.218  10.397   3.610 -0.2382 -0.0152  0.2735
12623W        W29470  16.428   9.994   0.852 -0.0310 -0.3310  0.0075
12624W        W29471   2.502  10.660  14.238 -0.2096 -0.1359  0.2644
12625W        W29472   5.884   5.452   0.787 -0.0408 -0.1644 -0.1610
12626W        W29473   8.319   2.877   4.903 -0.2735  0.0064  0.0270
12627W        W29474  16.320   7.445  12.756  0.2121 -0.0293  0.1715
12628W        W29475   9.186   0.737  13.776 -0.3099  0.5540  0.2048
12629W        W29476  15.616   8.125   4.321 -0.1123 -0.0910  0.0359
12630W        W29477  12.917   4.869  16.162 -0.0849  0.2837 -0.2079
12631W        W29478  10.342  17.484   3.088 -0.2564  0.1943  0.2863
12632W        W29479   1.813   2.702  13.691 -0.0113  0.0689  0.1441
12633W        W29480  10.125  15.923  16.072 -0.0951 -0.0076 -0.0216
12634W        W29481   6.179   8.492  15.894 -0.1408  0.0610  0.1499
12635W        W29482  17.997  12.371   0.327 -0.0772  0.2289 -0.0130
12636W        W29483   6.790  10.197   2.754 -0.0372  0.0501 -0.1168
12637W        W29484   5.139  12.401   3.674 -0.2184  0.1828 -0.3252
12638W        W29485  15.673   2.593  12.118 -0.1349  0.1388 -0.2039
12639W        W29486   7.677   2.585   1.772 -0.2252 -0.3685 -0.2666
12640W        W29487  11.851   4.558  12.229 -0.0001 -0.1603  0.1623
12641W        W29488   9.034  11.146  14.257  0.0701  0.1603 -0.1774
12642W        W29489   9.539   7.271   0.613 -0.1348 -0.2692 -0.2392
12643W        W29490  10.632  11.306   3.506 -0.1853 -0.0048 -0.4125
12644W        W29491   7.880   5.497   5.521  0.1184  0.0364 -0.0568
12645W        W29492  15.746  12.383   1.603  0.2503 -0.0461  0.4455
12646W        W29493  17.388   6.941   5.379 -0.1646 -0.2642 -0.0061
12647W        W29494   6.644   0.951  13.418  0.2709 -0.0070  0.0804
12648W        W29495  14.237   7.844  13.091  0.1345  0.0483 -0.1752
12649W        W29496  16.654   8.101  15.518 -0.3337  0.1879  0.3602
12650W        W29497  18.122  12.738  12.696  0.1133 -0.1018 -0.1182
12651W        W29498   4.391   1.146  12.480  0.2529 -0.2135 -0.0406
12652W        W29499   5.408   6.636   2.440  0.2287 -0.0368  0.4797
12653W        W29500  16.180   3.667  15.479  0.1366  0.1425 -0.2144
12654W        W29501  11.784   0.134   3.605  0.1031  0.1790  0.2720
12655W        W29502  16.796   6.639   1.904  0.2967  0.2674  0.1024
12656W        W29503  14.322  13.982  12.585  0.1110  0.0194 -0.0992
12657W        W29504   6.491   6.957  11.376  0.0422 -0.2635 -0.3292
12658W        W29505   2.348  16.409  12.921 -0.1633 -0.1771  0.0345
12659W        W29506  16.996  16.735   5.485 -0.4466  0.0168  0.0708
12660W        W29507   7.371   6.748  15.565  0.0078  0.1463  0.0794
12661W        W29508  12.756  16.025   1.261  0.2048  0.1208 -0.1852
12662W        W29509   5.321   2.031   1.296 -0.0517  0.0319  0.1015
12663W        W29510  10.451   5.394  12.708  0.1340 -0.0357 -0.4813
12664W        W29511   4.505  17.468   1.604  0.3639  0.1460 -0.2046
12665W        W29512  10.168   3.646  14.062  0.2445  0.1518  0.2516
12666W        W29513  10.274  13.465   3.894 -0.4584  0.0405  0.3048
12667W        W29514  10.684  16.939  13.199 -0.0001 -0.1041 -0.0947
12668W        W29515   4.563  11.923   6.022 -0.0418 -0.2884 -0.1715
12669W        W29516   9.678  16.442   5.413 -0.2180 -0.0592  0.3729
12670W        W29517   2.248  11.224   0.286  0.0998 -0.3775 -0.3469
12671W        W29518   0.670  15.447  15.248  0.0091  0.3954 -0.2227
12672W        W29519  11.958   4.783  14.809 -0.1988  0.1455  0.3576
12673W        W29520  13.546   6.809  14.142 -0.1052  0.1869 -0.2509
12674W        W29521  12.697  10.252  12.402 -0.2418 -0.3194  0.0110
12675W        W29522   3.522   6.804  12.945  0.0357 -0.0846  0.2441
12676W        W29523  17.875   3.082  12.636 -0.1304  0.1573  0.0153
12677W        W29524   6.260   6.150  12.631 -0.3110 -0.1710 -0.0551
12678W        W29525  12.821   6.734  14.937  0.2124  0.0849  0.2703
12679W        W29526  10.266   8.595   3.575 -0.0849 -0.2643  0.0484
12680W        W29527   7.940   9.097  14.927  0.0320 -0.1008  0.0832
12681W        W29528   6.982  11.166  11.745 -0.2930  0.0841  0.0641
12682W        W29529  17.461   2.895  15.922 -0.1312 -0.0691 -0.0474
12683W        W29530   8.643  15.095   2.527 -0.0268 -0.0210  0.0460
12684W        W29531  14.343   4.692  14.890  0.1852  0.1463  0.1387
12685W        W29532  14.384  16.653   0.798  0.1043 -0.1600  0.2800
12686W        W29533   1.968  11.741  14.752 -0.0442  0.1331  0.2417
12687W        W29534  13.299   9.969   1.176  0.2580  0.1884 -0.1983
12688W        W29535  16.137   8.735   0.463  0.3684  0.2752 -0.0825
12689W        W29536  12.610   1.028   2.972 -0.0302  0.1028 -0.0008
12690W        W29537  17.298   9.433  15.559 -0.0746  0.1343  0.1718
12691W        W29538  12.131   4.695   5.633  0.0007  0.1122  0.1033
12692W        W29539   9.091  11.099  15.721  0.2129 -0.1392 -0.1802
12693W        W29540   3.621   5.984  12.903  0.0237 -0.1044  0.0569
12694W        W29541   1.810   0.382  13.421  0.3391 -0.1944 -0.0749
12695W        W29542  15.769  12.332   3.154  0.1805 -0.2060  0.0792
12696W        W29543  15.037  15.554   5.468  0.1579  0.2092 -0.1145
12697W        W29544  16.960  13.217  16.076 -0.0986  0.0348  0.2640
12698W        W29545  18.126  11.746  12.324 -0.2406  0.0735  0.1297
12699W        W29546  13.491  12.451   1.018  0.1722 -0.3662 -0.1278
12700W        W29547  16.281   4.508  13.956  0.0428 -0.1592  0.1463
12701W        W29548   1.525  12.351   1.003 -0.1002 -0.0411 -0.3671
12702W        W29549  12.172   5.078  14.295 -0.1146 -0.0803 -0.2351
12703W        W29550  18.337   7.930  11.631 -0.0634 -0.2671  0.0543
12704W        W29551   7.873  12.891   3.669  0.3286  0.0708 -0.2978
12705W        W29552   2.213  16.945   5.794  0.1208 -0.2043 -0.0175
12706W        W29553  14.156  13.133  16.128  0.2643 -0.4413  0.0691
12707W        W29554  11.631   4.929   3.798 -0.0465  0.2789 -0.0585
12708W        W29555   3.426  12.217   1.024 -0.0010 -0.2687 -0.3563
12709W        W29556   4.512   5.184   3.868  0.4064 -0.1106  0.0007
12710W        W29557  11.535  17.246   2.092 -0.0160 -0.0563 -0.1231
12711W        W29558   1.739   1.899  11.946 -0.1538  0.0053  0.0595
12712W        W29559   8.948  11.304   1.477  0.1907  0.0441 -0.1488
12713W        W29560   6.326  15.833  14.465  0.2443  0.0628  0.3586
12714W        W29561  14.161   9.433   1.179  0.0424  0.0621  0.0841
12715W        W29562   6.936  14.612  12.412  0.0169 -0.1491  0.0687
12716W        W29563   5.583  13.084  12.334 -0.1295  0.1543  0.1424
12717W        W29564  17.788   7.168   2.766 -0.1135 -0.2377  0.0763
12718W        W29565   7.377   4.922   5.571 -0.0502  0.0142  0.0186
12719W        W29566   1.665   2.034   1.145  0.2573  0.0176 -0.2606
12720W        W29567   9.821   5.355  11.557  0.2376  0.0427  0.1223
12721W        W29568   0.636  15.277   2.914  0.1339  0.5250  0.1334
12722W        W29569   2.481  15.648  14.548  0.0429 -0.3102  0.2381
12723W        W29570   2.170  14.427   4.676  0.1213  0.0422  0.1989
12724W        W29571  13.710   2.120   0.898 -0.0015 -0.1013 -0.0187
12725W        W29572   1.349  10.203   2.844 -0.0242  0.1610  0.3284
12726W        W29573   6.265  18.305  13.267 -0.3500 -0.0736 -0.2072
12727W        W29574  12.782   5.785  11.823  0.1537 -0.2445 -0.1491
12728W        W29575  17.262   7.373  12.383  0.0114  0.2987 -0.2849
12729W        W29576   0.826  16.050  15.746 -0.0959 -0.0753  0.1206
12730W        W29577   6.683  17.316   4.615 -0.0578 -0.1764 -0.1609
12731W        W29578  17.934  14.415  12.238 -0.3140  0.2469 -0.1403
12732W        W29579  10.529   0.360  14.338 -0.1584 -0.0176  0.1821
12733W        W29580   7.391  14.515   2.184  0.0015  0.0704 -0.3446
12734W        W29581  16.815   2.042  11.281 -0.1492  0.0962  0.2062
12735W        W29582  15.728   0.083  13.258  0.0770 -0.1791 -0.0512
12736W        W29583  14.964   3.286  12.873  0.0632 -0.0812 -0.1944
12737W        W29584  17.083   2.857  15.003  0.1795 -0.0597 -0.1459
12738W        W29585  14.862   0.297  13.636  0.1289  0.0907 -0.1017
12739W        W29586   0.105   9.066   2.373 -0.1257 -0.1673  0.0506
12740W        W29587  10.247  10.904  13.655 -0.2378 -0.0088  0.3483
12741W        W29588   6.966  10.416  13.599 -0.0378 -0.1711 -0.1885
12742W        W29589  12.178   8.382   4.015 -0.0771  0.0886  0.1208
12743W        W29590   5.968   0.864  12.290  0.1230 -0.1847 -0.1376
12744W        W29591  17.998   0.579   4.428  0.0070 -0.0855 -0.0017
12745W        W29592  16.645  16.420   4.924 -0.2343  0.1779 -0.2315
12746W        W29593   2.559   0.325  10.540  0.0079 -0.0565 -0.1132
12747W        W29594   8.238   6.560   0.139 -0.0443 -0.1132 -0.2690
12748W        W29595   7.652  16.324   4.470  0.0953  0.2638 -0.1171
12749W        W29596   0.228  17.837  12.517 -0.0368  0.0052 -0.0152
12750W        W29597  16.510  17.224  13.744 -0.1320 -0.0105  0.3817
12751W        W29598   7.282  14.010  11.653 -0.1019 -0.1562 -0.0996
12752W        W29599   2.035   8.441   4.676  0.0206 -0.0889  0.2234
12753W        W29600  11.539   1.732  10.491  0.0022  0.1583  0.0586
12754W        W29601   2.948  11.241  15.513  0.0321  0.1652 -0.0168
12755W        W29602   8.302  15.759   1.714  0.3541  0.3830 -0.2441
12756W        W29603  10.075  12.437   1.445 -0.0221  0.0672  0.2991
12757W        W29604  14.629  16.975  12.095 -0.4657 -0.1406  0.0037
12758W        W29605   4.984   2.284  14.053 -0.1868 -0.2837 -0.0619
12759W        W29606  16.610  16.228   1.091 -0.1464  0.2402  0.1221
12760W        W29607   7.273   1.465   3.292 -0.2141 -0.1842  0.2703
12761W        W29608  16.195   6.564  10.827 -0.1431  0.1695  0.1841
12762W        W29609  17.540   9.881   0.786  0.1791  0.1051  0.1508
12763W        W29610   1.600   1.927   3.679  0.1681 -0.2803  0.0476
12764W        W29611   3.800   6.587   4.547  0.0835  0.1750  0.0548
12765W        W29612   9.380  10.825   2.404 -0.1779  0.3169  0.0011
12766W        W29613  18.184   7.374   3.470 -0.0190  0.2287 -0.4158
12767W        W29614   8.137   1.554  13.611 -0.1982 -0.0349  0.0533
12768W        W29615   5.250  17.165   1.205 -0.0937 -0.2176  0.3829
12769W        W29616   9.063  18.167   1.507  0.2661 -0.0836 -0.0201
12770W        W29617   4.497   9.513  14.135 -0.1045  0.2596  0.0797
12771W        W29618   4.037   3.626  14.825 -0.2536 -0.0871  0.2004
12772W        W29619  16.813  15.960  13.867 -0.3774  0.2114  0.5609
12773W        W29620  11.182   5.059  16.010 -0.1441 -0.0150  0.1545
12774W        W29621   3.096   3.976   2.413 -0.1149 -0.1524 -0.0483
12775W        W29622   3.035   7.503  12.201 -0.0212 -0.2708 -0.1263
12776W        W29623  18.080   8.276  13.351 -0.1835  0.1497 -0.2325
12777W        W29624   8.220   5.492   2.788  0.0690  0.1121  0.1189
12778W        W29625   1.271  10.610   1.695  0.3595 -0.2622 -0.0019
12779W        W29626  11.364  14.110   4.523 -0.1418 -0.2189 -0.2767
12780W        W29627   5.333  18.334  14.093  0.3372 -0.0662  0.0331
12781W        W29628  16.962   2.093  16.071 -0.1514 -0.1415  0.1542
12782W        W29629   6.057  16.388   2.041 -0.1228 -0.1105 -0.3033
12783W        W29630  10.887  13.937  14.106  0.2186 -0.2770  0.0711
12784W        W29631  11.109   8.797   2.730 -0.1119  0.3584 -0.1279
12785W        W29632  15.346  16.321   4.783 -0.2484  0.2308 -0.3198
12786W        W29633   6.346   4.261   2.438  0.1423 -0.0920  0.1081
12787W        W29634  17.222  17.356  14.536 -0.0367  0.2701 -0.2167
12788W        W29635   6.039  10.672   3.287 -0.1041 -0.0957  0.2239
12789W        W29636   8.309   5.696   4.897 -0.0403 -0.0371  0.2577
12790W        W29637  16.769   7.101   2.049  0.1553 -0.2405 -0.1679
12791W        W29638  15.160   5.993   0.536  0.3426 -0.1512  0.4248
12792W        W29639   1.178   2.050  11.180  0.1459 -0.3811  0.1607
12793W        W29640   8.773  13.474   0.142  0.0535 -0.0967 -0.2035
12794W        W29641   1.711   3.340  15.955 -0.0564  0.1153  0.3124
12795W        W29642  13.282   9.902  12.630  0.2066  0.1036  0.0543
12796W        W29643  12.495  13.045  15.358  0.1766 -0.0156  0.1774
12797W        W29644   0.576  14.715  15.329 -0.0697  0.4692  0.0319
12798W        W29645   1.580  10.125  14.832  0.2278  0.1461  0.0436
12799W        W29646  12.134   9.761  14.401  0.2687  0.0298  0.1670
12800W        W29647   7.153   4.686   0.917 -0.2111  0.3525  0.0586
12801W        W29648   5.242   6.748  12.000 -0.0439  0.0433  0.3803
12802W        W29649  13.926   4.652   5.913 -0.0712 -0.0753 -0.1109
12803W        W29650  17.532  11.863   4.642  0.0873 -0.0870  0.0133
12804W        W29651   7.106  17.698   3.167 -0.1685  0.3555  0.0188
12805W        W29652   0.616   7.934   5.284  0.1368  0.1463 -0.2263
12806W        W29653   6.721  12.107  13.984 -0.2131 -0.4178 -0.0535
12807W        W29654   0.470   3.744  12.203 -0.0463 -0.0152  0.1238
12808W        W29655  18.277  11.477   4.605 -0.0841 -0.0944 -0.1234
12809W        W29656   2.960   3.722   1.960 -0.0871 -0.1784 -0.0661
12810W        W29657  11.691   8.437  16.215 -0.2233 -0.2385 -0.3379
12811W        W29658  16.473  14.521   3.645  0.0616 -0.2203  0.1040
12812W        W29659  10.285  10.566  12.310 -0.0905  0.0521  0.1497
12813W        W29660  16.890   3.796   0.171 -0.2454 -0.1007 -0.1831
12814W        W29661  14.398  15.303   1.418 -0.2091  0.0185 -0.1831
12815W        W29662  18.083  14.156   1.404  0.2621 -0.2209  0.1751
12816W        W29663   6.622   0.383  11.496 -0.1525  0.0830  0.0424
12817W        W29664   4.266   0.387  11.855  0.0465  0.1441  0.5867
12818W        W29665   0.996   4.936   1.491  0.1375  0.0795  0.3430
12819W        W29666   8.164  12.342   2.887 -0.2489  0.2633  0.1637
12820W        W29667  11.846   1.760   4.528  0.1370  0.4273  0.0760
12821W        W29668   0.875  10.757   0.026  0.0779  0.2793  0.3987
12822W        W29669   6.474   9.568   3.890  0.2223  0.0660 -0.0136
12823W        W29670   5.562   6.311   4.242  0.2085 -0.1268 -0.3166
12824W        W29671  11.743  12.298  15.407 -0.1536 -0.1209  0.2646
12825W        W29672  11.882   9.176   1.464 -0.0230 -0.0409 -0.1173
12826W        W29673   9.841  16.968  12.935  0.1098 -0.0347  0.0104
12827W        W29674   8.432   1.465  11.594 -0.2151 -0.1590 -0.2022
12828W        W29675   5.796   3.506   5.102  0.1003  0.1176  0.1785
12829W        W29676   7.874   0.052   4.007  0.2429 -0.0688 -0.1171
12830W        W29677   0.854  11.725   3.085 -0.0662  0.2042  0.1809
12831W        W29678   7.795  17.814  12.811  0.0336 -0.5662  0.1137
12832W        W29679  11.076   1.590   3.155  0.0999 -0.2819  0.2160
12833W        W29680  18.002   1.569   1.890 -0.0857 -0.0283 -0.2330
12834W        W29681  10.409  17.837  15.248  0.0348  0.3507 -0.2376
12835W        W29682   0.844   8.981   2.975  0.2465  0.1492  0.0889
12836W        W29683  17.179   7.086   3.037  0.0493  0.2079  0.1275
12837W        W29684   5.572  14.753  11.438 -0.0538 -0.0180 -0.1592
12838W        W29685   2.811   9.655  16.338 -0.1223 -0.0831  0.2648
12839W        W29686   1.625   6.851   3.685  0.0816  0.1743 -0.1113
12840W        W29687   5.408   1.572   2.646 -0.0555 -0.0722  0.2084
12841W        W29688  15.123   0.466   1.146  0.0843 -0.1104  0.2351
12842W        W29689  16.598  17.735   2.019  0.3705 -0.1493  0.1384
12843W        W29690   1.274  10.513  14.983 -0.1497 -0.2205  0.3288
12844W        W29691   1.657   0.426  14.584  0.1319 -0.1136 -0.0912
12845W        W29692  13.146   3.823  14.129  0.0162  0.0962 -0.0992
12846W        W29693   6.022  15.990   5.897 -0.2428 -0.1196  0.0050
12847W        W29694   4.012   8.814  14.388 -0.3073 -0.4181 -0.3111
12848W        W29695   0.783  10.173   3.966  0.0215  0.3942  0.1631
12849W        W29696  18.419   1.141  12.777 -0.1947 -0.1198  0.0914
12850W        W29697   0.072  14.422  14.665 -0.3977 -0.1766 -0.0259
12851W        W29698   8.857  11.990   3.848  0.0425 -0.1596  0.0437
12852W        W29699   5.498  12.265  14.424  0.0379  0.1097 -0.3632
12853W        W29700  11.317  12.269  15.082  0.1464 -0.0295 -0.1291
12854W        W29701   2.195   5.043  15.950 -0.0287 -0.1599 -0.0618
12855W        W29702  13.529   6.328   2.517 -0.0356  0.0795 -0.2447
12856W        W29703   8.058   8.568  14.365  0.2107 -0.2671 -0.4472
12857W        W29704   7.915   2.194  12.446 -0.0240  0.0775  0.1328
12858W        W29705  10.696   4.077   5.898 -0.0909 -0.1465 -0.0081
12859W        W29706  10.769  13.837  12.786 -0.0193 -0.0553 -0.0305
12860W        W29707  14.981   0.260   0.759 -0.0051  0.0140  0.2466
12861W        W29708  13.427   8.991  15.983  0.2480 -0.2668 -0.0682
12862W        W29709  15.505  13.966   0.941  0.1765  0.2803 -0.0821
12863W        W29710   5.325   7.590  11.573 -0.0492  0.5404  0.4275
12864W        W29711   1.960  16.217  12.643 -0.0732  0.2202 -0.3567
12865W        W29712   9.570   0.730  12.588 -0.1064  0.2106 -0.1046
12866W        W29713   5.256   8.503  12.086  0.3610  0.0030 -0.1327
12867W        W29714   4.083   2.621   4.351  0.0024 -0.2027 -0.2179
12868W        W29715   1.647   0.236   3.346  0.0875 -0.1480  0.1218
12869W        W29716  12.273   3.982  13.396  0.3230  0.1898 -0.1096
12870W        W29717   9.747  18.263  12.150  0.1964 -0.0502 -0.2775
12871W        W29718  10.850   5.047   5.235 -0.0140  0.1418 -0.0017
12872W        W29719   1.717  18.190   1.219  0.3399 -0.0243  0.1356
12873W        W29720  13.797   5.346  12.913 -0.3394 -0.0323 -0.0449
12874W        W29721   2.331  12.020   1.352 -0.2895  0.1380  0.1088
12875W        W29722   6.095   9.514   1.981 -0.0280  0.0977  0.0410
12876W        W29723  15.306  13.830  11.587  0.1004  0.1319 -0.0429
12877W        W29724  11.127  10.085   2.723 -0.1761 -0.1319 -0.2821
12878W        W29725   1.272   1.671  14.460 -0.1227  0.2379  0.1137
12879W        W29726   5.400  17.918   4.905  0.1357  0.1686 -0.2356
12880W        W29727   3.679  12.671  14.262 -0.2182  0.0813  0.0020
12881W        W29728  17.583   8.184   1.497 -0.0894 -0.0643  0.0346
12882W        W29729   0.548  11.073   3.664  0.0390  0.2260  0.0652
12883W        W29730   4.032   8.531  11.781 -0.2216  0.0048 -0.0876
12884W        W29731   8.746   3.477  12.177 -0.1888 -0.1883  0.0230
12885W        W29732  12.848   1.077  16.376 -0.0535 -0.3393  0.1936
12886W        W29733   8.772   5.480   2.693  0.0633 -0.4279  0.0670
12887W        W29734   0.848  17.879  14.242 -0.0416 -0.0597  0.3646
12888W        W29735   4.369  10.524   2.869  0.2009  0.0916 -0.2360
12889W        W29736  15.989   0.882  15.989 -0.3369  0.2616 -0.3875
12890W        W29737  16.832   4.624  16.284 -0.1851  0.3508  0.3237
12891W        W29738  18.081   3.652   1.677  0.2109 -0.6568  0.1095
12892W        W29739  10.465   1.032   2.040  0.1946  0.2124 -0.0678
12893W        W29740  11.308   8.831   2.278 -0.0429  0.0647  0.1415
12894W        W29741  11.121   6.850   2.179  0.3627  0.1633 -0.1334
12895W        W29742   7.914  14.283  11.858  0.0725  0.2548  0.3000
12896W        W29743  13.306  12.318  13.541  0.3526  0.0708 -0.0527
12897W        W29744  10.589   5.757  14.526  0.0744  0.0115 -0.1167
12898W        W29745   3.568  14.268  13.702 -0.1635 -0.1568  0.0101
12899W        W29746   0.084   9.819   4.571  0.1973  0.1271 -0.3218
12900W        W29747   6.308   4.680   3.601  0.0194  0.1382  0.1308
12901W        W29748   5.001   3.529   5.023  0.1231 -0.2275 -0.1275
12902W        W29749   5.853   2.521   3.410 -0.2487  0.1265  0.2729
12903W        W29750  14.393   5.975  15.980 -0.0300  0.1166 -0.0298
12904W        W29751   7.424   0.970  11.527 -0.1706 -0.2260 -0.1096
12905W        W29752  17.459  16.211   0.116  0.2237 -0.1407  0.0331
12906W        W29753  17.352   3.647  12.474 -0.1146 -0.2602  0.4034
12907W        W29754   8.728  10.562  13.063  0.0278  0.1126  0.0996
12908W        W29755  16.280   4.154   1.245 -0.0743 -0.1008 -0.2251
12909W        W29756  18.280   5.514  15.542 -0.2068 -0.1995  0.3598
12910W        W29757   8.451   5.787   1.509 -0.0339 -0.2216  0.2793
12911W        W29758   4.391  14.799   0.030  0.0616 -0.2410  0.0953
12912W        W29759  13.361  11.319  14.169  0.1056 -0.1073  0.0275
12913W        W29760  11.533  15.884   4.329  0.1408 -0.0814 -0.2706
12914W        W29761  16.793  12.575   3.657  0.0346  0.0883 -0.2582
12915W        W29762  12.334   4.610  12.273 -0.1114  0.1047  0.0422
12916W        W29763   9.351  10.382  15.291 -0.1008 -0.4057  0.1131
12917W        W29764  13.296  16.847   3.471 -0.1036  0.0088 -0.2293
12918W        W29765   5.703  11.981   2.038 -0.0640 -0.0192 -0.4434
12919W        W29766   4.245   9.054   1.792  0.0652  0.4453 -0.0671
12920W        W29767   2.908  14.474  15.687  0.1869 -0.3213  0.1801
12921W        W29768   7.449  11.314   4.958 -0.1669 -0.1092  0.2526
12922W        W29769  17.721   7.373   4.652  0.2295  0.0111  0.0664
12923W        W29770   4.425  13.555  14.445 -0.1623 -0.0446  0.1041
12924W        W29771   8.740   2.887   4.490 -0.0374 -0.0298  0.3704
12925W        W29772   1.968   6.720  12.524 -0.0669 -0.0345 -0.0005
12926W        W29773   8.520   8.111  12.433  0.1019 -0.0625 -0.2765
12927W        W29774  11.910  14.974   2.355  0.2161 -0.0773 -0.0455
12928W        W29775   0.655  16.137   1.789  0.2385 -0.1720  0.2252
12929W        W29776   6.175   5.125   1.078  0.2026  0.0721 -0.2870
12930W        W29777   7.306  18.031  12.085  0.1673 -0.1194  0.0639
12931W        W29778   5.580   7.096   2.514 -0.2537 -0.1783  0.1777
12932W        W29779   1.875  14.741  12.230 -0.0602  0.2159 -0.0369
12933W        W29780  16.305   0.941   4.268  0.0580  0.0805  0.1448
12934W        W29781   2.808   6.187   4.613 -0.0099 -0.1879  0.1966
12935W        W29782   5.258   1.113  13.447  0.0431 -0.1980  0.1454
12936W        W29783   9.367   5.708   4.477 -0.0170  0.1272  0.2285
12937W        W29784  17.314   1.968  14.818  0.0663  0.1663  0.0093
12938W        W29785   9.698   7.403  10.426  0.0825 -0.0255 -0.0988
12939W        W29786  16.960  13.353   0.739 -0.0824 -0.2113 -0.2562
12940W        W29787   2.589   9.391  11.972  0.2477  0.0214 -0.3023
12941W        W29788   3.445   1.105  14.064 -0.0832 -0.2546  0.1040
12942W        W29789  10.824   3.687   4.156 -0.4530  0.1239  0.1072
12943W        W29790  11.216  16.450  13.710 -0.0210 -0.1786  0.3091
12944W        W29791   5.497  13.313  14.825  0.0480  0.0301  0.0671
12945W        W29792   8.606   7.951   3.714  0.3733 -0.2393  0.1012
12946W        W29793  12.881   4.845  11.602  0.1039  0.0781  0.2717
12947W        W29794  11.152   5.597   0.339 -0.1181 -0.0679 -0.1967
12948W        W29795  13.543   7.401  11.652 -0.3847 -0.0711 -0.3824
12949W        W29796   7.936   1.115   5.108 -0.0639 -0.0389 -0.1786
12950W        W29797   2.256   7.602  10.718  0.2503 -0.0929 -0.2410
12951W        W29798  15.894   7.119  11.873 -0.3196  0.2481  0.0979
12952W        W29799   2.556  13.337  11.868  0.1293  0.0905 -0.1483
12953W        W29800  13.715  16.601   2.929  0.0045  0.3589 -0.0658
12954W        W29801  12.145   8.113   1.565 -0.2927 -0.1131 -0.0781
12955W        W29802  10.854   9.970   0.367 -0.2457  0.1678 -0.2137
12956W        W29803   2.770  14.466  13.975  0.1603 -0.1514  0.0563
12957W        W29804  13.100  13.158  12.503  0.0576  0.1772  0.3536
12958W        W29805   8.814   8.747   4.163 -0.0709  0.1918  0.2278
12959W        W29806  11.196  10.788  11.581 -0.0934 -0.2256 -0.0116
12960W        W29807  15.578  16.178   2.394  0.1961 -0.1123 -0.0307
12961W        W29808   4.128   5.016  11.753  0.0676 -0.2835 -0.1860
12962W        W29809  15.161   6.877   1.083  0.2137 -0.2065 -0.0057
12963W        W29810  13.940   2.944   4.685  0.1721  0.1286  0.0428
12964W        W29811   6.840   8.865   3.208  0.0136  0.4021 -0.0688
12965W        W29812   2.951   6.984  11.961  0.0270 -0.1157  0.3439
12966W        W29813   1.591  16.213  11.818 -0.2265 -0.2938 -0.0511
12967W        W29814   1.025   8.013  11.174  0.2101  0.1905  0.1698
12968W        W29815   0.844  16.468  14.311  0.1700  0.2609  0.1346
12969W        W29816  14.602  15.366   5.281 -0.1326 -0.2208 -0.1612
12970W        W29817   6.662   1.433  14.729 -0.0262  0.1705  0.1390
12971W        W29818  10.510   6.490   0.081 -0.1085 -0.2192  0.0182
12972W        W29819   9.269  16.756  12.765 -0.1023  0.1461  0.1023
12973W        W29820   6.251  12.060  13.357 -0.0196  0.1659 -0.0411
12974W        W29821  17.098  16.379  13.011 -0.1149  0.1404 -0.0215
12975W        W29822  12.416  12.808   5.293  0.0575 -0.0808 -0.1233
12976W        W29823   4.660  13.778   2.858  0.0550 -0.1373 -0.0966
12977W        W29824   4.513   9.790   5.006 -0.2675  0.0862 -0.0915
12978W        W29825   9.656  16.317  14.478 -0.0032  0.0426  0.0150
12979W        W29826  16.125   4.536  10.712  0.1394 -0.1714 -0.2884
12980W        W29827  17.582  11.854  14.393  0.1125 -0.1092 -0.1010
12981W        W29828  18.169  10.774  14.294 -0.0790  0.1839  0.1844
12982W        W29829  10.961   2.769  15.030  0.0585  0.1962 -0.0145
12983W        W29830  15.404   1.385   0.249 -0.3888  0.1073 -0.1282
12984W        W29831   7.399   9.894   0.098 -0.0210 -0.0010 -0.0553
12985W        W29832   2.713   6.736  13.624 -0.1182 -0.0991  0.1788
12986W        W29833  18.230  14.108  13.719 -0.0521  0.0330  0.3213
12987W        W29834   9.138   4.200  12.959  0.3308 -0.1134  0.1490
12988W        W29835   4.681  14.266  14.107  0.2537 -0.1162  0.3411
12989W        W29836   5.352  10.024   0.870 -0.2433 -0.1035 -0.2419
12990W        W29837  15.805  10.928  12.856 -0.3271  0.0363 -0.0625
12991W        W29838   3.942  11.554   1.955 -0.2415  0.0922  0.0719
12992W        W29839   5.405   5.609   4.940  0.0346 -0.1150  0.2280
12993W        W29840  15.411   2.914   2.550  0.2587 -0.2288 -0.2825
12994W        W29841  14.931   8.667  12.478 -0.2526 -0.4597  0.0683
12995W        W29842   7.381  13.561   1.811 -0.0424  0.0650  0.0829
12996W        W29843  17.542   4.277  14.714 -0.0789  0.0940 -0.1093
12997W        W29844   1.172   5.664  11.487  0.2714  0.0737 -0.2043
12998W        W29845   7.805  14.862  13.021 -0.2889 -0.1381 -0.1896
12999W        W29846   3.588   4.038   5.189 -0.0244  0.1738 -0.2696
13000W        W29847   5.542  17.289   0.770 -0.2834  0.0822 -0.1810
13001W        W29848  10.427  15.996   4.422 -0.0339  0.2310  0.1752
13002W        W29849  11.728   1.817  11.800  0.0535  0.3632  0.0200
13003W        W29850   7.030  10.632   3.026  0.0283  0.0016 -0.0083
13004W        W29851   3.972   1.399  12.334 -0.0830  0.1887 -0.1358
13005W        W29852   5.782   7.065  15.599  0.0179 -0.6331  0.1329
13006W        W29853   7.187   3.381   5.215 -0.2243 -0.3857 -0.0067
13007W        W29854   8.429   0.965   3.554 -0.2566 -0.0102  0.2338
13008W        W29855  17.828  10.668   1.767 -0.0968  0.0631 -0.1104
13009W        W29856  11.059  17.022  14.944 -0.1941 -0.2525  0.2331
13010W        W29857   4.477  11.090   0.672 -0.2464 -0.0823 -0.1635
13011W        W29858  13.464   9.628  11.821  0.0558 -0.1429  0.4277
13012W        W29859   7.347   0.577   4.445 -0.0688  0.0861  0.1991
13013W        W29860   1.518   8.131   0.351  0.1862  0.1321  0.0076
13014W        W29861  14.116  14.034   5.641  0.1537 -0.0340  0.1778
13015W        W29862  13.052  13.662   0.764 -0.2365 -0.3829 -0.1616
13016W        W29863  10.387  12.277  13.777  0.0905  0.1731  0.0607
13017W        W29864  13.737  12.961   2.511  0.1681 -0.0302  0.1857
13018W        W29865   7.563   7.110   2.754 -0.0204 -0.1174 -0.3290
13019W        W29866  12.940  16.383  15.844  0.1211  0.1678  0.0025
13020W        W29867   6.885   9.040  14.032  0.0470 -0.1296 -0.0359
13021W        W29868  13.032  18.184   0.705  0.2322 -0.0269  0.1851
13022W        W29869   1.917   8.814   1.940  0.0390  0.0978 -0.0739
13023W        W29870  13.264  12.397  14.103 -0.1691 -0.0353 -0.0198
13024W        W29871  17.251  10.227  16.037  0.1433  0.0561 -0.2045
13025W        W29872   7.612   4.651  15.084 -0.1092  0.1448 -0.2078
13026W        W29873   9.897  16.971   1.090  0.0751  0.1509  0.0421
13027W        W29874   2.802  13.892   3.068 -0.3285 -0.1489  0.2004
13028W        W29875  12.090  16.899  12.271  0.0363 -0.0024  0.0902
13029W        W29876  14.515   5.152  15.035  0.1879  0.5497 -0.0872
13030W        W29877   9.977   0.504  13.305  0.0049 -0.0031  0.2610
13031W        W29878  10.286  15.820   1.304  0.0096  0.2264 -0.0480
13032W        W29879  11.206   1.659   1.013  0.1969 -0.0199 -0.1164
13033W        W29880   3.801  15.151  13.639 -0.1592 -0.1406  0.1712
13034W        W29881   3.390  10.510   1.371  0.3431  0.1794 -0.3095
13035W        W29882   5.683   0.342   1.821 -0.1970 -0.0774  0.0705
13036W        W29883  10.451  13.201   2.944  0.1562  0.0689 -0.1427
13037W        W29884   5.530  13.622   3.028 -0.0762  0.2129  0.1012
13038W        W29885   3.214  16.358   4.096  0.0104 -0.1196  0.1485
13039W        W29886  11.100   0.655   4.532  0.0973 -0.0579  0.1658
13040W        W29887   9.128   1.941   4.562  0.1079 -0.1250  0.3026
13041W        W29888  17.441  11.508   0.286 -0.1996 -0.2159  0.1204
13042W        W29889  11.025  13.674  15.928  0.0429  0.0486  0.1858
13043W        W29890   8.365   9.342   1.220  0.3115 -0.0250  0.2205
13044W        W29891  15.204  14.189  16.041 -0.1457 -0.0349  0.3547
13045W        W29892   4.383  11.245   3.655  0.5945  0.0134  0.0845
13046W        W29893   3.677   1.624  15.685 -0.4577 -0.1373  0.0001
13047W        W29894   8.990  12.445   3.364 -0.1453 -0.0694 -0.3438
13048W        W29895  10.054  17.549   4.424  0.1166 -0.1481 -0.0825
13049W        W29896   4.077  11.396   2.546  0.0230 -0.1165 -0.0681
13050W        W29897   6.893   5.635  13.755  0.1746  0.0855  0.2521
13051W        W29898   3.632   8.639   3.990 -0.2222  0.0804 -0.0759
13052W        W29899   9.290  11.663   4.800  0.0278 -0.0280 -0.2923
13053W        W29900   9.516  12.374  13.615 -0.1834 -0.0461  0.0314
13054W        W29901  17.921   7.617   2.473 -0.1889 -0.0596  0.1990
13055W        W29902   0.515   9.097  16.043  0.0002  0.2323 -0.1704
13056W        W29903   7.798  12.486  12.798 -0.1189  0.0990 -0.0153
13057W        W29904  14.698  17.955  13.661  0.1178  0.1047  0.0628
13058W        W29905  17.139   0.567   0.809 -0.0321  0.1605 -0.2153
13059W        W29906  12.021  13.212   4.426 -0.3731 -0.1815 -0.0547
13060W        W29907   0.451  10.394  14.129  0.1115  0.1256 -0.0225
13061W        W29908  10.650   1.314  14.849  0.0284 -0.3115  0.1629
13062W        W29909   8.457  16.093   5.297 -0.0158  0.1308 -0.2329
13063W        W29910   7.482   6.448  12.752  0.1708 -0.4689  0.1418
13064W        W29911  17.041  10.887   5.449  0.3037 -0.0820  0.1757
13065W        W29912   1.304   2.118   0.806 -0.0734 -0.0376  0.1578
13066W        W29913  10.565   3.393   4.474 -0.1250  0.0501 -0.1461
13067W        W29914  15.773   1.483  11.225  0.0206  0.1824  0.0132
13068W        W29915   9.848   6.946  15.275 -0.0372 -0.1022  0.0636
13069W        W29916   6.425   2.124  14.331  0.0124  0.0717  0.2692
13070W        W29917   3.934   7.520   3.084  0.0785  0.1739  0.0643
13071W        W29918  13.921   2.255  12.695  0.0526  0.0237  0.0708
13072W        W29919  15.743   1.200  14.891  0.2564  0.1150 -0.1661
13073W        W29920   5.781   3.548   2.468 -0.1204 -0.0674  0.0346
13074W        W29921   7.968   3.953  11.963 -0.0706 -0.1758 -0.0069
13075W        W29922  17.569   0.765   2.057 -0.1809 -0.0325  0.0579
13076W        W29923   4.459   5.176  10.963 -0.0519  0.0510 -0.3967
13077W        W29924  16.267   6.532   0.350 -0.1471  0.2319  0.0061
13078W        W29925   0.086  14.885  11.769  0.0394  0.1684 -0.0842
13079W        W29926  16.588   5.255  12.748 -0.0945 -0.2280  0.0667
13080W        W29927   6.252  14.700   2.250  0.0563 -0.0707 -0.1553
13081W        W29928   8.499   1.155   4.789  0.0530  0.0218 -0.4325
13082W        W29929   7.243  14.338   0.502 -0.1296  0.1365  0.0647
13083W        W29930   6.195  12.859   0.955  0.0504 -0.0751  0.1084
13084W        W29931  14.364   1.985   1.337  0.2719  0.0513 -0.0711
13085W        W29932  17.896  11.959   2.297 -0.2775  0.0187 -0.3055
13086W        W29933  13.124   2.059   3.814 -0.1658  0.2230  0.0055
13087W        W29934   8.928   1.700  15.706 -0.0694 -0.1435 -0.1019
13088W        W29935   2.693   2.570  11.323  0.3652 -0.1209 -0.0722
13089W        W29936   9.951   2.630   0.941 -0.0749  0.2086 -0.1601
13090W        W29937   1.539  10.824   4.699  0.2510  0.1054 -0.1116
13091W        W29938  11.847  11.502  14.318 -0.0385  0.3199  0.2408
13092W        W29939  17.455  13.086   1.542 -0.1325 -0.1751  0.3147
13093W        W29940   0.825   6.799  15.665  0.1953  0.1977  0.0416
13094W        W29941   5.190  16.233   0.372 -0.3740 -0.1755 -0.0395
13095W        W29942   6.973   3.136   2.028  0.1583  0.2056  0.0462
13096W        W29943   3.206   6.582   3.860 -0.0154 -0.0430  0.4038
13097W        W29944  10.262  12.157   0.471 -0.0589 -0.0885 -0.2019
13098W        W29945   2.599   1.628  13.486  0.0202 -0.1183  0.3950
13099W        W29946  11.248   9.934   1.083  0.0383 -0.0793  0.0763
13100W        W29947  14.895  16.571  12.307 -0.0283 -0.0083 -0.1065
13101W        W29948   6.064   2.382  14.212  0.1255  0.0310  0.0372
13102W        W29949  16.749   0.667   5.691  0.0427 -0.3746 -0.1099
13103W        W29950   8.338  11.168  12.178 -0.6492 -0.1010  0.1902
13104W        W29951   3.532   7.858  11.332  0.1068 -0.1321 -0.2789
13105W        W29952   5.289   1.904   5.604  0.0461 -0.1822  0.3226
13106W        W29953   6.029  10.984   4.265  0.1123  0.4023 -0.1949
13107W        W29954   1.437   1.606   4.057 -0.2333 -0.3059 -0.1249
13108W        W29955   4.631  11.193   2.439 -0.5319  0.1985 -0.0606
13109W        W29956  12.741  17.767  14.803 -0.0334 -0.1377  0.0726
13110W        W29957  11.173  14.407   2.015 -0.0034  0.0193 -0.1630
13111W        W29958   2.807   9.663   1.250  0.2382 -0.2749 -0.0605
13112W        W29959   5.141  17.569   0.937  0.0352  0.1574 -0.2023
13113W        W29960   0.875  14.813  15.923 -0.0108 -0.2627 -0.0537
13114W        W29961  15.436   6.603   4.377  0.3508 -0.2292  0.0312
13115W        W29962   8.171   8.602  14.884  0.1249 -0.2667 -0.1929
13116W        W29963   2.155  13.762   5.313 -0.2207 -0.0995 -0.0064
13117W        W29964  14.854   0.500  11.725  0.1863  0.3612 -0.1356
13118W        W29965   4.919  13.449  14.769 -0.2060  0.0422  0.2646
13119W        W29966  13.363  12.590  15.940  0.0548  0.0451 -0.1295
13120W        W29967   4.986  12.142   4.535 -0.2291 -0.0670  0.5021
13121W        W29968   5.121  17.771   0.484  0.1023  0.1151 -0.0225
13122W        W29969  15.874   9.906  16.342 -0.0607  0.1229  0.5298
13123W        W29970   4.765   4.475  11.204  0.0617  0.0372 -0.0591
13124W        W29971  17.059  18.128  11.704  0.3863 -0.0403 -0.2160
13125W        W29972   7.712   6.168   2.823  0.1451  0.0302  0.1249
13126W        W29973  10.277   5.485  14.882  0.3820 -0.2426 -0.0848
13127W        W29974  10.379  15.827  14.938  0.0708  0.0986  0.2619
13128W        W29975  17.302   2.062   0.163  0.4212 -0.0450 -0.1638
13129W        W29976   2.147  16.047   5.083  0.0469 -0.1049  0.1619
13130W        W29977  14.594   7.785  11.336  0.1060 -0.1258  0.0937
13131W        W29978  16.523  16.737  13.696  0.0924  0.0245 -0.0117
13132W        W29979   4.730  15.918   2.632 -0.2894 -0.0311 -0.0130
13133W        W29980   5.946   1.560   1.966 -0.1850 -0.1434  0.1928
13134W        W29981  11.321   0.280   3.595 -0.3119 -0.0121  0.0744
13135W        W29982   2.029  15.595   3.186 -0.0896  0.1823 -0.0737
13136W        W29983   0.072  10.618   2.524  0.1073 -0.2098  0.1725
13137W        W29984  16.756   5.248  14.198 -0.3062  0.0107  0.1269
13138W        W29985   2.859   1.486  15.171 -0.2076  0.1440 -0.0977
13139W        W29986   5.277   1.780  15.528  0.0798  0.2198  0.1938
13140W        W29987   2.860  11.326   2.665  0.1365  0.4115  0.2256
13141W        W29988  16.114   9.702   4.207 -0.0399 -0.0062  0.1106
13142W        W29989   6.022   6.206  11.451  0.0838  0.1120 -0.0159
13143W        W29990   2.325  10.260  15.121 -0.0298  0.0990 -0.1204
13144W        W29991  10.778   3.836   4.681 -0.0329  0.1015  0.1296
13145W        W29992  15.401   9.427  10.426  0.0922 -0.0244 -0.1772
13146W        W29993  12.921  18.275  12.804  0.1344  0.0109  0.0614
13147W        W29994   6.443  12.587   2.015 -0.4476  0.1276 -0.0472
13148W        W29995   6.807   9.681  11.986 -0.0108  0.1907  0.0345
13149W        W29996   3.561   2.958  12.666  0.1485 -0.0168 -0.0897
13150W        W29997  14.592  13.679   6.378  0.0822  0.4297 -0.2496
13151W        W29998   6.094  15.139   4.956  0.1381 -0.4250  0.0775
13152W        W29999  15.262   3.984  15.420 -0.0894  0.1863  0.1546
13153W        W30000   6.220  14.652  13.306  0.2244  0.0805  0.0225
13154W        W30001  15.765  10.499  12.580 -0.0563 -0.0843  0.2679
13155W        W30002  12.137  14.671  12.817 -0.1570 -0.1125 -0.1583
13156W        W30003   6.418   7.592  15.801  0.1926  0.0847  0.4069
13157W        W30004  17.528  14.844  15.131  0.0457 -0.1223  0.0842
13158W        W30005   1.776  12.617   2.125 -0.0516 -0.0434 -0.0538
13159W        W30006  17.615  14.260   5.094 -0.2494 -0.2315  0.2979
13160W        W30007  16.368  17.179  14.730 -0.0538  0.3526 -0.1153
13161W        W30008  13.786  16.712   0.903  0.1182 -0.4177 -0.0167
13162W        W30009   8.852   6.103   4.629  0.0452 -0.1428 -0.1520
13163W        W30010   0.138  17.006  14.041  0.6138 -0.1002 -0.0879
13164W        W30011  15.123   5.793  12.582 -0.2376 -0.1365 -0.1813
13165W        W30012   9.781  14.043  15.173 -0.0969  0.1213 -0.1694
13166W        W30013   0.779  10.864   3.241  0.0012 -0.1074  0.0287
13167W        W30014  17.950   8.812   0.374  0.0961  0.0836 -0.1711
13168W        W30015  10.780   2.617   1.473  0.1042  0.5265 -0.0231
13169W        W30016  16.696   5.469   5.016 -0.0107  0.1121  0.0490
13170W        W30017  10.186  18.194  14.938  0.2050  0.1225 -0.1077
13171W        W30018  15.304   9.582   1.843  0.2286 -0.2240 -0.3730
13172W        W30019  11.199   3.111  16.000 -0.1712 -0.0751  0.0526
13173W        W30020   7.538  13.692   4.177 -0.0574 -0.1949  0.3759
13174W        W30021  16.874   9.463  15.174 -0.0342  0.0901  0.0746
13175W        W30022  17.139   1.420   5.824  0.0487  0.0640 -0.1753
13176W        W30023  15.590  11.402   1.582  0.2339 -0.2653  0.1185
13177W        W30024   5.930   6.307   5.780 -0.0073 -0.0470  0.2493
13178W        W30025  13.100   3.966   0.264 -0.1252 -0.1003 -0.2182
13179W        W30026  18.254   7.206  13.453  0.3123 -0.4915 -0.1827
13180W        W30027  15.140  18.246  16.318  0.2182  0.3325 -0.4797
13181W        W30028  14.650  15.264  15.065 -0.1115 -0.0758  0.2349
13182W        W30029  14.625   2.279  13.311  0.0891 -0.0777 -0.1409
13183W        W30030   6.087  11.482   4.351 -0.1364 -0.1058 -0.1201
13184W        W30031  11.421   4.664  15.726  0.0924 -0.3151 -0.0993
13185W        W30032   3.227   5.499   5.508  0.1114 -0.0098  0.2433
13186W        W30033   7.460  10.435   1.174  0.0501 -0.1484 -0.2087
13187W        W30034   3.105   3.049   1.422  0.0448 -0.0081 -0.1800
13188W        W30035   6.162   9.370   2.793 -0.0312 -0.2978  0.1870
13189W        W30036   9.365  11.611   2.467 -0.0620 -0.1342  0.1749
13190W        W30037   2.513   6.903  11.755 -0.1008 -0.0602 -0.0660
13191W        W30038   6.761   5.364   2.349  0.0675 -0.1858  0.1327
13192W        W30039  10.674   5.825   0.248  0.2326  0.0469  0.0105
13193W        W30040   6.108   2.542  13.691 -0.0491  0.0644 -0.0078
13194W        W30041   9.712   7.928   3.010  0.0804  0.0354  0.0060
13195W        W30042  16.576  10.644   2.765 -0.1630 -0.0700 -0.0461
13196W        W30043   7.411   9.423   5.642 -0.0291  0.1474  0.0494
13197W        W30044  10.653  13.247   5.546 -0.0632 -0.2041 -0.0063
13198W        W30045   3.442   1.955  13.562  0.0884 -0.1294  0.1566
13199W        W30046  16.439  14.911   1.182  0.0805 -0.0057 -0.0682
13200W        W30047   6.301   3.040   4.477  0.4522 -0.0684 -0.0948
13201W        W30048   9.531   3.832   3.592  0.0513  0.0879 -0.1390
13202W        W30049   9.631  15.910   5.231 -0.0131 -0.0344  0.1511
13203W        W30050   2.945  15.837   1.224  0.0918  0.0901 -0.2057
13204W        W30051   5.972  10.388  15.972  0.1864  0.0083  0.1188
13205W        W30052  15.170  12.899   5.168 -0.0098  0.1032  0.1247
13206W        W30053   9.562  15.011   2.470 -0.0988 -0.2701 -0.0180
13207W        W30054   6.976  12.439   0.749  0.2537 -0.0114  0.1578
13208W        W30055  10.713  14.515   1.651 -0.1656  0.0279 -0.0782
13209W        W30056   3.988  13.076  14.342  0.1860  0.0877  0.3152
13210W        W30057   3.789   0.933   0.076  0.1864  0.2447 -0.1365
13211W        W30058   6.611   5.658   4.986 -0.0082  0.0206  0.3152
13212W        W30059  12.625  11.049  13.675 -0.1512 -0.1431  0.0463
13213W        W30060   2.010   6.202  10.664  0.1972 -0.0273 -0.0493
13214W        W30061   4.844  16.045  13.713  0.1234  0.2165 -0.1459
13215W        W30062  18.247   8.416   2.606  0.0906 -0.1487 -0.0629
13216W        W30063  11.988   3.822  12.415 -0.3259 -0.0267  0.3082
13217W        W30064   2.353   7.059  13.408 -0.1590 -0.0190 -0.0454
13218W        W30065  10.876  16.775   3.089 -0.2666 -0.0771 -0.1223
13219W        W30066  17.435   0.265  15.743 -0.2924 -0.1783  0.1128
13220W        W30067  14.917   8.394  14.564 -0.1363  0.0986 -0.4021
13221W        W30068   1.008   0.364   0.129 -0.3756 -0.0555 -0.0635
13222W        W30069   9.711  17.725  12.906  0.0534  0.1221  0.1957
13223W        W30070  14.687   4.455   4.864  0.1563  0.1411 -0.0949
13224W        W30071   5.276  14.953   4.859  0.2058 -0.2303 -0.0985
13225W        W30072  12.979  12.285   3.665  0.1549 -0.1672  0.0177
13226W        W30073  16.612  12.680  11.564 -0.1016  0.3003  0.1389
13227W        W30074  13.466   3.634  16.153 -0.3681  0.2262  0.1917
13228W        W30075  14.130  12.262  13.726  0.2548  0.1155 -0.1976
13229W        W30076  11.717  14.043   4.176 -0.0179 -0.3369  0.0960
13230W        W30077   3.663  10.887   4.077  0.0068  0.1447  0.1183
13231W        W30078   5.658  10.853  14.729  0.1457  0.0354  0.2299
13232W        W30079   6.465   8.074   1.777  0.0305 -0.0955  0.0835
13233W        W30080  12.047   0.200   4.673  0.2671  0.0834 -0.1375
13234W        W30081   1.489   1.041  12.687 -0.3348  0.1160  0.0897
13235W        W30082  10.689   9.922   5.659 -0.3012  0.0341  0.2455
13236W        W30083   6.546  16.253   4.528  0.0476  0.0497  0.0186
13237W        W30084   0.892  10.596  13.259  0.2267 -0.2070 -0.2434
13238W        W30085   5.215   1.052   1.415 -0.1521 -0.1085 -0.1047
13239W        W30086  17.703   1.691   3.810  0.1994 -0.1618  0.2121
13240W        W30087   3.528   0.924   1.774 -0.0965  0.0225  0.5031
13241W        W30088  15.890  11.784   2.479  0.0816 -0.1666 -0.1280
13242W        W30089   1.179   4.994  12.597 -0.1401  0.0803 -0.2235
13243W        W30090  13.272  11.642  14.565  0.0325  0.2503  0.1190
13244W        W30091  16.624  16.851   4.518 -0.2334  0.1144  0.2898
13245W        W30092   8.574   8.358  15.649  0.1493  0.2840  0.0086
13246W        W30093  17.533   2.120  13.587 -0.2613  0.0084 -0.2699
13247W        W30094   1.437   2.916  14.984 -0.1884  0.1518  0.1491
13248W        W30095  12.139   5.402   0.256  0.2609 -0.1906  0.0910
13249W        W30096   5.699  15.569   1.089 -0.1053 -0.0931 -0.2358
13250W        W30097   6.969   6.053  13.261  0.2653  0.2815  0.0386
13251W        W30098   8.491   1.196   1.915 -0.4262 -0.3262  0.0722
13252W        W30099  10.620  12.611   4.566  0.2607  0.4818 -0.4427
13253W        W30100   2.250  16.018  13.639  0.3092  0.2244  0.0395
13254W        W30101   9.872   6.255  11.639  0.2982  0.2436 -0.1757
13255W        W30102   8.299  12.591  12.784 -0.3202  0.0444  0.1520
13256W        W30103  17.904   7.079   3.283  0.3486 -0.0032 -0.2570
13257W        W30104   9.860   5.030   0.752 -0.1359 -0.0731  0.2092
13258W        W30105   7.239   2.771  12.681 -0.3085  0.3228  0.0205
13259W        W30106   4.774   1.029  11.602 -0.2011  0.0384 -0.3768
13260W        W30107  16.704  11.505   5.255  0.2406 -0.3210  0.2439
13261W        W30108   1.122   7.381  15.556 -0.1269  0.0005  0.1495
13262W        W30109  13.706  11.438  14.535  0.1978 -0.1769  0.2665
13263W        W30110   2.740   5.583  12.040 -0.1831 -0.0920 -0.0017
13264W        W30111  14.249  15.796   0.485  0.1825  0.1096 -0.1524
13265W        W30112   9.135   3.630   3.306  0.1859  0.1470  0.2052
13266W        W30113  18.289   6.558  15.772  0.1849 -0.0462  0.0093
13267W        W30114  11.029   9.718  11.417  0.1266  0.3422 -0.0043
13268W        W30115   6.718   3.222   5.298  0.2235 -0.0083  0.1974
13269W        W30116   4.583  11.261   4.088  0.3242  0.0943  0.1187
13270W        W30117  13.031   1.088   2.706 -0.0111  0.0840 -0.2624
13271W        W30118   7.376   9.158  14.107 -0.0800  0.1900  0.1434
13272W        W30119   8.744  16.493  11.753  0.3278 -0.1706 -0.0666
13273W        W30120   6.002  10.157  11.425 -0.0580 -0.0545 -0.2520
13274W        W30121  14.241  15.083   0.841 -0.1068 -0.0747 -0.0030
13275W        W30122  12.678   2.791  12.157  0.2259 -0.1782  0.2207
13276W        W30123   6.307   8.236  16.317  0.1312  0.2748  0.0438
13277W        W30124  14.391   8.200   0.305  0.2254 -0.1130 -0.1476
13278W        W30125   0.483  16.081   5.171 -0.1563  0.1140 -0.0832
13279W        W30126  16.479  11.204  16.376  0.0166 -0.1911  0.0874
13280W        W30127   1.199   5.482  13.850 -0.2226  0.3765  0.3466
13281W        W30128   3.677  11.044  15.370 -0.2417  0.1006  0.0813
13282W        W30129   4.926  12.816  14.529 -0.2414 -0.3171  0.3322
13283W        W30130   3.639  17.822   3.885  0.0009 -0.0620  0.0858
13284W        W30131   4.809   4.276  15.328 -0.0028  0.1333 -0.0525
13285W        W30132  12.870  10.460   0.488 -0.0995 -0.0103 -0.0924
13286W        W30133   6.384   1.076  11.851  0.0706 -0.1376  0.0217
13287W        W30134   0.221  12.427  14.307 -0.2417  0.4154  0.3067
13288W        W30135   7.588  17.440   5.009  0.1002 -0.3651 -0.3423
13289W        W30136   4.686   6.296  14.401 -0.1419  0.1816  0.2746
13290W        W30137   3.110  14.440   2.378  0.2749  0.0383 -0.0665
13291W        W30138   5.473  14.333   5.981  0.1236 -0.0200  0.0167
13292W        W30139  10.193  17.934   3.211 -0.4247  0.0489  0.1922
13293W        W30140  12.223   3.848   2.237 -0.0475 -0.0364 -0.0500
13294W        W30141  11.834   8.660   4.737  0.1959  0.3245  0.0213
13295W        W30142  11.858   5.219  15.758 -0.0518  0.1549 -0.3626
13296W        W30143   8.253  10.981   5.684  0.1469  0.1441  0.2298
13297W        W30144   6.591  18.163   5.025  0.0859 -0.0501  0.0451
13298W        W30145   0.028  14.669  15.070 -0.0244 -0.1355  0.3546
13299W        W30146   9.244  14.325   0.346 -0.0718  0.2628 -0.2093
13300W        W30147   3.482   1.878   4.230  0.1893 -0.1654  0.0720
13301W        W30148  13.086  16.448   4.063 -0.0076  0.0872  0.1776
13302W        W30149  10.460   6.398   5.574  0.1943  0.1305  0.1835
13303W        W30150  16.294  15.255  14.898  0.1285 -0.0663 -0.1765
13304W        W30151   4.562   5.986  12.556  0.1827  0.2421  0.2500
13305W        W30152  11.604  13.635  12.067  0.1564 -0.0266  0.2074
13306W        W30153   9.135   9.535   0.627 -0.0524  0.2225  0.1189
13307W        W30154   9.042  12.043   0.476 -0.0098  0.3303 -0.1831
13308W        W30155  14.378  17.213  15.105 -0.0084 -0.0759 -0.3134
13309W        W30156   7.973   0.076  11.641 -0.2010  0.0345 -0.3917
13310W        W30157  13.115  17.840   4.474  0.1545 -0.1019  0.1822
13311W        W30158   3.224  11.848   1.386 -0.0234  0.3581 -0.2011
13312W        W30159  15.416  13.302  13.045 -0.2413  0.2128 -0.0037
13313W        W30160   4.097   3.751   4.148 -0.2824  0.2237 -0.0402
13314W        W30161  14.960   2.385   2.601 -0.2637  0.1021 -0.0749
13315W        W30162   8.358   7.540  15.065 -0.1645  0.1358 -0.0964
13316W        W30163  15.477  14.459   1.012 -0.0848 -0.1573 -0.1364
13317W        W30164  16.058  13.901   3.825 -0.2609 -0.0613 -0.0680
13318W        W30165  17.140  15.651   0.512  0.1936  0.1458  0.0367
13319W        W30166   6.496   7.236   3.612 -0.0360 -0.0308  0.1207
13320W        W30167  17.517  12.359   5.746 -0.0987 -0.0246  0.1866
13321W        W30168   4.645   2.540   1.661  0.3481  0.1941  0.0641
13322W        W30169  13.861   8.871   2.208 -0.1016  0.2603  0.0027
13323W        W30170   6.828  14.314  12.985  0.0194 -0.1195  0.3645
13324W        W30171   0.547  13.464  16.218 -0.0868 -0.4601 -0.2780
13325W        W30172   5.089   0.042  11.446 -0.4170  0.0709 -0.1824
13326W        W30173  16.548   1.789  11.791  0.0756 -0.1216 -0.1506
13327W        W30174  10.316   8.739   0.892  0.1308 -0.1856 -0.0674
13328W        W30175   5.781  18.009  14.803 -0.1973 -0.2563 -0.3395
13329W        W30176  14.698   8.671  11.190 -0.5678  0.0602 -0.1632
13330W        W30177  13.953   5.749  11.293 -0.0697 -0.0395 -0.1715
13331W        W30178   9.584  14.285   3.044  0.3177 -0.0952 -0.2683
13332W        W30179  13.925  15.386   0.539 -0.1829 -0.3084 -0.0775
13333W        W30180   2.998   1.503  13.803  0.0427 -0.1655 -0.1078
13334W        W30181   2.571   7.093  15.570 -0.0891 -0.3769  0.2176
13335W        W30182   0.705   3.659   0.006 -0.3809  0.0587  0.1687
13336W        W30183   5.182   5.850   2.600  0.2212  0.2032 -0.1308
13337W        W30184  18.116  16.152  12.146  0.2120  0.1906 -0.1299
13338W        W30185  15.403  13.557  13.583  0.0217  0.0899  0.4552
13339W        W30186   5.300  10.847   0.382 -0.3484 -0.3223  0.4187
13340W        W30187  15.875  17.344  11.598  0.0394 -0.2125  0.1905
13341W        W30188   5.572   5.472   2.797 -0.0766  0.3780 -0.0144
13342W        W30189   1.924   0.848  13.552  0.0006  0.0647  0.0236
13343W        W30190   3.598  15.781  16.189  0.2786 -0.0179 -0.1908
13344W        W30191   6.792  15.029  11.839  0.0172 -0.0535  0.0299
13345W        W30192   8.030  18.174   5.842 -0.1378  0.1089  0.1295
13346W        W30193  10.866  15.205   2.381 -0.0914  0.1473 -0.1906
13347W        W30194  17.353   7.577  15.428 -0.2015 -0.1615  0.1232
13348W        W30195   9.411   9.923   3.863  0.1276 -0.0520  0.3372
13349W        W30196   3.837   3.827  12.722  0.1572  0.2309 -0.2824
13350W        W30197  12.357   5.855  13.114  0.0850  0.1621  0.5379
13351W        W30198  15.931  18.080   2.525 -0.3521  0.0237  0.0326
13352W        W30199   4.445   9.808   3.138 -0.0289 -0.1665 -0.0749
13353W        W30200   1.381   8.275  14.368  0.2464 -0.4909 -0.1742
13354W        W30201  11.222  16.801   3.910 -0.2965  0.2563 -0.1929
13355W        W30202   5.569  17.775  11.095 -0.4908 -0.2268  0.4994
13356W        W30203   7.594   5.086  11.176 -0.1596 -0.0665  0.1564
13357W        W30204  11.415   7.671  15.468 -0.2762  0.1481  0.3766
13358W        W30205  15.709   0.479   2.944 -0.3646  0.0032  0.1927
13359W        W30206  17.990   5.045  11.362 -0.1615  0.0856  0.0695
13360W        W30207   4.361   6.605  11.914 -0.4259 -0.2388 -0.0092
13361W        W30208   5.209   8.847   3.597  0.0511  0.2349 -0.0952
13362W        W30209   8.954  16.918  13.709 -0.2137  0.0462 -0.1356
13363W        W30210  16.417   9.342   3.340  0.0048  0.1420  0.2613
13364W        W30211  16.038   4.156   4.268 -0.2622 -0.0371  0.0552
13365W        W30212   0.546  12.105   5.014 -0.1540 -0.0698 -0.1871
13366W        W30213   5.428  11.624  13.624 -0.0758 -0.0283 -0.2246
13367W        W30214  10.220   1.762  14.421  0.0088  0.0209  0.0482
13368W        W30215  14.112  13.862   1.896  0.0806 -0.0238  0.0131
13369W        W30216  14.194   4.742  11.391  0.0670 -0.2019  0.0542
13370W        W30217  17.237  12.731   3.138 -0.0030 -0.0233 -0.4951
13371W        W30218  15.568   7.593   0.789  0.0898 -0.0584 -0.0216
13372W        W30219  12.225   0.429  14.412  0.2565 -0.3151  0.2835
13373W        W30220   5.638   7.381  14.371  0.3569 -0.3139 -0.0938
13374W        W30221   3.407   3.627   4.310  0.0178 -0.2994  0.1000
13375W        W30222  18.122  16.816   3.868  0.3437  0.0561  0.2245
13376W        W30223   9.704   1.422  16.011 -0.0339  0.2677  0.0445
13377W        W30224  16.260   8.546  15.508  0.0048  0.0295  0.0210
13378W        W30225   6.114   6.604  15.398 -0.1448 -0.0426 -0.4065
13379W        W30226  17.333  15.588   3.541 -0.0110  0.3209  0.1153
13380W        W30227   0.257  13.070  14.303  0.2185  0.2073 -0.1794
13381W        W30228   4.217   7.624   4.265  0.0180  0.0791  0.0893
13382W        W30229  13.405   8.107  13.413 -0.1970  0.3093 -0.0513
13383W        W30230   9.450  13.733   4.421  0.2265  0.0100  0.2891
13384W        W30231   9.481   8.228  16.174  0.2485 -0.4246  0.0095
13385W        W30232  12.191   1.136   1.553 -0.3439  0.1574  0.2944
13386W        W30233  14.929   3.879   4.651 -0.1398  0.5191 -0.1014
13387W        W30234   7.789  12.412  13.461 -0.1273 -0.1123 -0.0830
13388W        W30235  11.172  15.472  14.460  0.0889 -0.1001 -0.2126
13389W        W30236   0.784  16.517  14.826  0.0315 -0.1609 -0.0349
13390W        W30237   2.120  15.295  16.168 -0.0671  0.0680  0.1688
13391W        W30238  15.294  15.904  15.575  0.0759 -0.1126  0.1866
13392W        W30239  14.035   5.256   1.118 -0.0185  0.1842  0.0002
13393W        W30240   0.828  18.115   0.797  0.2114 -0.2237 -0.0107
13394W        W30241  11.364   8.002   3.357 -0.2851 -0.0166 -0.0312
13395W        W30242  11.796   1.971   3.133 -0.2967 -0.3085  0.1148
13396W        W30243   7.714   8.639   3.530 -0.1968 -0.0007 -0.0999
13397W        W30244   4.094   9.951   3.977  0.1318 -0.0788 -0.1698
13398W        W30245   4.004   9.315  12.687  0.0247  0.2810  0.0621
13399W        W30246   3.055   0.201   2.924  0.2070 -0.2919  0.0206
13400W        W30247  17.802   7.629  15.648 -0.0128  0.2589 -0.0571
13401W        W30248  11.166  14.589  12.418  0.2508  0.0812  0.0475
13402W        W30249   3.281   9.930  14.121  0.1330 -0.2334 -0.0219
13403W        W30250   7.573  12.007   3.720  0.4226  0.0544  0.2099
13404W        W30251   6.256   8.972   3.235 -0.0515  0.1229  0.2074
13405W        W30252   2.173   4.589   1.998 -0.0153  0.1630 -0.4087
13406W        W30253   4.633   0.047   0.296 -0.0602  0.1103  0.0637
13407W        W30254   9.687  15.257   5.743  0.0753 -0.1067 -0.0685
13408W        W30255  10.426   7.546  14.744  0.3804 -0.0452 -0.0677
13409W        W30256  13.380   9.686   4.257 -0.0904 -0.1641  0.0348
13410W        W30257   7.846  10.942   4.544 -0.0920 -0.1928  0.2316
13411W        W30258   9.013   6.031  12.950  0.0863  0.3805 -0.3986
13412W        W30259   2.833  17.379   3.928  0.0896  0.0293  0.1019
13413W        W30260   0.307  10.983   5.755 -0.0949 -0.6343  0.0688
13414W        W30261   6.218   4.399  15.647  0.1395  0.0366  0.1591
13415W        W30262  14.105   5.847  13.664  0.0931 -0.3355 -0.0560
13416W        W30263  14.416  13.436   1.360  0.0516  0.0145  0.0580
13417W        W30264   4.325   1.217   5.086 -0.0205 -0.3586 -0.1476
13418W        W30265   4.669   9.832   1.132 -0.2038 -0.1951 -0.2267
13419W        W30266   3.258   8.463   3.421 -0.1370  0.1168 -0.0933
13420W        W30267   1.871  15.105   4.151  0.0410  0.2589 -0.0626
13421W        W30268   8.091  15.337   0.312 -0.0405  0.2557  0.0718
13422W        W30269  12.762  15.267   4.114  0.0924  0.2282 -0.0783
13423W        W30270  14.530  12.513  15.723 -0.5354  0.0282  0.1251
13424W        W30271   9.951   8.966  15.117  0.4282  0.0192 -0.1303
13425W        W30272   7.601   8.132   3.982  0.4318 -0.2179  0.2668
13426W        W30273   3.840   1.996  13.764 -0.0429 -0.1029 -0.0185
13427W        W30274  12.734   9.747   1.430 -0.1910  0.2045  0.2561
13428W        W30275  11.462  11.355   6.203 -0.1964  0.2544  0.0534
13429W        W30276  16.766   8.611  15.495  0.1290  0.0255  0.0377
13430W        W30277   3.398  11.989   3.151  0.1209  0.0700 -0.2614
13431W        W30278   4.122   0.129   0.293 -0.0861  0.2306  0.2270
13432W        W30279   9.360   6.155  13.399  0.1688 -0.0946  0.1884
13433W        W30280  17.858  15.929   3.449 -0.2098  0.1974  0.0510
13434W        W30281   5.121   1.871  14.498 -0.0197  0.2225 -0.0074
13435W        W30282  10.329  12.740   6.109  0.0856  0.0033  0.2097
13436W        W30283  12.076   4.491  12.747  0.1420  0.3564  0.0569
13437W        W30284   2.762  17.783   6.428  0.1412 -0.2651 -0.0199
13438W        W30285  17.654   2.649  12.388 -0.2286  0.1121  0.0659
13439W        W30286   0.685   0.982   4.771 -0.2248 -0.1841 -0.4177
13440W        W30287  15.957  16.364  11.988  0.1428  0.1678  0.0741
13441W        W30288  11.976   0.463  13.950 -0.0032  0.1338 -0.3053
13442W        W30289  14.854   7.545  15.010  0.1427 -0.0651 -0.0071
13443W        W30290  14.424   3.172   0.718 -0.0160 -0.1872  0.0253
13444W        W30291  13.367   5.911   3.186  0.1985  0.0565 -0.3192
13445W        W30292  11.532  10.087   0.488  0.0932 -0.0450 -0.4705
13446W        W30293  11.412   3.058  15.108 -0.1150 -0.1761  0.0081
13447W        W30294   6.737   3.384   1.124 -0.0118 -0.2856 -0.1372
13448W        W30295   9.235   2.239  15.011  0.1388 -0.0971 -0.0723
13449W        W30296  13.774   9.172  11.647 -0.1217 -0.0688  0.0670
13450W        W30297  15.028   9.984  15.418 -0.1993  0.0680 -0.0921
13451W        W30298  13.766   6.142  13.955  0.0605 -0.2527  0.0178
13452W        W30299   8.135  18.336  14.919 -0.1219  0.0493 -0.0791
13453W        W30300   5.027   7.947  11.372 -0.0358 -0.0304 -0.3445
13454W        W30301  11.201   7.460   5.776 -0.0085 -0.0013 -0.0683
13455W        W30302   8.577  14.104  14.463 -0.1654 -0.2220 -0.3712
13456W        W30303  17.658  11.913   0.047 -0.0018 -0.1092  0.1829
13457W        W30304  14.558   5.927  14.661 -0.0594 -0.0906 -0.1048
13458W        W30305   3.552  13.480  15.854 -0.0467  0.0242  0.0202
13459W        W30306  13.241  17.695  14.842  0.1107  0.0467  0.1318
13460W        W30307  12.812  16.354   5.064 -0.0742  0.3723  0.3186
13461W        W30308  15.408   6.419   0.831  0.1250  0.1877 -0.2912
13462W        W30309   4.602  17.572  11.881 -0.1248  0.0893  0.0815
13463W        W30310   1.598   4.926   4.794 -0.0469  0.1235 -0.1564
13464W        W30311   0.609   3.009   2.465 -0.1949 -0.1456  0.4117
13465W        W30312   4.158  15.808  14.615  0.2501  0.1941  0.0200
13466W        W30313   6.962   5.863   4.206 -0.2886 -0.1757 -0.0954
13467W        W30314  12.567  14.094   5.025 -0.0311 -0.1657  0.2493
13468W        W30315   9.962  12.923  12.226  0.1143  0.0908  0.0151
13469W        W30316   8.054   7.305  11.600 -0.3961 -0.0671 -0.1943
13470W        W30317   8.843   6.293   3.773 -0.0716  0.1844 -0.0242
13471W        W30318  17.868  16.265   2.136 -0.3064  0.0351  0.0743
13472W        W30319   5.584   2.285   4.675  0.2126 -0.4424  0.0201
13473W        W30320  14.310  11.549   3.594 -0.2843 -0.0268 -0.1214
13474W        W30321   9.023   8.731  14.698 -0.0823  0.0183  0.2201
13475W        W30322   9.400   4.531   2.170 -0.0979  0.1406 -0.0493
13476W        W30323   9.852  13.737   4.001  0.0952 -0.0349 -0.2888
13477W        W30324   6.947  15.468  14.455  0.0091 -0.4410 -0.5061
13478W        W30325  14.305   9.087   0.260  0.1278  0.2036 -0.1702
13479W        W30326   4.464   6.883   0.302 -0.2430  0.2832 -0.0166
13480W        W30327  15.047  10.320  15.889 -0.0166 -0.1838 -0.2803
13481W        W30328  10.218   2.299  12.969  0.0923 -0.0218 -0.2574
13482W        W30329   4.914   9.804   4.636 -0.1732  0.1577  0.2770
13483W        W30330  10.731   6.523  15.942 -0.1332 -0.1303  0.1484
13484W        W30331   6.510   5.023  12.772 -0.2723 -0.1580 -0.0846
13485W        W30332  12.120   8.791  11.431  0.0857 -0.1547 -0.1522
13486W        W30333  12.425   6.940   0.915 -0.1578  0.1766  0.0999
13487W        W30334   9.653   7.845  14.281 -0.0392  0.0172 -0.0082
13488W        W30335  17.001  11.937   1.492  0.0372  0.1183 -0.0055
13489W        W30336   1.473   8.594   0.605 -0.4518  0.0385  0.2833
13490W        W30337   2.303   8.109   0.946 -0.0908 -0.0925  0.0906
13491W        W30338   1.009   0.667  12.712  0.5240  0.4307 -0.1165
13492W        W30339   7.628   7.359   1.654 -0.3150  0.1233  0.0672
13493W        W30340   9.664  18.381   3.802  0.0209  0.2655 -0.1348
13494W        W30341  13.382   4.469  13.332 -0.0456  0.0763 -0.0527
13495W        W30342  17.654  11.493   2.656 -0.0368 -0.2165  0.3549
13496W        W30343   0.282  12.264   3.415  0.1957  0.0975  0.0850
13497W        W30344   0.326  12.347   0.927 -0.3719 -0.0645 -0.0790
13498W        W30345  14.229  13.734  14.114  0.1693 -0.3035  0.0611
13499W        W30346   6.071  17.018   5.160 -0.2199  0.0700 -0.1579
13500W        W30347   5.699   6.992  14.654 -0.1605  0.1167 -0.2607
13501W        W30348   8.670   6.152   2.767 -0.0794  0.5142 -0.0016
13502W        W30349  17.802  11.699  15.929  0.0829  0.0404 -0.1063
13503W        W30350  17.760  13.890   1.707  0.0711  0.1574  0.1028
13504W        W30351   0.882  11.404   4.612  0.1431  0.1341  0.0113
13505W        W30352   6.046   7.075  11.546  0.0888 -0.0126  0.0317
13506W        W30353   4.668   1.910   4.789 -0.0839  0.0186  0.0834
13507W        W30354   7.284   6.609  13.445  0.0147 -0.2439  0.0238
13508W        W30355   5.454  18.184   3.718 -0.0952  0.0598  0.2003
13509W        W30356   6.232  15.394   5.394  0.0078  0.1032 -0.2022
13510W        W30357   2.793   4.886  14.680 -0.5373  0.1281  0.0756
13511W        W30358   4.838  10.521   5.355 -0.0928 -0.1444  0.1633
13512W        W30359   3.469  10.170  15.378 -0.0655  0.0614  0.0835
13513W        W30360   3.111  12.958   3.255 -0.0970 -0.2472 -0.0773
13514W        W30361   5.039  10.030   3.647 -0.0213 -0.1640 -0.3201
13515W        W30362  15.880   8.677   2.982 -0.3270 -0.1953  0.1161
13516W        W30363  16.062   7.829   0.775 -0.1129  0.0917  0.1300
13517W        W30364  15.815  16.973  13.168  0.0802 -0.1976 -0.0403
13518W        W30365  15.323   1.131  13.645 -0.0935  0.1076 -0.0365
13519W        W30366   4.318   7.195  14.686  0.0232  0.0631 -0.0286
13520W        W30367   1.637   5.750  14.289  0.0561  0.1072  0.1190
13521W        W30368  13.648  17.914   4.386  0.0674 -0.2117 -0.2064
13522W        W30369   0.341  12.075   2.245  0.0087 -0.0720  0.2087
13523W        W30370   0.944   0.494  12.206 -0.1732  0.1337 -0.3060
13524W        W30371   4.842   4.180  15.890 -0.0354  0.0312 -0.2438
13525W        W30372   2.238   4.608  15.509 -0.0224 -0.0465 -0.1414
13526W        W30373  18.311   8.254  12.011 -0.1021 -0.0214  0.1155
13527W        W30374   9.074  11.780  11.383 -0.0685  0.1789  0.4933
13528W        W30375   3.247   3.312  14.424  0.0613 -0.1186 -0.0664
13529W        W30376  14.150  11.226   0.510  0.2411  0.1192 -0.0036
13530W        W30377   9.535   7.214   5.068 -0.3918  0.2454  0.2279
13531W        W30378   0.404  11.519  12.765  0.0264 -0.0629  0.0287
13532W        W30379  14.975   9.514   1.503 -0.0939  0.2090  0.1247
13533W        W30380   5.591   8.700   2.791  0.3754  0.1337 -0.0371
13534W        W30381  16.347  14.430  14.215 -0.1173 -0.2988 -0.1564
13535W        W30382   1.106  17.924   3.153  0.0782  0.0343 -0.2336
13536W        W30383   0.889   3.996  10.995 -0.3099 -0.0035  0.2165
13537W        W30384   2.138  14.099   2.534  0.1238  0.2126  0.1571
13538W        W30385  13.991   1.670  14.587  0.0879  0.0816 -0.1194
13539W        W30386   7.870  15.962  13.283  0.2299 -0.3777 -0.1647
13540W        W30387  12.861   1.984  13.698 -0.1188 -0.3339 -0.1010
13541W        W30388  12.005  12.976   2.777  0.1369 -0.2061 -0.3417
13542W        W30389  14.095  17.083   4.618  0.0893 -0.0259 -0.1190
13543W        W30390   9.137   6.941   5.177 -0.2850 -0.0261  0.0207
13544W        W30391  15.649   3.227  10.745  0.1643  0.3237 -0.0035
13545W        W30392   5.978  13.082  15.331  0.0436 -0.0511 -0.0953
13546W        W30393   5.502   8.002   2.045 -0.3077  0.4023 -0.3399
13547W        W30394  10.978   3.251   3.333  0.0487 -0.4613  0.3082
13548W        W30395   9.859   3.343   2.770  0.1602 -0.0271 -0.2757
13549W        W30396   4.882  17.117   5.033 -0.0574 -0.1317  0.0453
13550W        W30397  15.765  12.434   0.499  0.0569  0.0798 -0.0594
13551W        W30398  12.504   3.258  15.709 -0.3906  0.0113 -0.0488
13552W        W30399   9.878  14.631  12.742  0.2257  0.0319  0.2335
13553W        W30400  16.848   0.562  11.952 -0.0456 -0.0456 -0.0556
13554W        W30401   7.228   7.711  12.999 -0.2867 -0.0792  0.0630
13555W        W30402  11.622   6.619   5.097 -0.1561 -0.2574 -0.0181
13556W        W30403   2.875  12.524   5.701 -0.5026  0.2038  0.1470
13557W        W30404  16.417   3.331   2.239 -0.1476  0.1564 -0.1541
13558W        W30405   6.280   5.056  11.121  0.1773  0.0874  0.0078
13559W        W30406   3.146   5.735   0.012  0.1065  0.1370 -0.0305
13560W        W30407   5.533   2.167   2.463 -0.1463 -0.2704 -0.0170
13561W        W30408   4.309   8.954  13.405  0.0074  0.0559  0.1763
13562W        W30409   2.475   8.037   3.723  0.0613 -0.1982 -0.2074
13563W        W30410   5.418   5.496   0.972  0.2553  0.0459  0.3747
13564W        W30411  14.790   9.707   3.615  0.2466 -0.2726 -0.3102
13565W        W30412   4.187   6.240  11.132 -0.2999 -0.3813  0.0664
13566W        W30413  10.041  16.616   1.794  0.2526  0.0038  0.2766
13567W        W30414  10.114   2.718   3.555  0.5437  0.0405  0.1918
13568W        W30415  16.098   5.011  12.474  0.0666  0.2320  0.0297
13569W        W30416   0.090   9.374   5.569 -0.0214  0.0952  0.0892
13570W        W30417   5.210  14.848   1.925 -0.0976  0.2107  0.2608
13571W        W30418  14.495  15.875  14.732 -0.1769  0.0462  0.1346
13572W        W30419  13.602  16.451  11.500  0.1686  0.0504 -0.0291
13573W        W30420   6.004  13.621   2.176  0.2442 -0.0777  0.0003
13574W        W30421   1.329   2.344  12.352 -0.0583  0.0557  0.2415
13575W        W30422  14.172  17.283   1.608  0.1974  0.3441  0.1695
13576W        W30423   0.961   5.324   2.888  0.2641  0.0158  0.0315
13577W        W30424  15.399   4.297  14.055 -0.1138  0.0326 -0.0548
13578W        W30425   1.061   2.394   3.043  0.0791 -0.4073 -0.0251
13579W        W30426  16.129   9.634  14.462  0.2000  0.2608  0.3952
13580W        W30427   5.015   6.466   5.186 -0.2068  0.1147 -0.0036
13581W        W30428  15.346  11.068   3.944  0.1831 -0.0511  0.1143
13582W        W30429   1.228   8.004   5.096  0.0615  0.3380  0.0425
13583W        W30430  14.060   8.789  13.671  0.0820 -0.0251 -0.2440
13584W        W30431   9.216   2.664   1.621  0.2897  0.1743 -0.1589
13585W        W30432  12.438   6.367   4.864  0.0067  0.1626 -0.1723
13586W        W30433  16.746   5.435   2.288 -0.2162 -0.2400  0.1530
13587W        W30434  12.390   4.123   4.976  0.1149  0.0904 -0.0059
13588W        W30435  14.212   5.012  12.004  0.0188  0.0653  0.2713
13589W        W30436  11.813  17.139  15.836 -0.0697  0.1263  0.1427
13590W        W30437  14.395  16.801   4.971  0.0261 -0.1834 -0.4075
13591W        W30438   8.650   1.592  14.874 -0.0414 -0.2891 -0.0713
13592W        W30439   9.853  12.540  13.951  0.1472  0.1225 -0.3848
13593W        W30440  16.709   9.776  15.533 -0.1449  0.2826  0.0838
13594W        W30441  17.772   9.026  12.151 -0.0287  0.0897  0.0986
13595W        W30442  14.216  10.921   4.564  0.0499  0.0303  0.0709
13596W        W30443   9.000   1.534  13.847 -0.2165  0.2744  0.0843
13597W        W30444   7.066   9.536  14.350  0.2002 -0.1965  0.0215
13598W        W30445   2.406   2.665   2.784 -0.1950 -0.1581 -0.1241
13599W        W30446  14.254   2.880   5.088  0.1157  0.2491  0.1638
13600W        W30447  17.568  14.942  16.108  0.2263 -0.0232  0.1010
13601W        W30448   1.370  15.088   1.231 -0.0607 -0.0167 -0.4121
13602W        W30449  10.018  13.003  14.111  0.1988  0.2355 -0.1865
13603W        W30450  17.755  16.391   3.837 -0.0748 -0.2724 -0.4596
13604W        W30451  12.495   0.142  12.509  0.1352  0.1139  0.0694
13605W        W30452   5.866  15.851  14.248 -0.2040 -0.4145 -0.0586
13606W        W30453  13.624   5.207   2.903  0.1053  0.1133 -0.1049
13607W        W30454   2.519   2.206   2.789 -0.0780 -0.2293 -0.2234
13608W        W30455  11.751   6.437   0.618 -0.1648 -0.0548  0.2690
13609W        W30456  13.854   7.275   1.919  0.0720  0.2425 -0.2432
13610W        W30457   3.874   3.306  14.404 -0.0798  0.0751 -0.2501
13611W        W30458   7.514   1.784   5.999  0.1853  0.0946  0.0802
13612W        W30459   3.026  18.352   1.193  0.0649  0.0578  0.0288
13613W        W30460  18.029   7.544  12.651  0.2010  0.4314 -0.2445
13614W        W30461   1.741  10.299   4.013 -0.2466 -0.0054 -0.1189
13615W        W30462  11.005   7.103   5.580  0.0985 -0.0609 -0.0478
13616W        W30463   0.658   9.299  11.706  0.2127  0.0153  0.1385
13617W        W30464   3.628   7.608   1.560 -0.0725  0.1814 -0.1599
13618W        W30465   7.598  12.363   4.490 -0.0884  0.0990 -0.1556
13619W        W30466   8.813   9.125   0.513 -0.2654 -0.1235 -0.0630
13620W        W30467  10.907  11.332   3.064 -0.2889 -0.0195 -0.0207
13621W        W30468  13.923   4.489   3.505  0.1531  0.4617  0.2869
13622W        W30469  13.788  10.364   1.093  0.1576  0.0623 -0.0202
13623W        W30470   7.309   4.597   4.553  0.0590  0.2414 -0.2167
13624W        W30471   9.460  16.349   1.280  0.0576  0.3696  0.0929
13625W        W30472  13.210  18.200   1.582  0.1671  0.1908  0.3478
13626W        W30473   6.065   1.054   3.835 -0.1467  0.1355 -0.1236
13627W        W30474   1.071  12.039   1.009 -0.1790 -0.0031 -0.3442
13628W        W30475   0.285  16.899   1.745 -0.2539  0.2666 -0.1427
13629W        W30476   3.030  14.946   0.685  0.0227  0.4873 -0.2393
13630W        W30477   4.878  15.303   1.177  0.0342  0.1755  0.2496
13631W        W30478   5.578  14.384  14.001  0.4580 -0.1627  0.0523
13632W        W30479   1.945  11.330  15.576 -0.0105 -0.2359  0.1829
13633W        W30480  10.931   2.041   0.673 -0.0423  0.1914  0.0458
13634W        W30481  11.503   5.842  14.232  0.0874  0.0432  0.0200
13635W        W30482  18.306   2.400   4.216 -0.0193 -0.0861  0.4423
13636W        W30483  11.570  10.468   5.191 -0.0255  0.1241 -0.0536
13637W        W30484   2.005  14.465   2.911 -0.2098  0.0559 -0.1583
13638W        W30485  11.186   6.219  13.236  0.0627 -0.1630  0.0883
13639W        W30486  17.288   4.695  16.097  0.1614 -0.3591  0.0529
13640W        W30487   9.916  16.670  14.199  0.1672 -0.0243 -0.0649
13641W        W30488   4.109  11.806  15.865  0.0072 -0.0117  0.0459
13642W        W30489   9.868   6.921   5.999  0.1774  0.3916  0.0218
13643W        W30490   0.768  10.225  13.664  0.0421 -0.1135 -0.1499
13644W        W30491  14.470   3.787  13.286 -0.0659  0.3093  0.3296
13645W        W30492  18.058  14.737   2.609 -0.1236 -0.1244  0.0038
13646W        W30493  18.146   0.400  11.266 -0.1634  0.0696  0.1577
13647W        W30494   8.554  12.318   3.592 -0.2825  0.0762 -0.1838
13648W        W30495   2.349  17.280  13.291  0.0287 -0.2320  0.2164
13649W        W30496  10.267   6.500   4.319  0.0636 -0.0590 -0.1737
13650W        W30497  14.210   4.463   0.975 -0.3641 -0.0130  0.1367
13651W        W30498   6.146   4.683  12.407  0.0488 -0.0516  0.3149
13652W        W30499  18.013   9.837   0.920 -0.1919  0.0810 -0.0106
13653W        W30500  15.651   1.689  10.707  0.0927  0.2861  0.1130
13654W        W30501  16.522   9.837  14.083  0.3009 -0.2050 -0.0041
13655W        W30502  16.914   2.614   3.240  0.1514  0.3120 -0.0558
13656W        W30503  14.414   3.714   1.462 -0.2466  0.3559 -0.2471
13657W        W30504  15.365   4.710   4.453  0.0666 -0.0560  0.2229
13658W        W30505   7.864  17.804  15.527 -0.0380  0.1414  0.1361
13659W        W30506   1.007  11.224  11.637  0.1283 -0.3158  0.0860
13660W        W30507   9.587   5.343  12.525  0.3841  0.3160  0.0048
13661W        W30508  11.164  10.763   1.593 -0.4290  0.2598  0.0932
13662W        W30509   0.088  12.085  13.850 -0.1306  0.1375  0.1205
13663W        W30510   1.586   0.483   5.529 -0.2095  0.1567  0.0646
13664W        W30511   6.381   9.475   1.095 -0.4108 -0.1234  0.1037
13665W        W30512   0.503  13.230   4.323  0.1838 -0.2084 -0.0652
13666W        W30513   7.108  17.801   1.350  0.2842  0.3550 -0.2777
13667W        W30514   9.422   2.240  16.102 -0.3243  0.1231  0.0098
13668W        W30515   2.988   8.266   1.445  0.0829  0.2217  0.0997
13669W        W30516   8.029  15.974  12.265 -0.1127  0.0944 -0.0309
13670W        W30517  10.681   1.396   2.429  0.0039 -0.1415  0.1330
13671W        W30518  10.941  13.656  14.631 -0.0553  0.1844  0.0306
13672W        W30519  17.861   9.677  16.130 -0.1624 -0.1633 -0.0741
13673W        W30520  17.719   5.104  15.101 -0.1289  0.1136  0.2530
13674W        W30521   2.537  17.341   6.215 -0.1582 -0.3044 -0.0332
13675W        W30522   0.941  12.525   2.403  0.0253 -0.2439  0.2038
13676W        W30523  14.482  10.960   2.395  0.0581 -0.0337 -0.1928
13677W        W30524   3.081  11.863   1.870 -0.2357 -0.3020 -0.0352
13678W        W30525  15.824  12.202   2.107  0.0918 -0.0855 -0.1227
13679W        W30526   0.559  10.659  15.147 -0.0020  0.0695 -0.0937
13680W        W30527   5.638   9.497   1.747  0.0835  0.1411 -0.0711
13681W        W30528   2.823   1.749   1.749 -0.1461  0.4221  0.1140
13682W        W30529  16.848  12.415  15.628 -0.0971 -0.0374  0.0025
13683W        W30530   2.362   2.194   0.471  0.0415  0.1668 -0.0290
13684W        W30531  11.229   4.674  15.257  0.1174  0.3270  0.2115
13685W        W30532   2.959  15.568   0.777 -0.1895 -0.0803 -0.1207
13686W        W30533  15.901  11.883  14.038 -0.1282 -0.0937  0.0610
13687W        W30534   6.686   5.499   4.506  0.1423  0.0179 -0.0112
13688W        W30535  11.436   7.878   4.406 -0.2781 -0.1256 -0.1584
13689W        W30536  10.067  11.143   2.928  0.2848  0.1248 -0.0984
13690W        W30537  11.889   1.137  15.930  0.1964 -0.3258  0.0810
13691W        W30538  15.907   4.406  10.299  0.0954  0.1075 -0.0386
13692W        W30539  12.728   4.818  14.410  0.4853 -0.1158 -0.1961
13693W        W30540   1.809   4.411   3.413 -0.2329 -0.1289  0.0460
13694W        W30541   8.224   1.130  15.415  0.1027 -0.0035  0.2060
13695W        W30542   0.525  14.364  13.307 -0.0215  0.3937  0.3205
13696W        W30543   8.946   3.293   2.995 -0.1839 -0.2334 -0.2120
13697W        W30544   7.555  16.167  15.790 -0.1313  0.0566  0.1779
13698W        W30545  18.151   0.461   0.332  0.3327 -0.0787  0.0596
13699W        W30546  17.670  15.065   5.809 -0.1108 -0.2080 -0.0933
13700W        W30547   6.324  15.390   1.594  0.1798  0.2239  0.0212
13701W        W30548   7.848  15.894   2.888  0.2403  0.2678  0.2188
13702W        W30549   5.183   4.008   4.957  0.3365  0.2536  0.1111
13703W        W30550   0.116   6.860   2.383 -0.0717  0.1128  0.1522
13704W        W30551  17.619  11.969   5.386  0.1101  0.0994  0.0897
13705W        W30552   2.572  13.419   2.011 -0.0049  0.1686  0.2253
13706W        W30553   8.778  16.815   4.387  0.0484 -0.1513 -0.1925
13707W        W30554  16.838   6.892  11.243 -0.2532 -0.0378  0.3555
13708W        W30555  12.031  18.002   3.275 -0.1407 -0.0351 -0.0548
13709W        W30556   3.319   0.142  11.140  0.2042 -0.0381  0.2008
13710W        W30557  10.202  13.105   1.666 -0.0827  0.0256  0.0744
13711W        W30558  10.546  17.182   0.669  0.3061  0.0693  0.0229
13712W        W30559  10.035   5.827   2.642 -0.0528  0.0712  0.2642
13713W        W30560  14.474   2.481   1.418  0.1281  0.3458 -0.2488
13714W        W30561  18.155  17.484  12.934 -0.0787  0.0099 -0.1071
13715W        W30562   7.027   4.339   2.871 -0.1496  0.0296 -0.0174
13716W        W30563  10.111  12.484   4.381  0.1440  0.0328  0.3354
13717W        W30564   1.380   9.404   5.251 -0.1015  0.1039  0.3984
13718W        W30565  17.868   0.138  15.521 -0.2999 -0.2472  0.1616
13719W        W30566   4.318   5.506  12.687  0.0737  0.1590  0.2096
13720W        W30567   0.664  17.532   3.481 -0.0021 -0.0831  0.0642
13721W        W30568   5.082   8.628   5.072  0.1823  0.0065 -0.0577
13722W        W30569   7.218  15.461   1.420 -0.0383  0.1473  0.1786
13723W        W30570   4.383   1.935   2.880  0.1689  0.1149  0.3147
13724W        W30571   0.716  13.820   1.734 -0.1830 -0.1324  0.1717
13725W        W30572  10.431   0.720  11.350  0.1335 -0.0483  0.1904
13726W        W30573  14.471   1.488   3.877 -0.2097  0.2413  0.1571
13727W        W30574  10.912  11.347   0.510  0.1265 -0.2026 -0.0749
13728W        W30575   4.638  17.825  16.189  0.3244  0.1147  0.0452
13729W        W30576  11.431   4.013   1.579 -0.2367 -0.1869 -0.0718
13730W        W30577  15.952   0.063   2.848 -0.0099  0.0824 -0.1684
13731W        W30578   0.634  17.178  13.190  0.0040 -0.0439  0.2413
13732W        W30579   7.922   9.783   1.926  0.0654  0.1000  0.1956
13733W        W30580  14.596  12.426  13.925 -0.3148  0.0067  0.1837
13734W        W30581   1.963  17.937  14.199  0.0487 -0.3116 -0.2426
13735W        W30582   4.094   7.200   0.536  0.3933 -0.0500  0.0209
13736W        W30583   1.395  14.801  14.336  0.2409 -0.0604  0.0002
13737W        W30584  17.491   2.820   0.368  0.0346 -0.0241 -0.4526
13738W        W30585   4.566  12.111   2.287 -0.1336  0.3320 -0.0070
13739W        W30586   1.370   1.524   4.901 -0.0964 -0.1268  0.1028
13740W        W30587   3.400   4.640  15.642  0.0496 -0.2814 -0.1453
13741W        W30588   9.399   1.805   2.831  0.1403 -0.1313 -0.0465
13742W        W30589   5.357   8.984   1.443 -0.1934  0.0801  0.1429
13743W        W30590  14.088  11.823   4.250  0.1398  0.1462 -0.1653
13744W        W30591   7.966  10.575  14.183 -0.0592 -0.0875  0.0439
13745W        W30592   9.548   2.032   3.890  0.1990 -0.2079 -0.1805
13746W        W30593  13.563   8.172   1.908  0.2032 -0.0459 -0.2242
13747W        W30594   7.682   5.834   2.114 -0.0008  0.0155 -0.3287
13748W        W30595  16.199  10.237  16.230 -0.1523 -0.3254  0.1046
13749W        W30596  16.842  12.901   2.726  0.1140 -0.0120 -0.1391
13750W        W30597   7.062   0.222  16.261  0.1847  0.0408 -0.1245
13751W        W30598   0.764   2.765   0.161 -0.0421  0.0008  0.0561
13752W        W30599   7.935   2.303   2.354  0.2882 -0.0285  0.0158
13753W        W30600  12.668   4.270  13.553 -0.1420 -0.2116  0.1041
13754W        W30601   9.241   1.362   1.709  0.0259  0.0607 -0.2571
13755W        W30602   0.657  15.185   2.089 -0.2336 -0.0711  0.0757
13756W        W30603  13.857   1.054   1.063  0.0524  0.2417  0.0958
13757W        W30604   7.428   9.545   3.759 -0.0908  0.0481  0.2006
13758W        W30605   7.098  14.114  15.899  0.0691  0.4010 -0.0431
13759W        W30606  11.916   6.527  14.771 -0.2873  0.0449  0.0046
13760W        W30607  14.999  17.487   0.267 -0.2909 -0.0829 -0.0300
13761W        W30608   7.872  18.335   1.333 -0.1358  0.0501  0.3807
13762W        W30609   0.729  15.595  16.154 -0.0523  0.1580 -0.0729
13763W        W30610  13.966  17.479  12.365  0.1429 -0.2388 -0.2412
13764W        W30611   4.024  14.522   3.793  0.2060  0.0771 -0.2856
13765W        W30612   2.650  14.302   0.350  0.2203 -0.2256 -0.3564
13766W        W30613   4.890  12.871   5.737 -0.1483 -0.0043  0.0420
13767W        W30614   5.688   5.168   4.212  0.0506 -0.1343  0.2376
13768W        W30615   6.388   4.345   4.347  0.0485  0.1110 -0.0871
13769W        W30616   4.043  15.929   3.719 -0.0369  0.1744 -0.1467
13770W        W30617   8.185   8.892   1.177 -0.3064 -0.0144  0.0437
13771W        W30618   4.750   5.782  14.631  0.0527 -0.0178  0.1407
13772W        W30619   7.608   8.528   1.949  0.1512 -0.1485 -0.0104
13773W        W30620  16.142  18.121   5.006  0.1322 -0.3217 -0.2733
13774W        W30621   0.107  11.105   2.252 -0.0825  0.0500  0.0091
13775W        W30622  10.846  15.452  13.466  0.0642  0.0227 -0.4458
13776W        W30623   2.718   8.501   0.966  0.0619  0.0157  0.0586
13777W        W30624  14.544   2.967  11.576 -0.2347  0.0727 -0.3096
13778W        W30625  11.234   0.922  14.449 -0.1678 -0.0601  0.1608
13779W        W30626   5.151   2.349   3.448 -0.0052 -0.0457 -0.0642
13780W        W30627   1.281  13.129   5.153 -0.1860 -0.2577  0.0810
13781W        W30628  10.101  11.642  14.719 -0.0076 -0.1798  0.2306
13782W        W30629   6.274  10.214   2.617 -0.2085 -0.0342 -0.1298
13783W        W30630   1.815   6.087  13.372 -0.0064  0.0390  0.1641
13784W        W30631  17.155   3.571   1.619  0.0760 -0.4099 -0.3017
13785W        W30632  17.564  11.276   4.750 -0.1289 -0.1352 -0.3924
13786W        W30633   5.700  11.201   6.240 -0.1045  0.1097  0.0666
13787W        W30634  11.827   1.346  13.511 -0.0217  0.0541  0.0009
13788W        W30635   7.981  14.536  13.984 -0.3648 -0.1922 -0.2642
13789W        W30636   6.344   6.999   2.320  0.2722 -0.0776  0.0962
13790W        W30637   6.129  14.432   0.492  0.2006  0.2513 -0.2368
13791W        W30638   3.410  15.358  11.967  0.0989  0.0377 -0.0252
13792W        W30639   0.332   2.688   0.443  0.3493 -0.1543  0.0031
13793W        W30640   2.483   4.262   1.764 -0.0930  0.0821  0.1356
13794W        W30641  17.124  14.588  12.579 -0.0886  0.0125 -0.1694
13795W        W30642  10.716  16.487   2.356 -0.0926 -0.0183  0.2425
13796W        W30643   6.194  14.452   4.434  0.1285  0.3680 -0.3296
13797W        W30644  15.349  11.617   2.397 -0.2259 -0.1550 -0.4296
13798W        W30645  16.827  15.431  12.261  0.1838  0.2022  0.1545
13799W        W30646  17.251   0.446  11.133  0.0086  0.0654 -0.1222
13800W        W30647   0.877  14.111  12.673 -0.0036 -0.0051 -0.1529
13801W        W30648   5.083  15.603  14.721 -0.3110  0.2760  0.1063
13802W        W30649  13.161  10.732  13.023  0.0385 -0.1094  0.0167
13803W        W30650  17.983  16.384   0.686 -0.0258 -0.1866  0.0475
13804W        W30651  15.088  11.622   1.920  0.0730 -0.2710  0.0177
13805W        W30652  10.171  10.688   3.044  0.1167 -0.2206  0.2568
13806W        W30653   2.733  16.575  11.777 -0.1019 -0.3145  0.1967
13807W        W30654   1.822  17.084  13.726  0.0757 -0.0031 -0.2040
13808W        W30655   0.631   4.203  12.612 -0.0624  0.0019  0.1948
13809W        W30656  11.273  16.131   0.199  0.2384 -0.0157  0.1454
13810W        W30657   0.201   5.336  16.029 -0.0334  0.1866 -0.0599
13811W        W30658   0.254   6.933   3.870 -0.1228  0.1265 -0.3106
13812W        W30659  11.414   1.285   1.993  0.0446 -0.1452 -0.1038
13813W        W30660  14.552   3.179   4.841 -0.2321  0.1143  0.0777
13814W        W30661  10.965   1.158   0.235 -0.1922  0.2395  0.3021
13815W        W30662   4.013  13.190   3.825  0.1696 -0.1923  0.0007
13816W        W30663  16.918   0.231   5.521 -0.1607 -0.4694 -0.0882
13817W        W30664   2.185   1.971  11.142  0.0349 -0.3293 -0.2548
13818W        W30665  15.685  16.992  14.083 -0.1787 -0.1077 -0.0487
13819W        W30666   8.140  16.894   1.126  0.2651  0.0731  0.1425
13820W        W30667   8.880  10.422   4.489 -0.2428  0.0495  0.0331
13821W        W30668   0.802  11.183   0.940  0.0938  0.0177 -0.2043
13822W        W30669   5.638   7.116  16.073  0.3057  0.1002  0.2754
13823W        W30670  13.729  13.420  15.245  0.0575  0.1936 -0.0235
13824W        W30671  14.354  15.008   3.671 -0.3147  0.1430 -0.0870
13825W        W30672  16.130   1.808  12.260 -0.0114  0.0444 -0.0790
13826W        W30673   0.137   4.470  11.911  0.2998  0.1132  0.2513
13827W        W30674   7.579   9.549   6.173  0.2917  0.2628 -0.0074
13828W        W30675  15.307   8.094   3.498 -0.2000 -0.4022 -0.0071
13829W        W30676  15.762  16.178   5.351 -0.0071  0.4033 -0.1609
13830W        W30677   6.207   5.343   2.251 -0.0592 -0.0121 -0.3581
13831W        W30678  14.162   0.412  14.645 -0.0409  0.3918  0.0938
13832W        W30679   4.764  12.220   5.026 -0.2278  0.1408 -0.0914
13833W        W30680   5.362   4.151  15.198  0.2410 -0.0262 -0.1091
13834W        W30681   0.960  13.370  13.509  0.0656  0.2623  0.0132
13835W        W30682  12.784   0.712  13.096 -0.0590 -0.2274 -0.1278
13836W        W30683  11.162   5.035   4.104  0.1807  0.1741 -0.1251
13837W        W30684   7.086   6.158  12.744  0.1656 -0.3064 -0.2525
13838W        W30685   9.162   1.797  14.634 -0.0369 -0.0229 -0.1368
13839W        W30686  11.158  15.644   0.169  0.0447  0.2757  0.0455
13840W        W30687   6.236  15.651  16.118 -0.0415  0.1858 -0.1068
13841W        W30688   2.216  16.037   6.045 -0.0899  0.1035 -0.3232
13842W        W30689   6.154  13.845  15.699  0.1440 -0.0195  0.2053
13843W        W30690   6.088   0.094  15.902 -0.1956 -0.2977  0.3060
13844W        W30691   4.474   4.523   9.958 -0.0180  0.0721  0.1845
13845W        W30692  11.112  17.271  10.634 -0.0474  0.0358 -0.2014
13846W        W30693   3.740  10.360  13.842 -0.2301  0.1023  0.0816
13847W        W30694  16.150  15.984  14.861 -0.0280 -0.0329 -0.0736
13848W        W30695  10.668  16.923   2.630 -0.1845  0.1461  0.3549
13849W        W30696   5.890   6.788  12.193  0.1419 -0.0211 -0.0392
13850W        W30697   1.308   7.862  13.847  0.1786  0.1572 -0.1327
13851W        W30698  17.729  14.843  14.403  0.0757  0.2097  0.1999
13852W        W30699   6.121   6.293  12.049 -0.0843 -0.3026 -0.0551
13853W        W30700  15.819  17.755   0.624 -0.2142  0.0472  0.0522
13854W        W30701  14.421   6.608  15.911  0.1613 -0.0216  0.1028
13855W        W30702  10.589  10.883   0.519 -0.2626  0.0139 -0.0012
13856W        W30703  12.321   3.115   4.016  0.0258  0.1948  0.1416
13857W        W30704   6.777  13.046   3.132 -0.1247 -0.0250  0.2925
13858W        W30705  14.099  16.084   4.347 -0.1424  0.3028  0.0851
13859W        W30706   7.037   6.254  11.628  0.0077  0.4510 -0.3543
13860W        W30707  14.928   6.690  13.734  0.1135 -0.3936 -0.3777
13861W        W30708   2.589  17.043  15.149  0.3901 -0.2951 -0.4555
13862W        W30709  10.891   6.714  14.998  0.0186  0.0161 -0.0387
13863W        W30710   5.663  16.786  14.160 -0.0266 -0.0773 -0.0784
13864W        W30711  16.558  17.167  15.791  0.0496  0.1068 -0.0275
13865W        W30712  13.418  10.040  14.640 -0.0091 -0.0765  0.1801
13866W        W30713   0.246  12.824   4.070  0.2098 -0.0796 -0.1165
13867W        W30714   5.223   5.282   4.613  0.1495  0.0150  0.0987
13868W        W30715  11.240   9.184  15.068  0.0870  0.2796  0.0417
13869W        W30716  10.695   6.109   1.089 -0.1415  0.1420  0.0512
13870W        W30717   1.556  13.959   3.598 -0.0197 -0.2153 -0.0790
13871W        W30718  14.082  17.302  15.654 -0.0214  0.0532 -0.0816
13872W        W30719  16.714   1.223  13.423  0.2982  0.0168 -0.2766
13873W        W30720   2.986   1.025  15.256  0.3641  0.1747 -0.0606
13874W        W30721   4.399   9.456   0.022 -0.1986 -0.0382 -0.0680
13875W        W30722   5.735   8.831  15.391  0.1339  0.0901 -0.0779
13876W        W30723  14.678  13.503  12.767  0.0679  0.1876  0.0596
13877W        W30724   9.917   8.284   3.330  0.1611  0.0627 -0.2594
13878W        W30725  10.685   3.449   1.634 -0.0566 -0.1373 -0.1416
13879W        W30726   2.362   0.669   2.653  0.1760 -0.0744  0.0865
13880W        W30727  16.220   5.303   4.744  0.2297 -0.2646  0.1051
13881W        W30728   0.770   4.926   2.409 -0.2993  0.0432 -0.0628
13882W        W30729  14.002   7.730  15.949 -0.3277 -0.2586  0.1359
13883W        W30730   5.878   5.926   3.655 -0.1542 -0.0399 -0.1675
13884W        W30731   2.788   7.273   1.794  0.2515 -0.1251  0.3413
13885W        W30732  16.258   4.597   4.105 -0.1002 -0.0275 -0.1691
13886W        W30733   1.107   5.459  11.018 -0.0171  0.3075  0.1822
13887W        W30734  15.330   1.810  15.232 -0.1428 -0.0602  0.1058
13888W        W30735  10.646  18.345  15.595  0.0331  0.0095  0.0454
13889W        W30736  10.888   0.267  13.100 -0.0766  0.0028  0.1589
13890W        W30737   5.166   3.168  16.046 -0.3372 -0.0939 -0.0157
13891W        W30738  11.235   8.526  16.090 -0.0645  0.2498 -0.1161
13892W        W30739   0.922  12.391   5.269  0.3086  0.2159 -0.0728
13893W        W30740  13.126   8.511  12.236  0.2424 -0.4355 -0.2388
13894W        W30741  12.689  11.517  12.749  0.2064  0.0543 -0.0151
13895W        W30742   4.031  13.401  14.744  0.3342  0.2106 -0.2330
13896W        W30743  13.105   7.762   0.424  0.0034  0.2948  0.1646
13897W        W30744   9.749   5.951   0.735 -0.0193  0.1200 -0.3843
13898W        W30745  17.744   0.209   0.569  0.0884 -0.1176 -0.1281
13899W        W30746   3.752  17.761   2.748 -0.3985 -0.3868  0.0213
13900W        W30747  10.338  11.317  11.848  0.2167  0.1847 -0.3319
13901W        W30748  16.066   2.021   1.663  0.0949  0.0222  0.1784
13902W        W30749  12.729   7.177  12.645 -0.1382  0.0796  0.2188
13903W        W30750  12.850  14.273  11.854 -0.1867 -0.3085 -0.3654
13904W        W30751  12.579   1.932  15.498  0.1577  0.4056 -0.1438
13905W        W30752  18.330  12.952   5.014  0.2819  0.3508  0.0089
13906W        W30753   0.312  13.651   5.168 -0.0462  0.2847  0.1506
13907W        W30754   4.064   4.334   2.100 -0.2046 -0.2124 -0.0614
13908W        W30755   9.456  11.353   1.534 -0.0821 -0.0970  0.2682
13909W        W30756  18.375   9.948   1.971  0.0999  0.0305  0.2185
13910W        W30757  13.109  17.364  12.948  0.2361  0.4796 -0.2191
13911W        W30758  16.618   7.718  14.461  0.0630  0.3142 -0.3015
13912W        W30759  13.402   9.677   3.591 -0.0022  0.2523 -0.0602
13913W        W30760  13.834  11.460   0.856  0.0263 -0.2143 -0.0368
13914W        W30761   5.794  14.314  13.484  0.1826 -0.0162 -0.1114
13915W        W30762  14.215   0.945  13.433 -0.1636 -0.1289 -0.0442
13916W        W30763  11.482   7.812  11.188  0.3961  0.2162 -0.0026
13917W        W30764  12.145  11.046  14.867  0.0175 -0.2009  0.1272
13918W        W30765   4.420   3.345   1.214  0.2799  0.1976  0.1020
13919W        W30766  17.121  18.063  16.239 -0.1898  0.1000 -0.0912
13920W        W30767   5.687   3.118   2.601 -0.0841 -0.0393 -0.0324
13921W        W30768   7.518  13.247   4.436 -0.0768 -0.0472 -0.1500
13922W        W30769   7.911   5.221  14.577  0.0399 -0.0838 -0.0592
13923W        W30770  13.738   5.842  14.364  0.2181  0.2061 -0.0830
13924W        W30771   9.312  17.685  15.309 -0.1745 -0.0740 -0.1506
13925W        W30772  16.383  10.285  13.910 -0.2170  0.2697 -0.1936
13926W        W30773   7.557   6.792  10.964 -0.1402 -0.3206 -0.0011
13927W        W30774   0.247  11.442   3.664 -0.1319  0.1628  0.1195
13928W        W30775   5.316  11.829  14.469 -0.5161 -0.1390  0.0564
13929W        W30776  10.478  16.139   5.705  0.0834  0.2097  0.0448
13930W        W30777  17.519  16.352  14.753 -0.0189  0.1203  0.0343
13931W        W30778  11.525  13.646   4.500 -0.1589  0.3292 -0.1780
13932W        W30779  17.454   1.296  11.832  0.1327  0.0028  0.0155
13933W        W30780   0.420  15.090   0.952 -0.0595  0.0484  0.2575
13934W        W30781   2.579  15.007  13.833 -0.0424 -0.2314  0.0059
13935W        W30782  12.080  12.740  15.414 -0.2043  0.1359 -0.0217
13936W        W30783  10.782  17.790   2.931 -0.3068 -0.0565 -0.2021
13937W        W30784   0.521  12.250  13.893  0.0476  0.2018 -0.5083
13938W        W30785  10.228   1.515  12.775 -0.0988  0.0248 -0.0103
13939W        W30786  17.731   5.590   2.504 -0.0417 -0.1344 -0.0580
13940W        W30787  13.510  15.341  11.576  0.0137  0.2927  0.1927
13941W        W30788   7.074   0.068   4.408  0.0905 -0.0120  0.1526
13942W        W30789   3.146   4.638  10.790  0.1661  0.0843  0.0697
13943W        W30790   7.358   1.549  14.599  0.0648 -0.5262 -0.1070
13944W        W30791   8.758  15.714   3.587 -0.2300 -0.0423 -0.3034
13945W        W30792   6.459   1.964   1.131  0.1543 -0.1362  0.3354
13946W        W30793  17.957  15.695   5.162  0.1279  0.1479  0.2608
13947W        W30794   6.250  12.179  13.900 -0.0322 -0.1336 -0.2997
13948W        W30795  13.815  13.726   6.437 -0.2831 -0.0981 -0.4445
13949W        W30796   9.752   5.405  14.520 -0.2496  0.0277 -0.1949
13950W        W30797  16.685  12.202  11.792 -0.1540 -0.2060  0.1322
13951W        W30798  12.577  18.068  14.235  0.4976  0.2097 -0.2364
13952W        W30799  10.685  17.703   2.385  0.2172 -0.1265  0.1675
13953W        W30800   5.119  14.822  12.455  0.1535 -0.0836  0.0650
13954W        W30801  12.389  14.907   5.497 -0.0416  0.1653  0.2752
13955W        W30802   7.568   2.951  13.853 -0.1328  0.0342  0.1168
13956W        W30803  16.183   5.527   2.070 -0.0393 -0.1422 -0.0388
13957W        W30804   2.328   0.019   5.141 -0.0023 -0.2881  0.0398
13958W        W30805   8.394   9.369  14.894 -0.1610  0.1525 -0.0445
13959W        W30806  12.076   5.238   0.710 -0.0831  0.0385  0.0431
13960W        W30807   1.766   2.541   0.024  0.1627  0.3165  0.0457
13961W        W30808  10.003   2.077   1.694 -0.0720 -0.0621  0.3128
13962W        W30809   3.146   4.127  14.791 -0.2638 -0.1999 -0.2227
13963W        W30810   6.824  10.651  14.408 -0.2684 -0.0046  0.2257
13964W        W30811  14.726  10.523   0.969  0.1411 -0.1851  0.0730
13965W        W30812   9.416   8.220  12.318  0.3622  0.1346  0.2413
13966W        W30813  17.885   0.597   1.380 -0.3388 -0.3913 -0.0639
13967W        W30814  18.008   9.610   1.437 -0.0395 -0.1623 -0.1734
13968W        W30815  12.168   9.243  14.340 -0.2860  0.0523  0.0152
13969W        W30816   8.231   9.826  16.254 -0.1799 -0.1866 -0.2585
13970W        W30817   5.817   3.478  13.338  0.0294  0.0631  0.1575
13971W        W30818  17.127  17.871   4.453 -0.0598 -0.2364 -0.0878
13972W        W30819   3.038   9.584  14.949  0.1444 -0.0164 -0.1035
13973W        W30820  15.388  12.701   0.373  0.4056 -0.2606  0.1853
13974W        W30821  17.770   5.808   0.549 -0.3137 -0.0143 -0.2490
13975W        W30822   9.981   4.086   2.908  0.2154 -0.0923 -0.0812
13976W        W30823  11.987   0.904  14.267  0.4199  0.2324  0.2195
13977W        W30824   8.899  11.840   0.050 -0.0470  0.3156  0.1880
13978W        W30825   5.483   7.907  13.446  0.2510  0.0815 -0.4558
13979W        W30826   4.443  13.270   2.089 -0.1319  0.0212 -0.0409
13980W        W30827   0.655   5.924  15.912  0.0576 -0.0880 -0.0818
13981W        W30828  16.182  12.974  16.238  0.1094  0.1161 -0.1145
13982W        W30829   3.078   5.388   2.260 -0.1409  0.2614 -0.0595
13983W        W30830   8.049   1.772  11.826 -0.0571 -0.1490  0.4627
13984W        W30831  16.025  16.940  11.981 -0.1896  0.1442 -0.1861
13985W        W30832  11.317  14.417  13.475  0.1367 -0.0959  0.2462
13986W        W30833  17.397  11.117  15.678 -0.2225  0.1236  0.2568
13987W        W30834   9.365  16.893  13.310  0.1965  0.0105 -0.4328
13988W        W30835  12.551   2.942   5.012  0.3272  0.0543 -0.1927
13989W        W30836   4.723  11.113  13.143 -0.3808 -0.2148  0.0708
13990W        W30837   3.341   4.239  11.071 -0.0206  0.2239 -0.0007
13991W        W30838   5.030   3.767   5.657  0.1789  0.0697 -0.0781
13992W        W30839   7.561   2.816  11.796 -0.0361  0.1356  0.0303
13993W        W30840   5.467   0.088  12.243  0.2169  0.1957 -0.1278
13994W        W30841  15.811   5.457   1.683 -0.0822  0.0864  0.0176
13995W        W30842   3.083  13.430  15.489  0.0332  0.0584 -0.3125
13996W        W30843   3.219   1.149   2.111  0.3447  0.2886 -0.1143
13997W        W30844   7.392   9.700  14.951  0.0994 -0.2412 -0.0654
13998W        W30845   7.092   9.655   6.085 -0.1387  0.0442 -0.1038
13999W        W30846   9.174  16.326   2.212 -0.0106 -0.2682  0.0558
14000W        W30847   2.941  14.139  11.935  0.0016  0.1118 -0.1225
14001W        W30848   0.177  11.048  11.842  0.0616 -0.1150 -0.3149
14002W        W30849   8.635   8.875   3.705  0.0638 -0.1781 -0.0657
14003W        W30850   6.466   4.576  14.264 -0.0148  0.2314  0.3504
14004W        W30851   3.762   9.079   4.956 -0.0817 -0.1592  0.0662
14005W        W30852  13.751   0.157   0.292 -0.0900  0.1169  0.0974
14006W        W30853  15.566   6.949   0.822  0.0777  0.0266  0.1855
14007W        W30854  14.532  13.974   4.299  0.2069 -0.3494  0.0615
14008W        W30855  10.229   0.928   0.136 -0.2755 -0.2808  0.1130
14009W        W30856  17.171  18.285   3.614  0.2528  0.1920  0.0296
14010W        W30857   3.806   4.646   2.527  0.1179 -0.2732  0.0927
14011W        W30858  17.876  12.690  12.200 -0.0417  0.1351 -0.2719
14012W        W30859   2.205  11.013   4.713 -0.1375 -0.3331 -0.0000
14013W        W30860  14.098   6.940   2.781  0.0237 -0.0993  0.0475
14014W        W30861  11.727  13.009  13.912 -0.0451 -0.0217  0.2368
14015W        W30862  10.362   4.390  14.317  0.0519  0.0369 -0.2302
14016W        W30863  15.393   3.781   1.318 -0.0141  0.4048 -0.0812
14017W        W30864   7.383  16.220   2.017 -0.1844  0.0393 -0.1845
14018W        W30865   2.595   3.050  11.131  0.0552  0.2195 -0.4897
14019W        W30866   3.102   1.571   1.099  0.0007  0.1183  0.0120
14020W        W30867   0.105  13.321   3.994 -0.0791 -0.1034  0.2052
14021W        W30868  14.549  13.685  11.362 -0.2377  0.1040  0.0310
14022W        W30869   4.906  14.287  14.922  0.1303  0.1856  0.0217
14023W        W30870   4.111  11.686   1.185 -0.1167 -0.1273 -0.0816
14024W        W30871  12.585   0.930  13.542 -0.0736  0.2042  0.1288
14025W        W30872  16.982   0.927  12.842 -0.3951  0.0901 -0.2521
14026W        W30873   7.981   5.649   0.701  0.4901 -0.3262  0.0139
14027W        W30874   9.532  14.161  13.640 -0.0602  0.2324  0.0665
14028W        W30875   4.611   3.892   2.724  0.0709 -0.2916 -0.1369
14029W        W30876   7.617   8.712  15.259  0.1852  0.0572 -0.3106
14030W        W30877  11.304   9.323  11.166 -0.0586  0.3773 -0.1215
14031W        W30878   2.685   9.031   2.539  0.0344 -0.0514 -0.0676
14032W        W30879  10.078   1.744   5.239 -0.0684 -0.0204  0.2039
14033W        W30880   3.462   5.584   2.074 -0.1339 -0.1085  0.1677
14034W        W30881  12.227   5.616  15.299 -0.0631 -0.0524 -0.0916
14035W        W30882  15.169   7.262  14.321 -0.0921  0.0100  0.2857
14036W        W30883   5.539  14.324   1.896  0.1354  0.2399 -0.2255
14037W        W30884   2.477  18.174  13.531 -0.1901 -0.0436  0.1158
14038W        W30885   2.846  17.342  11.526  0.1838 -0.0677  0.0273
14039W        W30886  17.464   0.709  14.377 -0.0979 -0.0814 -0.0649
14040W        W30887   8.454   2.407   4.612  0.1358 -0.2504  0.0293
14041W        W30888  15.111  11.204   0.651 -0.1885  0.1124 -0.4428
14042W        W30889  11.866   8.743  14.770 -0.0353 -0.1013 -0.0517
14043W        W30890   3.387   8.196   4.855 -0.0577  0.0727 -0.0917
14044W        W30891   5.760   1.694  15.259  0.0102  0.1837  0.0763
14045W        W30892  10.195   7.278  14.318  0.2739  0.3013  0.2238
14046W        W30893   9.108  16.006   4.494 -0.2395 -0.1132 -0.1355
14047W        W30894   8.451   9.967  13.722 -0.3626  0.2367  0.1195
14048W        W30895  10.745   6.283   5.103  0.1283  0.1127 -0.0868
14049W        W30896   9.475  17.228   3.195 -0.2550  0.1996 -0.3157
14050W        W30897   6.779   6.479  14.720  0.0023  0.4690  0.0372
14051W        W30898   3.829   1.949   1.782  0.0737  0.2327  0.1670
14052W        W30899   7.713   6.945  13.526 -0.1837 -0.1078 -0.0259
14053W        W30900  16.332   1.913   4.124  0.2231 -0.1710 -0.1322
14054W        W30901   1.488   0.376   2.871 -0.0171  0.0571 -0.1719
14055W        W30902   4.448  17.145   2.637 -0.0741  0.1124 -0.2814
14056W        W30903   3.921   0.727   2.049 -0.1332 -0.2284  0.1361
14057W        W30904   5.674  14.486  13.076  0.0120 -0.3133 -0.0389
14058W        W30905  10.527   3.641  13.680  0.4667 -0.0616 -0.2132
14059W        W30906   9.646   1.888   0.638 -0.0534 -0.0136 -0.0871
14060W        W30907   3.793   3.461   2.174 -0.0498  0.1158 -0.0353
14061W        W30908  18.199  12.302   1.144  0.0515  0.0555 -0.0497
14062W        W30909   3.698  14.970  11.753 -0.2383 -0.2949  0.1569
14063W        W30910  16.660  15.683  13.277 -0.0110  0.4739 -0.4208
14064W        W30911  15.162  10.821   0.390 -0.0978  0.3803  0.0550
14065W        W30912   4.169  14.406   1.348 -0.0659 -0.0068  0.5079
14066W        W30913   1.759   6.625   2.234  0.0361  0.1138 -0.1446
14067W        W30914  11.936   9.489   3.501  0.0806 -0.1661  0.3203
14068W        W30915  17.352  10.271   1.026 -0.2469  0.0058  0.2760
14069W        W30916   0.979   4.275  13.604 -0.0405  0.0318 -0.1147
14070W        W30917  13.832  17.584  15.048  0.3453 -0.4046  0.0992
14071W        W30918   0.291   6.227  14.399  0.0593  0.1693  0.1759
14072W        W30919  14.588   8.526  14.107 -0.0414 -0.0493  0.4098
14073W        W30920  16.432   0.086  15.941 -0.0842 -0.2705  0.1606
14074W        W30921  12.019   3.023  15.752  0.0915 -0.0152 -0.1498
14075W        W30922   8.219   0.928   1.196 -0.1361  0.2084  0.1676
14076W        W30923   1.013   3.201   1.771 -0.0239  0.1250 -0.0143
14077W        W30924  11.944  17.603   0.813 -0.2024  0.1353 -0.1229
14078W        W30925   9.550   2.258   1.470 -0.1461  0.0754 -0.0098
14079W        W30926  18.086   8.846   4.773 -0.2030  0.1364 -0.2046
14080W        W30927  12.410  10.881   3.436 -0.0781  0.3014 -0.0203
14081W        W30928  14.568  11.283   5.605  0.0463 -0.0441  0.1456
14082W        W30929  11.166  16.078  15.219  0.0943  0.1124 -0.2837
14083W        W30930   1.333   6.185   1.756 -0.0392  0.4870 -0.0542
14084W        W30931  16.235   0.991   5.571  0.1678 -0.4476 -0.1043
14085W        W30932   5.304  11.691   4.460 -0.2759  0.2734 -0.2283
14086W        W30933  14.136   4.036  12.331 -0.2335 -0.1682 -0.1156
14087W        W30934   4.292   1.245  14.012  0.0897 -0.2367  0.1297
14088W        W30935  14.549  18.125  16.284 -0.3190 -0.0186  0.2453
14089W        W30936   3.492  15.584  12.967  0.0244  0.0379 -0.1349
14090W        W30937   3.981  16.123  11.856 -0.1689 -0.0216 -0.3831
14091W        W30938  10.950  10.030  14.283  0.0798 -0.3756 -0.1677
14092W        W30939  14.234   3.004   2.596 -0.1368 -0.0857  0.2172
14093W        W30940   9.676   7.285  14.245  0.2587 -0.0894  0.0545
14094W        W30941   6.874  17.900  15.141  0.1510  0.0979  0.1535
14095W        W30942   9.613  12.160  12.665 -0.1516  0.0256 -0.0329
14096W        W30943  14.315  10.646  11.664  0.0905 -0.1486 -0.0634
14097W        W30944   7.693   2.143   4.189  0.1239  0.2992 -0.4553
14098W        W30945  18.227   2.702  15.962 -0.5207 -0.0930  0.0168
14099W        W30946   4.288  10.231  15.461 -0.4618  0.0386 -0.0629
14100W        W30947  10.240   1.611  12.239 -0.2182  0.1540  0.0502
14101W        W30948  15.581   2.064   1.948 -0.2383  0.1719 -0.0248
14102W        W30949   1.317  15.948   0.482  0.0893  0.2131  0.3327
14103W        W30950   3.969   6.010   2.616  0.1906 -0.3228  0.2331
14104W        W30951   7.686   8.435   3.049  0.3128  0.0235 -0.1018
14105W        W30952  16.906   1.575  15.309  0.0969  0.0997 -0.1070
14106W        W30953   0.905  10.353   3.449 -0.0103  0.1519  0.1063
14107W        W30954   8.765  17.477  13.909 -0.0800  0.1467 -0.0289
14108W        W30955  11.849  12.479   2.774 -0.0108 -0.1007  0.2207
14109W        W30956   4.904   0.020  14.446 -0.4919  0.0298  0.0994
14110W        W30957   8.550  11.513   4.172  0.2880  0.0132  0.2204
14111W        W30958  13.748  17.921  16.047  0.0570  0.3011  0.0246
14112W        W30959  11.633   5.582   4.147 -0.1371  0.2288 -0.2598
14113W        W30960  12.410  15.774  14.076  0.0154  0.1148  0.3827
14114W        W30961   4.976   3.611  11.264 -0.1553  0.5548 -0.3065
14115W        W30962  13.457   5.091  11.724  0.3687 -0.2171 -0.2051
14116W        W30963   6.542  14.130  13.371  0.2372  0.2198  0.2253
14117W        W30964  16.732   6.296   3.402  0.1468  0.1289 -0.2110
14118W        W30965   7.668   1.237   5.774 -0.3563 -0.4420 -0.0897
14119W        W30966   3.985   4.468  14.616  0.0277 -0.0155  0.3764
14120W        W30967  12.173  15.898  15.181 -0.1112  0.0621 -0.1116
14121W        W30968   7.829   1.686   4.339  0.1059  0.3306  0.0691
14122W        W30969   6.760   4.881  12.289 -0.1281 -0.3703 -0.1205
14123W        W30970  14.972   1.905  15.998  0.0959 -0.1319 -0.3015
14124W        W30971  13.018  10.341  13.391  0.1554 -0.0216 -0.2989
14125W        W30972   1.317   1.504   3.061  0.0334  0.0251  0.1008
14126W        W30973  11.866  10.110  15.786 -0.0676  0.1357  0.4750
14127W        W30974  14.243   2.588   1.827  0.1532  0.3521 -0.0670
14128W        W30975   4.954   7.618   3.739 -0.1699  0.0704 -0.1295
14129W        W30976   1.832   8.431  15.360  0.2160 -0.0806 -0.1469
14130W        W30977   7.745   0.043   0.444 -0.0775  0.2490  0.1701
14131W        W30978   6.909  11.507   0.905 -0.0184  0.1969 -0.3167
14132W        W30979  15.540   6.007   5.021  0.0391 -0.0758 -0.0314
14133W        W30980  16.295   0.113  14.644  0.0191  0.0825  0.1370
14134W        W30981   4.862  13.498  14.175  0.2793 -0.2923 -0.2997
14135W        W30982   8.594   9.292  15.318 -0.0321  0.1027  0.0712
14136W        W30983  11.328  16.546   5.935  0.2469 -0.0794 -0.0864
14137W        W30984   6.362  17.237  14.193  0.0632 -0.2171 -0.0543
14138W        W30985   2.993  13.760   4.777  0.0484 -0.2464  0.0113
14139W        W30986   4.206  13.929   4.166  0.2923 -0.0092  0.1492
14140W        W30987   3.549   7.582  13.416 -0.0958 -0.1727  0.1270
14141W        W30988   4.876   4.857   3.864  0.0946 -0.0010 -0.0951
14142W        W30989   3.472  13.823   2.132 -0.1098 -0.1251  0.2198
14143W        W30990   5.672  13.564   4.240 -0.0024  0.1859  0.2336
14144W        W30991  15.676  15.663   2.564  0.2042  0.0393 -0.1318
14145W        W30992  13.519  15.557   2.468 -0.0911 -0.0625  0.1258
14146W        W30993   6.909  14.843   2.997 -0.1262  0.1289  0.0812
14147W        W30994  15.054  10.789   1.923 -0.1147  0.0320  0.2813
14148W        W30995   1.340  14.928   5.119  0.0302  0.1705  0.1087
14149W        W30996   5.108  15.694   3.653 -0.0397  0.3676  0.0483
14150W        W30997   3.619  15.742   3.470  0.0332  0.1979  0.0007
14151W        W30998  14.328   0.470   2.361  0.1316  0.2125  0.0935
14152W        W30999  16.989  14.757  15.890  0.0530  0.0300  0.4325
14153W        W31000  14.093   8.326  13.876 -0.2432 -0.1978  0.0578
14154W        W31001   9.398  12.132   4.794 -0.2685  0.0058  0.0713
14155W        W31002   1.133  12.399   3.060  0.3340 -0.2177 -0.0991
14156W        W31003   4.427   4.525  10.463  0.0708  0.1781  0.2492
14157W        W31004  17.844   5.742  14.669 -0.1729 -0.2006 -0.1143
14158W        W31005  17.675   6.193  14.396 -0.0062 -0.0116 -0.3210
14159W        W31006   1.969  14.273  15.875  0.1953  0.0642 -0.0736
14160W        W31007   3.150   4.342  13.191  0.0978 -0.1316 -0.0623
14161W        W31008   2.558   7.688  15.296 -0.0527  0.0844 -0.0262
14162W        W31009  17.410  15.269  12.389 -0.1303  0.0378 -0.0604
14163W        W31010   1.741   8.129   2.820 -0.1480  0.1464 -0.2546
14164W        W31011  15.033  17.400   5.001 -0.0275  0.0738 -0.1191
14165W        W31012  12.812  12.551   2.621 -0.0581  0.0797 -0.1390
14166W        W31013  15.145  17.832  14.947 -0.0020  0.0971  0.2768
14167W        W31014  10.349   0.965   5.054 -0.1578  0.1430  0.0299
14168W        W31015  10.032   0.467   0.159  0.0973  0.0084  0.2190
14169W        W31016  15.682  15.840  13.505  0.2307  0.1869  0.0267
14170W        W31017  17.126   5.034  14.433  0.1311 -0.0534  0.0438
14171W        W31018  17.557   3.838  10.923  0.0860 -0.0313  0.3053
14172W        W31019   1.819  10.656   1.477  0.0293  0.0234  0.0845
14173W        W31020  15.515   8.092  13.976  0.1371 -0.0748 -0.2440
14174W        W31021  16.227   8.215   1.049  0.4159 -0.1016 -0.2717
14175W        W31022  12.118   7.084   1.854  0.0137  0.2087 -0.0259
14176W        W31023  14.722  13.021   1.742  0.1958 -0.3301  0.0784
14177W        W31024   7.688   5.534   4.530  0.0393  0.1788  0.0600
14178W        W31025   7.449  15.422   3.562  0.1223  0.1758  0.0722
14179W        W31026   2.461   6.142   5.355  0.1867 -0.0042  0.1952
14180W        W31027   7.113   1.301  11.758  0.3459  0.3004 -0.0778
14181W        W31028  14.529   3.845  14.220  0.3508  0.1874 -0.2807
14182W        W31029  10.700   2.646   3.656 -0.0920 -0.0873  0.1364
14183W        W31030  17.849   0.369   4.877 -0.1988 -0.4044  0.1442
14184W        W31031   6.343  10.671  15.083 -0.0436  0.2123 -0.1012
14185W        W31032   4.635  15.100  12.425 -0.1561 -0.1172 -0.1313
14186W        W31033  13.029   2.978  11.685 -0.1417  0.3078 -0.4090
14187W        W31034  14.907  13.366   2.971 -0.1807  0.3693  0.2952
14188W        W31035  10.175  16.249   0.940  0.0947 -0.1183 -0.0993
14189W        W31036   9.927  15.993   3.445  0.4058  0.1608 -0.4266
14190W        W31037  14.230   1.711   0.046  0.2905 -0.2875 -0.3077
14191W        W31038   9.222   4.723   5.253 -0.0086 -0.4309  0.0501
14192W        W31039  13.867   9.136   4.876 -0.2170  0.2950 -0.0142
14193W        W31040   0.095  11.432  13.150 -0.0046  0.2284 -0.1143
14194W        W31041  15.517   1.569  13.777 -0.0736 -0.2358 -0.1914
14195W        W31042   3.619   1.609  14.595  0.0871 -0.2357 -0.0575
14196W        W31043   5.329   5.544  16.328  0.4155 -0.2985 -0.1748
14197W        W31044  14.635   8.332   5.335  0.0657  0.0309 -0.1477
14198W        W31045  11.534  15.108  14.273  0.1577  0.1698 -0.0059
14199W        W31046  15.947  14.324   1.099 -0.1403  0.1988  0.0788
14200W        W31047   9.314  13.112   0.550  0.1741  0.0129 -0.0529
14201W        W31048  15.349   8.919   4.785 -0.0971 -0.2802 -0.2341
14202W        W31049  16.375   3.789   0.171  0.0187 -0.0556  0.0712
14203W        W31050   1.432   9.934   0.901 -0.5134  0.1910 -0.2308
14204W        W31051  11.554   0.992  12.241  0.0290  0.2460  0.2056
14205W        W31052   6.145   6.254   3.390  0.1112 -0.0980 -0.2060
14206W        W31053   6.219   7.283   2.773  0.2766  0.1035 -0.1875
14207W        W31054   8.352   5.934   4.015 -0.1284  0.3595 -0.0587
14208W        W31055  17.869  10.701   5.322 -0.0020  0.0229 -0.0835
14209W        W31056  10.004   7.055   0.523 -0.2541 -0.1288  0.2119
14210W        W31057   2.252  11.291  16.075 -0.1510 -0.3610  0.3167
14211W        W31058   6.076  14.411  12.398  0.0032 -0.1761 -0.1036
14212W        W31059   1.258   7.018   3.392  0.0552  0.3599 -0.0875
14213W        W31060  10.427   8.783  15.181  0.0986  0.2756  0.0062
14214W        W31061   7.901  16.523  11.867 -0.0462  0.2105 -0.0210
14215W        W31062   6.285   3.569   0.856 -0.1615  0.0560 -0.0939
14216W        W31063   6.133   6.844  14.216 -0.0993 -0.0979 -0.1009
14217W        W31064   7.061   8.858  16.282 -0.0901 -0.1211 -0.0300
14218W        W31065  13.775  15.386   5.410  0.1596  0.1774 -0.0367
14219W        W31066  18.400  15.662  11.944 -0.0252 -0.0755 -0.2195
14220W        W31067   1.482  15.492   3.249 -0.0797  0.0307  0.0686
14221W        W31068  15.841   4.654   4.497  0.0917  0.1783 -0.3482
14222W        W31069   0.311   6.162   1.251 -0.0510  0.1447  0.1666
14223W        W31070  14.326  11.276  12.295 -0.0532  0.0370 -0.1634
14224W        W31071   2.132  12.875   1.262  0.0908  0.1715  0.1271
14225W        W31072  14.620   0.157  10.410  0.1147  0.1258  0.1235
14226W        W31073   5.414   0.881  11.070 -0.1728  0.0998  0.2675
14227W        W31074   3.288   0.585  11.793 -0.1383 -0.3258  0.0485
14228W        W31075  17.685   6.053   5.009  0.2638  0.1599 -0.0439
14229W        W31076  13.705  12.310  14.481  0.0319 -0.0116  0.1940
14230W        W31077  14.085   2.212  13.198  0.0520 -0.0289 -0.2522
14231W        W31078   8.321   9.876   0.350 -0.2344  0.1078 -0.2981
14232W        W31079   0.776   5.300  11.397 -0.0520  0.1147 -0.0818
14233W        W31080   5.305  10.356   5.229 -0.2869  0.0182  0.0110
14234W        W31081  17.752   7.666   1.497 -0.0993 -0.3975  0.0053
14235W        W31082  11.868   2.119   0.550  0.3943 -0.3335 -0.2018
14236W        W31083   2.525   9.115   5.444 -0.0463  0.1114  0.3157
14237W        W31084  12.635  12.207  16.246  0.2216 -0.0573  0.0203
14238W        W31085   7.316   8.039   2.258 -0.0249 -0.0090 -0.0635
14239W        W31086   9.897  14.837   0.620 -0.1015 -0.1672  0.0848
14240W        W31087   5.750  11.675  14.541  0.0814 -0.0030 -0.2603
14241W        W31088   4.897   5.006  15.580 -0.0767  0.1092 -0.1281
14242W        W31089   0.624  17.508  12.283  0.1081 -0.2094 -0.0218
14243W        W31090  15.713   2.980  14.589  0.1096 -0.1875 -0.1468
14244W        W31091   2.786  18.125   1.721 -0.1719  0.3758  0.0773
14245W        W31092   9.543  10.640   1.959  0.0159 -0.0554 -0.1787
14246W        W31093  16.846   3.250  15.882  0.3130 -0.1494 -0.0341
14247W        W31094   4.095   0.261  14.186 -0.0480  0.1271  0.3315
14248W        W31095   0.766   7.521   2.542 -0.2956 -0.2271  0.2147
14249W        W31096  15.503   0.203  15.044  0.0326  0.0245  0.0451
14250W        W31097  11.844  12.217   4.577  0.2128  0.0679  0.2825
14251W        W31098  14.273   7.549   1.971  0.1614 -0.1437 -0.1073
14252W        W31099   2.302  14.291  13.963  0.1084  0.0711  0.1768
14253W        W31100   6.655  10.045  11.130  0.2055  0.0549 -0.4802
14254W        W31101  13.220  14.828   5.805  0.1028  0.3494  0.1253
14255W        W31102   1.741   0.566   4.127  0.4148  0.0567  0.3170
14256W        W31103  18.340   0.961   2.571  0.1127 -0.2207 -0.2508
14257W        W31104  14.953   8.742  13.297 -0.1077  0.1872 -0.0051
14258W        W31105  12.938   5.334  11.703 -0.0719  0.1369  0.1771
14259W        W31106  13.419   7.213  14.534 -0.1424 -0.0030  0.0259
14260W        W31107   2.128  10.465  13.865  0.0328 -0.1558  0.1170
14261W        W31108  12.169   7.851   3.718 -0.0376  0.0040 -0.0425
14262W        W31109  11.631   2.329   0.075 -0.0983  0.2531 -0.1953
14263W        W31110   6.465  17.387   5.575  0.2645  0.0416 -0.0819
14264W        W31111  16.632  13.561   5.503  0.0520 -0.0561 -0.1068
14265W        W31112  15.971   9.022   0.102 -0.0332  0.0425  0.0643
14266W        W31113  12.867   7.211   3.246 -0.2323  0.2887 -0.1061
14267W        W31114  18.165   2.538  15.492  0.0000  0.1732 -0.2044
14268W        W31115   6.948  12.946  16.279 -0.1368  0.1302 -0.0733
14269W        W31116   8.171   7.851  15.537 -0.1822 -0.0978  0.2038
14270W        W31117  10.394  16.889   3.262 -0.1915 -0.1351  0.1634
14271W        W31118   7.464   5.085   4.958 -0.0219  0.1864  0.3348
14272W        W31119   3.181  15.303   5.229 -0.0881  0.0605  0.1332
14273W        W31120   0.914   0.688   0.485 -0.1124  0.2463  0.1694
14274W        W31121  10.797   3.362  12.886 -0.3118  0.1849  0.0433
14275W        W31122   9.266   0.022  12.253  0.0788 -0.2228 -0.2159
14276W        W31123  10.206   9.459   3.709 -0.0188  0.1763  0.1292
14277W        W31124   0.567  11.930   4.046  0.0894 -0.1115 -0.1208
14278W        W31125   2.234  18.021   1.270  0.3942 -0.0366  0.1656
14279W        W31126  12.556  13.141   5.668  0.0419 -0.2679 -0.2778
14280W        W31127  18.371   9.417   1.048  0.0145  0.1289  0.0831
14281W        W31128   7.050   2.853   5.196 -0.2822  0.1453  0.0975
14282W        W31129   4.110  12.859  12.448 -0.1730  0.2354  0.0595
14283W        W31130   1.069   1.039  15.606 -0.0293  0.1145 -0.2531
14284W        W31131   6.264   6.770  11.857 -0.1050 -0.0045  0.0306
14285W        W31132  17.612  16.168  12.655 -0.0499 -0.5524 -0.5600
14286W        W31133  10.293   0.336   5.452  0.1914 -0.1213 -0.1489
14287W        W31134   1.697  10.292  13.974 -0.0390  0.1823  0.2444
14288W        W31135   0.119   0.714  12.560 -0.1441 -0.0253 -0.0521
14289W        W31136   8.498   0.668  14.021  0.1581  0.0090 -0.0146
14290W        W31137  10.673  11.895   1.125 -0.3168 -0.0118 -0.0259
14291W        W31138   7.518   7.912   3.037  0.2355  0.4131 -0.4899
14292W        W31139  11.365  12.596   2.695 -0.0364 -0.1100  0.3622
14293W        W31140  15.765   4.164  10.755 -0.1657  0.0639 -0.1062
14294W        W31141  15.951  10.747   2.381  0.0551  0.1710  0.0431
14295W        W31142   6.289  14.653  15.119  0.1236  0.0007  0.1222
14296W        W31143  12.745   9.531   0.671 -0.2388 -0.2289  0.1844
14297W        W31144   6.977  18.140  12.588  0.3771  0.0255 -0.0036
14298W        W31145  14.616   0.749  14.906  0.1319  0.0935 -0.0052
14299W        W31146   1.813  11.032   2.961  0.0522  0.5281  0.1571
14300W        W31147  14.860   6.795  16.128  0.0990 -0.2125 -0.3499
14301W        W31148  18.110   6.228   3.403 -0.1205 -0.1235 -0.0098
14302W        W31149  18.372   0.934  12.154 -0.3251 -0.2900 -0.1085
14303W        W31150   4.942  12.785   2.876  0.4151  0.1526 -0.1037
14304W        W31151  10.386  16.032  11.952 -0.3244  0.1706 -0.0294
14305W        W31152   8.474  16.646  13.821 -0.1892  0.2952 -0.3847
14306W        W31153   8.883   5.660   1.862 -0.0530  0.2366  0.3522
14307W        W31154   6.591   8.928   5.709 -0.0796  0.0047  0.1346
14308W        W31155   8.942   9.802  13.739  0.0825  0.0116  0.1916
14309W        W31156   8.344   6.995  12.554 -0.0896 -0.0933 -0.0212
14310W        W31157   8.138  13.200  14.220  0.1832 -0.1447  0.0498
14311W        W31158  11.799   3.494   3.078  0.1272  0.5382  0.1305
14312W        W31159   6.613  16.615   3.417 -0.0280  0.0876  0.2388
14313W        W31160  14.878   5.196   0.836  0.2227  0.1931  0.0813
14314W        W31161  11.915   1.026  12.694  0.2730 -0.2025  0.1173
14315W        W31162  13.345  14.859  14.408 -0.1154 -0.1797  0.1858
14316W        W31163   5.995  15.823   3.680  0.1273 -0.0764  0.1171
14317W        W31164  15.619   6.274  13.833 -0.3831  0.1231 -0.1955
14318W        W31165   5.958   0.219   2.269  0.1506  0.3050  0.2378
14319W        W31166   0.636  17.865  11.979  0.1415 -0.2443 -0.0320
14320W        W31167  16.322   4.863   0.623 -0.1892  0.1391  0.0781
14321W        W31168   2.555   5.428  14.092 -0.0391  0.1932  0.0969
14322W        W31169  15.116   2.939  15.818  0.0648 -0.3245  0.2778
14323W        W31170   5.659  14.229  11.653  0.1075  0.0478 -0.0444
14324W        W31171   3.684   2.469   1.932 -0.1974 -0.0474 -0.0446
14325W        W31172  12.946  11.900   5.475 -0.3209  0.0628  0.1662
14326W        W31173   7.809   1.782   0.276  0.1739 -0.0507  0.6064
14327W        W31174   5.241  12.517  14.805  0.3160  0.1603 -0.0079
14328W        W31175  17.006   5.934   1.149 -0.0047 -0.4383 -0.0035
14329W        W31176   1.506   9.103  16.158 -0.0120 -0.0076  0.0981
14330W        W31177   2.265   9.314   5.061  0.0814 -0.2497  0.5692
14331W        W31178   6.849  10.636  13.150  0.0060 -0.2142 -0.0467
14332W        W31179   9.783   0.599   2.094  0.0838 -0.3251 -0.0202
14333W        W31180   4.183   5.665   3.472 -0.1009 -0.0111  0.0084
14334W        W31181   3.324   9.545  13.417 -0.2075  0.2989 -0.2953
14335W        W31182  13.934  16.187  11.701  0.0126  0.1076 -0.2303
14336W        W31183   7.341  11.586  16.146 -0.0243  0.3051  0.1095
14337W        W31184   7.491   9.244   3.091  0.3642 -0.0283  0.1495
14338W        W31185  15.521  16.644  11.990  0.0573  0.1173  0.3709
14339W        W31186   9.844  11.681  14.210  0.0307  0.1314  0.0842
14340W        W31187  10.094   4.395  12.026 -0.1146  0.0820  0.0333
14341W        W31188   8.868   5.885  13.433  0.3823 -0.2307 -0.1289
14342W        W31189   7.645  16.466   5.417 -0.0385 -0.1937 -0.0125
14343W        W31190   9.698   0.580   0.526  0.0602 -0.1772 -0.0430
14344W        W31191  17.977  14.075   0.278 -0.3975  0.2209 -0.0711
14345W        W31192  15.271  17.247  12.641  0.3797  0.4168  0.1950
14346W        W31193   6.117  10.953  13.373 -0.1164 -0.3653 -0.0993
14347W        W31194   8.474  16.149   3.626  0.2123 -0.1311  0.1031
14348W        W31195  17.427   3.510  10.065 -0.1576  0.1092 -0.1660
14349W        W31196   5.696  15.200   0.653 -0.2388 -0.1218  0.1497
14350W        W31197  18.407   7.223   1.364 -0.0474  0.0553  0.4699
14351W        W31198  15.202   0.621  12.950 -0.4236  0.0750 -0.0770
14352W        W31199  10.223  12.326   4.966  0.1431 -0.2673  0.0132
14353W        W31200   9.518   4.425  12.741 -0.1542 -0.2196  0.0292
14354W        W31201   2.306  10.675   2.262  0.1132 -0.2693 -0.1288
14355W        W31202  11.627  14.856  13.030  0.2065 -0.2470  0.0210
14356W        W31203  17.406  12.358   4.035 -0.1881 -0.3900 -0.0028
14357W        W31204   8.147   1.454   0.187 -0.1047  0.0997 -0.2163
14358W        W31205   5.893   4.296  16.032  0.1009 -0.3237 -0.0329
14359W        W31206   1.614  14.299  12.306 -0.1006 -0.1381  0.2083
14360W        W31207   7.902  13.781  14.076  0.0842 -0.1018  0.0556
14361W        W31208   1.820  14.577   1.786 -0.1970 -0.2112  0.1994
14362W        W31209  14.537   7.285  11.559 -0.2614 -0.3183 -0.1190
14363W        W31210  16.832  17.851   2.417  0.3922 -0.0689  0.0827
14364W        W31211   0.445   6.007   3.847  0.1226 -0.1954 -0.0067
14365W        W31212  15.277   8.013  16.096  0.0757  0.4779  0.0742
14366W        W31213   0.709  13.876  11.944  0.0173  0.3559 -0.2693
14367W        W31214   1.046  17.194   4.608 -0.4950 -0.1134  0.0602
14368W        W31215  18.037   7.100  13.017  0.1816  0.3952  0.4150
14369W        W31216   6.983  17.275  13.870  0.0492 -0.1572  0.0701
14370W        W31217   6.543   0.200  11.958  0.1555  0.0037 -0.0167
14371W        W31218  11.793  14.411   0.324 -0.1677 -0.1345 -0.0998
14372W        W31219  11.694  18.217   4.898  0.1585  0.2753  0.3276
14373W        W31220  10.875  15.068  13.013  0.1458 -0.0114 -0.0490
14374W        W31221  17.868   8.694   3.982 -0.0441  0.0318  0.1086
14375W        W31222  14.075   7.016  12.391 -0.3043 -0.0916  0.0689
14376W        W31223   8.784   3.404   1.485  0.0383 -0.2425  0.3332
14377W        W31224   5.141   4.279   2.402  0.0675  0.5625 -0.0717
14378W        W31225  15.732   4.731   2.544 -0.1681 -0.0296  0.2251
14379W        W31226  13.919   1.359  11.294 -0.2925 -0.0785  0.1577
14380W        W31227   0.017   6.403   1.600  0.0752 -0.4209  0.2830
14381W        W31228   1.768   0.134   2.004  0.0065  0.1295 -0.0146
14382W        W31229  11.305   7.848  15.020 -0.0902 -0.1499  0.1724
14383W        W31230  11.358   7.476   0.595  0.1443  0.5409  0.2514
14384W        W31231   8.943  14.719  16.084 -0.1178 -0.3313 -0.0100
14385W        W31232  10.351   9.004  16.275  0.0714 -0.1096  0.1012
14386W        W31233   6.471  16.425  12.939  0.2901  0.5395 -0.1573
14387W        W31234   9.082  14.880  12.114  0.1157 -0.1176  0.0286
14388W        W31235   6.760  10.033  14.475  0.2493  0.0546 -0.1078
14389W        W31236  12.669  13.750  11.968 -0.4047 -0.0930 -0.0353
14390W        W31237   0.067  12.371   4.780  0.1437 -0.0490 -0.1697
14391W        W31238  10.181   1.381   3.357 -0.0756  0.1212  0.1908
14392W        W31239   7.769  15.411  13.092 -0.0576 -0.2173  0.3197
14393W        W31240  11.847   8.940   3.214  0.2302 -0.0215  0.4202
14394W        W31241   8.320   6.025   4.519 -0.1523  0.0200 -0.0733
14395W        W31242  17.750   6.684   1.798 -0.5000 -0.0066  0.1054
14396W        W31243  11.166   6.121  15.809 -0.1990  0.1318  0.0215
14397W        W31244  15.524  16.239  11.682 -0.1877  0.1147  0.1891
14398W        W31245   0.636   2.865   4.987 -0.3304 -0.0587 -0.2662
14399W        W31246  13.789   8.964  10.219 -0.0798  0.0238 -0.0937
14400W        W31247   2.596  13.745   0.526  0.3500 -0.1026  0.0693
14401W        W31248   1.743  11.474   6.099  0.0261 -0.0844 -0.1760
14402W        W31249  12.323   5.113   5.386  0.3041  0.2454 -0.2393
14403W        W31250  10.531   3.116  15.023  0.1951 -0.1088 -0.1761
14404W        W31251   3.249  17.110  13.355 -0.1998  0.0101  0.1056
14405W        W31252   8.550  15.068   4.297  0.0500 -0.3435  0.1130
14406W        W31253  12.148  17.854   2.008 -0.2361 -0.5909  0.1147
14407W        W31254  10.345   4.065  13.872 -0.1612  0.0337  0.4815
14408W        W31255  12.198   3.044  11.756  0.0963 -0.0571 -0.0576
14409W        W31256  17.090   6.991   1.160  0.1126  0.0294  0.1085
14410W        W31257   3.779   0.160  12.612 -0.0762  0.3756 -0.1041
14411W        W31258   2.708  17.588   0.864 -0.0217  0.1356 -0.0135
14412W        W31259   7.549   8.701  16.240  0.1784 -0.4755  0.1902
14413W        W31260  12.299   5.986  11.700 -0.0219  0.0457 -0.0325
14414W        W31261  12.322  17.969   4.692 -0.2754  0.3239 -0.1758
14415W        W31262  11.265   9.505  14.660  0.1404  0.1544  0.0780
14416W        W31263   6.418   3.465  12.681  0.3024 -0.0392 -0.2471
14417W        W31264  12.403   1.850   2.444 -0.2077  0.0908  0.1349
14418W        W31265   5.716  12.041   1.488 -0.5029 -0.0204 -0.0821
14419W        W31266  12.660   0.803   2.459 -0.1260 -0.2495  0.3576
14420W        W31267   3.215  12.701  12.065 -0.2260  0.1133  0.4174
14421W        W31268  18.075   3.179  13.100 -0.2518 -0.3703 -0.0672
14422W        W31269  10.362  17.983   2.701 -0.1048  0.0118  0.1836
14423W        W31270  16.764   6.425  13.218 -0.1981 -0.0915  0.2874
14424W        W31271  18.167  15.022   5.584  0.1324  0.1807 -0.0506
14425W        W31272   0.136   2.820  14.504  0.2013 -0.2443  0.1133
14426W        W31273  18.195   3.082  10.167 -0.0874 -0.1597 -0.3597
14427W        W31274   9.034   9.355   5.102 -0.1528 -0.0361  0.1094
14428W        W31275   6.546  10.256  11.598 -0.0679  0.0501 -0.0132
14429W        W31276   0.043   4.941  12.129  0.0461  0.2413  0.1611
14430W        W31277   6.366   4.072  11.663  0.1079 -0.3240 -0.0916
14431W        W31278   4.257   9.498   3.817  0.2214 -0.1222 -0.1952
14432W        W31279   3.582   8.675  15.537 -0.3289 -0.2310 -0.0696
14433W        W31280  16.028   9.528  13.991  0.1270 -0.0801 -0.0689
14434W        W31281  14.525   4.010   1.858 -0.3357 -0.1718 -0.0806
14435W        W31282  15.485  10.153   3.984 -0.2211  0.0811 -0.0811
14436W        W31283  14.192  17.185   0.698  0.1516  0.2253 -0.0104
14437W        W31284   5.270  14.567   5.182 -0.0862  0.0434  0.0038
14438W        W31285   9.573  16.202   3.129  0.1496 -0.3610  0.1565
14439W        W31286  17.232  17.577   6.184 -0.3517 -0.0682  0.0793
14440W        W31287   9.261  15.074   4.671 -0.0284  0.0976 -0.0681
14441W        W31288  13.085   6.317   2.833 -0.1028  0.2380  0.1792
14442W        W31289   0.395   6.748   3.300 -0.0693 -0.1735 -0.0644
14443W        W31290  14.625   3.793  14.785  0.0229  0.1004  0.1802
14444W        W31291   8.344  12.519  14.772 -0.0489 -0.4419 -0.0757
14445W        W31292   7.466   2.650   0.738  0.4119  0.0222  0.1679
14446W        W31293  12.207   2.114   4.798 -0.1239  0.0170 -0.2467
14447W        W31294   3.786  15.258   0.154  0.2369  0.1529 -0.0521
14448W        W31295  10.016  16.537  12.682  0.3299 -0.2598 -0.1125
14449W        W31296  18.358  16.033   3.075  0.0188 -0.2994 -0.2176
14450W        W31297  18.071   9.781   4.878  0.1348 -0.1030 -0.0122
14451W        W31298   9.038   4.708   1.084 -0.1420 -0.1260  0.0615
14452W        W31299   7.314  12.525   0.318  0.0587  0.0689 -0.3048
14453W        W31300   6.190  14.993   3.097  0.0920 -0.1558  0.0347
14454W        W31301  13.114   8.936  13.907 -0.0013  0.1736 -0.0933
14455W        W31302  13.822   1.178   2.870 -0.1953  0.0027  0.1565
14456W        W31303  12.320   3.289  15.106  0.0091  0.0847 -0.2940
14457W        W31304   4.443  14.837   1.344  0.2038  0.4604 -0.1012
14458W        W31305   5.127  11.333   5.408  0.2784 -0.1187 -0.1143
14459W        W31306   9.769   5.813  16.027  0.0122  0.0019  0.1807
14460W        W31307  14.975  15.258  13.827  0.3154  0.3034 -0.1705
14461W        W31308  12.053  12.881   3.282 -0.1517  0.0275  0.1194
14462W        W31309   1.695   4.056  15.973 -0.0462 -0.3613  0.0306
14463W        W31310  18.264   4.187  14.234 -0.2237 -0.4612  0.3919
14464W        W31311   2.525  11.181   6.091 -0.0092 -0.0468 -0.3633
14465W        W31312   1.672   4.524   2.166  0.1909 -0.0817 -0.0582
14466W        W31313  13.622   1.977   3.730 -0.2973 -0.0341 -0.3183
14467W        W31314   4.092   3.413   0.273  0.0774 -0.2098  0.0514
14468W        W31315   2.726   0.091   3.718  0.0953  0.1833  0.0706
14469W        W31316   4.945   4.980   2.186 -0.1354  0.1141  0.1557
14470W        W31317  11.426   7.017   3.717 -0.2792  0.1703 -0.0225
14471W        W31318   7.001   8.695   3.737 -0.0001  0.0766  0.4638
14472W        W31319   4.075  13.043  15.135 -0.2168  0.2906  0.0855
14473W        W31320  18.082  14.028  13.248 -0.2060  0.5419 -0.0039
14474W        W31321   7.816   1.881   1.183  0.0755  0.0827 -0.1788
14475W        W31322  17.948  12.468   2.121 -0.0264 -0.1970 -0.0893
14476W        W31323  14.662  10.699  12.619 -0.3423  0.2956  0.3152
14477W        W31324   3.802   1.540  11.329  0.2144 -0.1429 -0.0678
14478W        W31325  16.087   2.716   5.372 -0.2851 -0.1019 -0.0829
14479W        W31326   8.929   5.157  12.736 -0.1299  0.2397  0.0986
14480W        W31327   1.042   9.440   3.195 -0.0672  0.4177  0.1099
14481W        W31328  17.860  12.843   2.446  0.1416  0.1064 -0.3603
14482W        W31329  12.151   8.339   5.959  0.1938  0.0504 -0.1579
14483W        W31330   9.011   3.342   4.679 -0.2822 -0.1480  0.0757
14484W        W31331  10.234   6.074   0.066  0.1374  0.1432  0.2178
14485W        W31332   2.843   2.020  15.990 -0.2018  0.0812  0.2794
14486W        W31333   8.695  15.518   4.977  0.0384 -0.0195  0.7645
14487W        W31334  13.816  17.249   5.449 -0.0502  0.0573 -0.0641
14488W        W31335   4.901   9.178   1.330 -0.1366 -0.0933  0.0086
14489W        W31336  10.646   2.252   4.949 -0.4093  0.3997  0.1019
14490W        W31337   8.770  18.134   4.160 -0.1009 -0.0904 -0.0071
14491W        W31338   2.038   0.875   3.776  0.1882 -0.2165  0.2097
14492W        W31339  17.571  13.765   4.216  0.3602 -0.2542 -0.2942
14493W        W31340   2.473   5.690  14.584 -0.1938  0.3521  0.0511
14494W        W31341   1.479  15.626  11.872  0.0308  0.0344  0.1396
14495W        W31342  15.614  17.595   6.200 -0.1023 -0.1366  0.2906
14496W        W31343   4.995   0.644  11.338 -0.0133  0.0132  0.1790
14497W        W31344   9.232   2.308  13.493  0.1663 -0.4186  0.0732
14498W        W31345  11.224   3.637   2.321  0.0635  0.0830  0.2196
14499W        W31346   9.478   7.342   2.818 -0.1366  0.3278 -0.0029
14500W        W31347   9.387   7.808  13.574 -0.0770 -0.1209  0.1513
14501W        W31348   4.503  17.632  12.426 -0.2693 -0.0535 -0.0525
14502W        W31349   8.244  12.542   2.194 -0.1840  0.0968 -0.0172
14503W        W31350   1.777   6.197  12.555  0.0528 -0.0532 -0.2496
14504W        W31351   3.603  13.734   0.427  0.0001  0.1311  0.1955
14505W        W31352  12.952  13.515  12.852 -0.3265  0.0044 -0.1940
14506W        W31353  13.319  16.522   5.052 -0.0687 -0.1290 -0.2581
14507W        W31354   6.979  11.485   3.298  0.1738 -0.0312  0.0446
14508W        W31355   1.383  15.847  15.823  0.2990  0.2170  0.1461
14509W        W31356   1.341  17.489  16.161  0.0788  0.2968 -0.0801
14510W        W31357  10.993  11.240  16.345 -0.1261 -0.1721  0.0214
14511W        W31358   9.849   3.055   4.701  0.0774 -0.0942  0.0864
14512W        W31359   0.697  17.570   1.696 -0.0550 -0.2150  0.1807
14513W        W31360  18.274  11.933   1.934 -0.0718  0.0882 -0.2676
14514W        W31361   2.490   9.954  14.630 -0.0600 -0.3189 -0.1524
14515W        W31362  10.810   1.947  12.792 -0.1220 -0.5629 -0.0916
14516W        W31363   7.119  16.123  12.565 -0.1187 -0.0328 -0.2589
14517W        W31364   5.864  10.562  13.158 -0.0658  0.0208 -0.2408
14518W        W31365  11.964  13.956   0.492 -0.1919 -0.0879 -0.0276
14519W        W31366  15.625   3.359   1.410 -0.1112 -0.1300 -0.0436
14520W        W31367   1.412  13.115  15.774  0.1408 -0.0796  0.4589
14521W        W31368   3.121   4.334  15.943  0.0127 -0.3007 -0.0080
14522W        W31369   3.297   7.964  12.189  0.0731 -0.1704  0.0036
14523W        W31370  10.489  11.281  13.887 -0.1490  0.2356  0.0061
14524W        W31371  12.358  10.438  12.914 -0.2481 -0.0318  0.0893
14525W        W31372   9.011   0.169  13.111 -0.1101  0.1221 -0.1716
14526W        W31373  10.706  18.056  12.522 -0.0644 -0.2901  0.1232
14527W        W31374   8.811  15.739  16.175 -0.2733 -0.0439 -0.2669
14528W        W31375   5.005   9.693   2.048 -0.3452  0.1781 -0.0585
14529W        W31376   3.245  15.207   5.959 -0.1131  0.2395  0.0444
14530W        W31377   9.992   9.056   4.381 -0.2310  0.3262 -0.0977
14531W        W31378   1.899   6.275   0.835 -0.0124 -0.2727 -0.0492
14532W        W31379   7.964  12.674  14.280  0.0101 -0.0625  0.0321
14533W        W31380  17.098   2.455  14.618  0.0123  0.0768  0.1659
14534W        W31381  14.038  11.880   1.527  0.0166 -0.1628  0.1792
14535W        W31382  16.638   5.604  13.645 -0.1477 -0.2619 -0.2259
14536W        W31383  16.943  11.982   5.393  0.0905 -0.1547  0.0574
14537W        W31384  15.184  12.155   3.610 -0.0620 -0.0756  0.1907
14538W        W31385   3.304   6.752  16.238  0.1249 -0.2043 -0.1044
14539W        W31386  18.093  15.214   6.049 -0.0968 -0.1528  0.2709
14540W        W31387   7.949  16.107   5.296  0.0007  0.0833  0.4915
14541W        W31388   7.219  15.711   0.287  0.0348 -0.1422 -0.2424
14542W        W31389   4.852   9.374   2.418  0.1415  0.0718 -0.2393
14543W        W31390  15.638   7.115  16.156 -0.1044  0.0331 -0.1589
14544W        W31391  11.182   9.022  13.984  0.0121 -0.1290 -0.0729
14545W        W31392   9.020   9.511  15.034  0.2423  0.2894  0.1112
14546W        W31393   3.545  15.886   4.182  0.0066  0.2770 -0.3246
14547W        W31394   7.343  16.976   0.756  0.1305  0.4202  0.3875
14548W        W31395   0.382  15.732   2.030  0.2725  0.1779 -0.1054
14549W        W31396  13.678  12.620  12.305 -0.0937 -0.0822  0.1592
14550W        W31397   3.046   5.857  13.740 -0.1278  0.0033  0.3157
14551W        W31398   2.151   1.794  11.652 -0.2633  0.0983  0.0659
14552W        W31399   8.416  18.353   5.462 -0.0014 -0.2984  0.0328
14553W        W31400  13.187   0.276  14.578  0.0224  0.0407  0.1236
14554W        W31401   8.544  16.216   3.098  0.0113 -0.0771 -0.1090
14555W        W31402   4.670   1.538   4.059 -0.0892  0.2729 -0.0530
14556W        W31403  17.623  12.342  11.927 -0.0144 -0.1068 -0.3208
14557W        W31404   0.420   9.248   4.857 -0.1071 -0.0304  0.0443
14558W        W31405  17.417  16.859  14.602 -0.1442  0.0896 -0.3619
14559W        W31406   6.778   4.537   1.306 -0.2788  0.1546  0.0831
14560W        W31407   3.729  15.853   0.755 -0.0571  0.0087 -0.0863
14561W        W31408   7.169   8.160  14.145  0.0787 -0.1599  0.0474
14562W        W31409   3.968   5.585   2.205 -0.3054 -0.0201 -0.0087
14563W        W31410  12.642   1.653  11.433  0.1344  0.3410  0.1410
14564W        W31411  11.452   5.416  16.270 -0.2549 -0.0266  0.2138
14565W        W31412   6.562   6.814  15.120 -0.2232 -0.2067  0.6133
14566W        W31413   2.644   5.114  13.679  0.2249 -0.2822  0.2047
14567W        W31414   6.523   0.817   1.771  0.1071  0.3076 -0.1089
14568W        W31415   0.491   6.343  14.785 -0.2525  0.0661  0.2516
14569W        W31416   8.540  14.870  14.563 -0.2426 -0.2176 -0.4144
14570W        W31417  15.295   0.208  11.383  0.0816 -0.0246 -0.3384
14571W        W31418  10.003  15.555  16.349 -0.1346  0.0464 -0.0287
14572W        W31419   3.269   7.908   3.681 -0.1477 -0.0609  0.0237
14573W        W31420   6.077   9.233  15.318  0.1404  0.1179  0.0429
14574W        W31421   4.990  15.349   5.148 -0.3950  0.1436  0.3770
14575W        W31422  12.762  10.344  15.944 -0.0561 -0.1477 -0.1589
14576W        W31423  11.858   0.900   1.199 -0.0123  0.0842 -0.2030
14577W        W31424  17.607   3.360   3.315  0.0519 -0.0478 -0.1972
14578W        W31425  13.280  13.845   0.192 -0.1872 -0.0159  0.2859
14579W        W31426   8.306   2.306   5.077  0.0466  0.2281  0.0278
14580W        W31427   5.599  18.119   0.366 -0.1055  0.1993 -0.0154
14581W        W31428  14.812  18.409   1.215 -0.0205  0.0496  0.0742
14582W        W31429  12.540  15.293   0.839 -0.1175  0.1684  0.2753
14583W        W31430   8.318  13.643   0.831  0.0143  0.1400 -0.2129
14584W        W31431   8.433   5.312  13.953  0.1485  0.4023 -0.0529
14585W        W31432  10.383   8.141   3.801 -0.0813  0.2540  0.1920
14586W        W31433  11.311   9.081   0.037 -0.2417  0.0737 -0.0767
14587W        W31434   5.959  18.207   3.816 -0.0427 -0.0686  0.0654
14588W        W31435   1.983   0.670  11.346 -0.0691 -0.0982 -0.1751
14589W        W31436   6.691   8.442   0.271  0.0673  0.0906 -0.2162
14590W        W31437  17.213  16.114  15.180 -0.1492  0.1192 -0.0570
14591W        W31438   9.975  11.155  12.739 -0.1062  0.4298  0.2207
14592W        W31439   9.720   8.702   3.666 -0.1481  0.1491  0.0289
14593W        W31440  14.166  14.585  14.780 -0.0521 -0.0647 -0.1170
14594W        W31441   4.690  14.867  12.009 -0.0328  0.2006  0.2998
14595W        W31442  10.789   2.331  13.897 -0.1854  0.0003 -0.3585
14596W        W31443   1.509   8.851   2.341 -0.0363 -0.0137  0.0428
14597W        W31444  17.508   1.642  13.204  0.0468 -0.3348 -0.1618
14598W        W31445  12.801   1.884   4.302  0.0580 -0.2177 -0.1694
14599W        W31446  14.342   0.395   2.915  0.0729  0.4698 -0.2228
14600W        W31447   7.931   3.170  15.133  0.2780 -0.3304  0.3313
14601W        W31448   9.034  17.950   2.562 -0.0190 -0.0483 -0.0645
14602W        W31449   4.111  16.423  13.348  0.0260  0.3770  0.0141
14603W        W31450  15.636   7.842   2.862 -0.1594  0.2065  0.0739
14604W        W31451   8.146   2.070  14.777  0.2084  0.1417  0.0383
14605W        W31452   2.839  11.509   4.238 -0.0263  0.0649 -0.3266
14606W        W31453   0.005   9.031   0.421 -0.4120 -0.4243  0.0440
14607W        W31454  17.710  17.694  14.725  0.1225 -0.2768  0.1941
14608W        W31455  15.063   1.594  12.026 -0.1544  0.2547 -0.1791
14609W        W31456   7.092  16.639   5.245 -0.1643 -0.1041 -0.0876
14610W        W31457  15.301  13.457   0.240 -0.0124 -0.0349 -0.0908
14611W        W31458  15.457  15.070  13.036  0.0420 -0.0527  0.1382
14612W        W31459   0.180  16.347   5.536 -0.1065 -0.0266  0.0447
14613W        W31460   3.836  16.289   2.424  0.1548  0.0764 -0.2619
14614W        W31461  13.563  16.933  15.943  0.0180  0.0586 -0.1031
14615W        W31462   6.706  12.762  14.838 -0.1445  0.1286 -0.2509
14616W        W31463  11.250  18.340  11.928 -0.0148  0.0569 -0.0321
14617W        W31464  15.367  12.606   0.871 -0.3916  0.0411 -0.0789
14618W        W31465   5.639  17.673  12.926 -0.2266 -0.0021 -0.1547
14619W        W31466  10.045   2.180  11.207  0.1737 -0.1389 -0.2081
14620W        W31467   1.811   5.061  11.130  0.1198  0.0921  0.0620
14621W        W31468   7.395  15.800  13.213 -0.0712 -0.1737  0.0320
14622W        W31469  10.151  15.675  12.306  0.1003 -0.0951  0.1889
14623W        W31470   7.641  17.100  13.818 -0.2201  0.1060 -0.2478
14624W        W31471   7.511  17.873   2.919  0.0531 -0.0290  0.1323
14625W        W31472  16.812   9.388   3.689  0.1045 -0.1145  0.1008
14626W        W31473  16.058  11.483   1.660  0.1872  0.1721  0.3342
14627W        W31474   5.276   1.695  11.256 -0.0272  0.0016  0.0227
14628W        W31475  14.004   2.092  16.170  0.2140  0.0983 -0.0329
14629W        W31476  10.349   1.570  11.164  0.0601 -0.0858 -0.1191
14630W        W31477   7.869  13.421   2.054 -0.2645  0.1151  0.0851
14631W        W31478  11.978  15.453  15.539 -0.0729 -0.3520 -0.0236
14632W        W31479   0.794  11.868   2.241 -0.1760  0.1113 -0.1690
14633W        W31480   4.574   2.454  16.009 -0.3422 -0.0032  0.0606
14634W        W31481  15.507  10.504  13.652 -0.0830  0.1338  0.2825
14635W        W31482   7.560   0.516   5.350  0.1162 -0.2032  0.0178
14636W        W31483   3.151  10.178  14.982 -0.1696 -0.0155 -0.1341
14637W        W31484   6.562   6.156   4.611  0.0087  0.1340  0.2459
14638W        W31485  15.227  13.736  12.890  0.0906 -0.1865  0.1084
14639W        W31486  10.817   4.602   1.670 -0.0635 -0.1201 -0.3831
14640W        W31487  17.078  10.563   1.928 -0.0424  0.0844  0.2529
14641W        W31488   1.127  17.167   5.203 -0.1398  0.0333 -0.2139
14642W        W31489  16.816  12.757   4.520  0.0784  0.0134 -0.2473
14643W        W31490   8.931  16.921   5.241 -0.0669  0.0861 -0.0998
14644W        W31491   8.494  17.469  14.386 -0.0716  0.1375  0.0297
14645W        W31492   5.763   5.281  11.141 -0.1241  0.2797  0.0199
14646W        W31493  15.072   1.439   1.136 -0.0308 -0.0491 -0.1363
14647W        W31494  15.313   5.450  14.461 -0.1589  0.3280  0.1185
14648W        W31495   8.325   8.840  13.650 -0.2348  0.0326  0.1165
14649W        W31496  12.478  17.753   2.413  0.0686  0.0572  0.1886
14650W        W31497   4.703  12.060   2.959 -0.0088 -0.0819 -0.1706
14651W        W31498  12.234   0.366  15.727 -0.0431 -0.1087  0.1129
14652W        W31499   8.965  14.202  14.905  0.0060  0.0485  0.1943
14653W        W31500  10.374  11.751   1.818  0.0006  0.5042 -0.2924
14654W        W31501  11.206   4.588   3.844 -0.1610 -0.0971  0.0759
14655W        W31502   4.281  16.223  12.896 -0.3855  0.1638  0.3166
14656W        W31503   1.797  17.403  16.271 -0.1272  0.0103  0.0171
14657W        W31504   3.961   1.910  14.398 -0.0291  0.3129 -0.1022
14658W        W31505   5.276   6.772   1.579  0.1708 -0.0217 -0.2762
14659W        W31506   2.352  14.890   2.995  0.2504  0.0105  0.0404
14660W        W31507  17.147  17.341  13.416 -0.0405 -0.0325  0.0621
14661W        W31508  12.544   1.426   0.113 -0.2916  0.0978 -0.0329
14662W        W31509  10.425   9.406  15.788  0.2293  0.0736  0.1468
14663W        W31510  13.049  10.780  13.658  0.1196 -0.1771  0.0145
14664W        W31511   3.432   2.915   3.082  0.0773  0.2132 -0.2586
14665W        W31512  10.358  17.885   4.152 -0.2970  0.0499 -0.0605
14666W        W31513  14.181  15.489   5.028 -0.1177  0.0177  0.1907
14667W        W31514   8.330  16.962   5.311 -0.1458  0.1618 -0.0925
14668W        W31515   7.744  15.212  15.830 -0.1211  0.1124 -0.0198
14669W        W31516   3.142  14.443  13.507  0.0592  0.0054 -0.4144
14670W        W31517   8.896  12.387   1.766 -0.1148 -0.0912  0.0273
14671W        W31518   1.559  14.581   3.409 -0.0274 -0.3303  0.0499
14672W        W31519  15.550  11.898  12.616 -0.3270  0.2687 -0.2327
14673W        W31520   8.671   6.403  12.296 -0.4003 -0.0534 -0.1342
14674W        W31521   2.615   1.438   0.915 -0.0095  0.2115 -0.1462
14675W        W31522   7.974   4.928  11.472  0.2453  0.0026  0.0557
14676W        W31523   1.293   1.500  12.420  0.3302 -0.1315  0.0801
14677W        W31524   8.338   1.122  14.291  0.0188  0.3943  0.2162
14678W        W31525  14.911  10.359   3.578  0.0125  0.1162  0.0163
14679W        W31526  15.742   1.568  15.377 -0.1330  0.1151 -0.2347
14680W        W31527   6.338   3.318   4.904 -0.2578 -0.0207 -0.2853
14681W        W31528  17.095   3.963  15.191  0.3454 -0.0947 -0.1127
14682W        W31529  17.249  15.817  12.448 -0.3826  0.1915 -0.2656
14683W        W31530   7.265   5.639   3.868 -0.0820  0.2252  0.2314
14684W        W31531  11.910   2.873   3.012 -0.0130 -0.0603 -0.0367
14685W        W31532   6.612   5.363  12.215 -0.0473 -0.1365  0.0866
14686W        W31533  10.067  18.292   1.037  0.2796 -0.3195 -0.3037
14687W        W31534  16.591   0.212   1.862  0.2671  0.1467 -0.0542
14688W        W31535   6.652  15.542   5.515  0.1936 -0.3260  0.1054
14689W        W31536  13.586  14.452   5.818 -0.0676 -0.2124  0.1113
14690W        W31537   4.325   2.440  12.442  0.2136  0.0749  0.1769
14691W        W31538  16.681   8.748   2.568  0.2115  0.2430 -0.1930
14692W        W31539   2.741   7.728  10.924  0.1008  0.2018 -0.1035
14693W        W31540   6.161   9.957  12.641  0.0411  0.0279 -0.2505
14694W        W31541  10.719   2.753  12.205  0.0289 -0.1640 -0.0227
14695W        W31542   2.517  16.125  14.736  0.2049  0.1298  0.0235
14696W        W31543   5.367  17.738  14.927 -0.0709 -0.2433  0.1229
14697W        W31544  12.197  12.213  13.926 -0.2694 -0.1643 -0.2239
14698W        W31545  13.695   9.330   0.998  0.0258 -0.0238 -0.0313
14699W        W31546   2.213  10.833   1.760 -0.0267 -0.1863  0.2184
14700W        W31547  11.362   3.354   0.019 -0.0772  0.0986 -0.0724
14701W        W31548   8.963   4.792   2.324 -0.0738  0.1104  0.1016
14702W        W31549   8.447   3.707   1.720  0.2500  0.0577 -0.1237
14703W        W31550   3.021  10.747   4.430  0.0702 -0.0578  0.1899
14704W        W31551  13.717  11.738   3.337 -0.0939  0.3153 -0.1293
14705W        W31552   8.725   8.521   3.361 -0.0079  0.1149 -0.1632
14706W        W31553   2.139  16.189   3.460 -0.0975 -0.2961 -0.1304
14707W        W31554  17.360  15.196  14.825  0.1641  0.2023  0.1347
14708W        W31555  17.737   5.265  12.304  0.0306  0.0727  0.1625
14709W        W31556   2.452  14.040   3.480 -0.0642 -0.0584  0.3741
14710W        W31557   0.200  10.002  12.686  0.1835 -0.0570 -0.2239
14711W        W31558  12.206   7.034  15.683 -0.2039 -0.2163 -0.4171
14712W        W31559  12.895  15.048  12.484 -0.2449 -0.0789 -0.1131
14713W        W31560  14.002   9.207  13.972 -0.0452  0.1286  0.3807
14714W        W31561   5.732  12.468  13.861 -0.1947 -0.0567  0.0203
14715W        W31562  15.748  16.717   4.002 -0.1027 -0.0874 -0.1471
14716W        W31563   4.385  18.354   1.612  0.0019 -0.0390 -0.0630
14717W        W31564   7.816  11.880  12.679  0.3115  0.0681 -0.0946
14718W        W31565   4.770   9.033   2.922 -0.3104 -0.2952  0.0775
14719W        W31566  13.101   2.783   0.930 -0.0473 -0.0575  0.1337
14720W        W31567   9.081   7.545  12.724 -0.2458 -0.2416  0.0787
14721W        W31568  10.568  16.374   1.872 -0.0197 -0.3250 -0.0548
14722W        W31569  10.275  10.988   0.894  0.0224 -0.0181 -0.3134
14723W        W31570  18.393  16.634  12.975 -0.3715  0.1620 -0.0793
14724W        W31571   2.977  14.266  14.906 -0.1257  0.1936  0.2872
14725W        W31572   9.867  13.204  14.547  0.3492 -0.0984  0.0014
14726W        W31573   8.150  12.295   0.572 -0.0152 -0.2534  0.1965
14727W        W31574   0.066  13.383  12.342 -0.3108 -0.2059  0.0055
14728W        W31575  10.474   0.288  14.826 -0.1225 -0.1023 -0.0318
14729W        W31576  15.572   0.878   4.480 -0.0219 -0.1965  0.0322
14730W        W31577   8.248  14.375   1.459  0.1205 -0.0359  0.2892
14731W        W31578   5.354   6.365   1.359 -0.4751 -0.0532 -0.0767
14732W        W31579  12.888  15.586  13.995 -0.0617  0.0173 -0.1315
14733W        W31580   8.561   5.458  11.319 -0.1347  0.0910  0.1684
14734W        W31581   5.612   9.238  11.773 -0.0793 -0.0057 -0.3024
14735W        W31582  10.343   6.278  11.798  0.1229  0.0800  0.0829
14736W        W31583   5.878   9.444   4.722 -0.0713  0.0599 -0.1391
14737W        W31584   9.298   3.322  12.092  0.1913 -0.0848  0.2057
14738W        W31585   1.144  14.452  12.372  0.0702 -0.3276  0.0400
14739W        W31586  14.626   9.288  13.241 -0.1760 -0.0564 -0.2391
14740W        W31587  13.727   8.854   4.525  0.1382  0.0707  0.2216
14741W        W31588   5.549  12.733   4.426  0.0993  0.0029  0.0510
14742W        W31589   1.733  16.152   2.388  0.2232  0.2660 -0.0672
14743W        W31590  16.953   5.178  12.351  0.0737 -0.5744  0.2409
14744W        W31591  12.906   0.675  13.880  0.1869 -0.0856  0.0869
14745W        W31592   3.148   7.619   0.813  0.1183 -0.3416  0.1493
14746W        W31593  18.297   1.892  14.270  0.1750 -0.1043 -0.1708
14747W        W31594  16.424  11.753   4.858  0.0646 -0.2076 -0.1399
14748W        W31595   1.001  10.894   2.788 -0.0249  0.2386  0.2595
14749W        W31596  12.617   2.892   5.820  0.0569 -0.3814  0.3637
14750W        W31597   8.159  11.866  15.968 -0.0086  0.0964 -0.1382
14751W        W31598   5.559  17.480   6.335 -0.0411  0.0201  0.1072
14752W        W31599  17.010  14.058   1.249  0.1548  0.1634 -0.1018
14753W        W31600   4.325   7.689   1.721 -0.0384 -0.3106 -0.0798
14754W        W31601  10.916   7.602  11.992 -0.2961  0.0755  0.1412
14755W        W31602   9.237  13.360   0.048 -0.2876 -0.0378  0.0992
14756W        W31603   7.715  15.816   1.884 -0.0879 -0.1344  0.1019
14757W        W31604  16.958  13.801  13.674  0.0912  0.0576 -0.1169
14758W        W31605  11.481  12.439   3.479 -0.0249 -0.0341 -0.0306
14759W        W31606   3.819   6.010  12.373  0.0075 -0.1650  0.1557
14760W        W31607   4.057   0.061  11.495 -0.4609 -0.2740 -0.0550
14761W        W31608  11.947   1.693  12.486 -0.2142 -0.0620 -0.2220
14762W        W31609   0.459  13.150  14.842  0.5778  0.0582 -0.0345
14763W        W31610  10.051   9.825   0.659 -0.1166  0.2514 -0.1496
14764W        W31611   6.809   9.380   4.428  0.0143  0.2203 -0.1851
14765W        W31612   7.805  13.016   2.754  0.0450  0.1206 -0.0603
14766W        W31613   4.172   3.088   4.275  0.0698  0.1137  0.0539
14767W        W31614  14.434  17.053   3.757 -0.1770 -0.0646  0.3926
14768W        W31615   4.576   8.751   0.380 -0.0265 -0.0283 -0.0350
14769W        W31616  14.981   6.308   0.191  0.2347 -0.0747 -0.1494
14770W        W31617  14.012   0.699  14.264  0.1880 -0.1538 -0.0486
14771W        W31618   4.547   7.207   1.535  0.0033  0.0905  0.0230
14772W        W31619   6.966   3.904   1.997 -0.1746 -0.1251 -0.0479
14773W        W31620   5.555   8.595   5.002  0.0991 -0.2634  0.0230
14774W        W31621  14.921   5.048   1.909  0.0203 -0.1656 -0.0196
14775W        W31622   7.051  15.380  13.972  0.0984 -0.0807  0.1553
14776W        W31623  15.236   8.448   0.692  0.3578 -0.0548 -0.0963
14777W        W31624  16.790   0.488   2.814  0.3009  0.0410  0.2435
14778W        W31625  16.951  12.934  15.580  0.2485 -0.2055  0.0578
14779W        W31626   6.807  13.345  15.761  0.1333  0.0279  0.2600
14780W        W31627   0.277   4.619   3.808 -0.0882 -0.1898  0.0742
14781W        W31628   0.272  12.430  15.158  0.4294  0.2190 -0.1247
14782W        W31629   7.329   7.595   2.017 -0.2758  0.2357 -0.0529
14783W        W31630  13.504   3.591   0.448  0.1015  0.4551 -0.0656
14784W        W31631  13.212  10.482   4.202 -0.0355 -0.0250  0.1394
14785W        W31632  16.875  11.986   2.377 -0.0273 -0.0429 -0.0784
14786W        W31633   0.026  17.520  15.758  0.1213  0.1170  0.3999
14787W        W31634  15.046   1.621  14.724  0.0326  0.0504 -0.1002
14788W        W31635   1.689   2.769   4.667 -0.0327  0.2612 -0.0374
14789W        W31636  16.769   3.417  12.440  0.3801 -0.0262 -0.0314
14790W        W31637   1.382  10.201  14.386  0.4489  0.1218 -0.1017
14791W        W31638   4.417  17.662   3.457 -0.0981 -0.0141 -0.0361
14792W        W31639   9.986  15.739   4.561  0.2751  0.1219  0.0912
14793W        W31640   1.308  17.146   0.082  0.0775 -0.3272 -0.5162
14794W        W31641   4.756   5.227   2.580  0.1295 -0.0215  0.0006
14795W        W31642  12.047   8.305  11.208  0.0585 -0.1834 -0.1103
14796W        W31643  17.471   8.757  11.923  0.0162 -0.2580 -0.2212
14797W        W31644   6.467   1.634  13.438  0.1486 -0.3152 -0.0004
14798W        W31645   0.767   9.068   1.094  0.0466 -0.0894  0.1799
14799W        W31646   5.982  16.222   4.718  0.0245  0.0712  0.4888
14800W        W31647  17.830   6.526   3.035  0.1653  0.1704  0.0325
14801W        W31648   6.103   3.151   0.665 -0.3361  0.2699  0.1493
14802W        W31649   7.749  14.375   0.649 -0.0932 -0.1063  0.2612
14803W        W31650   7.423  15.436   4.672  0.0936 -0.2784 -0.1472
14804W        W31651  11.831  15.238  13.327  0.4478  0.0462  0.0321
14805W        W31652  18.260   0.432  15.433 -0.0576 -0.1629 -0.1509
14806W        W31653   3.629  17.561  14.038  0.0334  0.1586 -0.1028
14807W        W31654   6.417   8.440  12.558  0.1081  0.0853  0.0399
14808W        W31655   2.862   3.930   1.008 -0.1361 -0.0290 -0.0272
14809W        W31656  14.408   1.897   4.158 -0.1719 -0.2257 -0.2478
14810W        W31657   4.744   9.911   4.070 -0.1698  0.2578 -0.1750
14811W        W31658  12.080   6.052  13.983 -0.3328  0.2890 -0.1933
14812W        W31659   1.493  14.248   1.258 -0.0401  0.0726  0.0734
14813W        W31660  13.006  12.215  13.085 -0.1139 -0.0668  0.0580
14814W        W31661   3.595  11.835   3.750  0.1971 -0.3196  0.2752
14815W        W31662   1.230   6.778   1.942  0.2293  0.4209 -0.0177
14816W        W31663   0.430   0.613   2.252 -0.0331 -0.0096 -0.0955
14817W        W31664   8.227  13.759  13.692  0.1285  0.3165 -0.1433
14818W        W31665   6.562   6.423  15.468  0.1484  0.0334  0.2421
14819W        W31666   9.154   0.477  14.193 -0.0401 -0.0949  0.1080
14820W        W31667  16.259  10.601  11.665 -0.0822  0.1431  0.2475
14821W        W31668   4.119  10.293   3.581  0.2149  0.1182  0.0430
14822W        W31669  11.098  15.319  12.068  0.0888  0.2803  0.1094
14823W        W31670   1.707   2.476   1.541 -0.3235  0.1251 -0.0572
14824W        W31671  16.036  11.482   6.033 -0.0553 -0.0884 -0.0257
14825W        W31672   6.453  17.270   4.186 -0.0081  0.6701 -0.2281
14826W        W31673   1.196  11.661  15.773 -0.0822  0.2700  0.1238
14827W        W31674   8.338   1.648   4.147  0.2042 -0.2806 -0.0745
14828W        W31675   7.830  15.610   3.311  0.1239 -0.2018 -0.0766
14829W        W31676   9.254  10.735  13.619 -0.3207 -0.0735  0.2319
14830W        W31677   6.296   7.666   2.293  0.1358  0.0609 -0.4462
14831W        W31678  13.924   8.597  12.748  0.1971 -0.2050 -0.2580
14832W        W31679   2.503  17.993  14.006 -0.3669 -0.0031  0.0998
14833W        W31680   4.990  14.301   4.226 -0.0776 -0.0341  0.1382
14834W        W31681   1.081  12.068  14.004 -0.0173 -0.0782 -0.0865
14835W        W31682  16.449  10.169  11.841 -0.0179  0.0855 -0.0555
14836W        W31683  13.384  15.074   2.344  0.0217  0.0453 -0.1346
14837W        W31684   8.012  16.101   3.417  0.2299 -0.2678 -0.1028
14838W        W31685   0.015   4.830  16.132  0.0616  0.1489 -0.1646
14839W        W31686  15.006   7.084   0.109 -0.0009  0.2592 -0.4280
14840W        W31687   8.760   4.983  13.216 -0.1196  0.2467 -0.2477
14841W        W31688   5.808   8.102  14.023  0.2743 -0.0432 -0.2119
14842W        W31689   7.117  13.082  13.839 -0.2661 -0.0432 -0.0454
14843W        W31690  15.119   6.814  13.167 -0.1032  0.3395  0.2419
14844W        W31691  18.331  16.294   2.590  0.2317  0.3193  0.2056
14845W        W31692   3.948   1.198  13.208  0.3612 -0.2124  0.1518
14846W        W31693   5.104   6.066  13.313 -0.0621  0.1367  0.3334
14847W        W31694   3.330   5.028  14.450  0.1953 -0.1552 -0.2795
14848W        W31695  18.327  15.013  12.684 -0.0846 -0.0719  0.1693
14849W        W31696   3.887  10.628   1.384 -0.1342 -0.3278  0.4363
14850W        W31697   2.768   8.130  11.846 -0.0898 -0.2742 -0.1416
14851W        W31698   7.636   8.164  15.498 -0.3675  0.1379 -0.1665
14852W        W31699  15.517   8.881   0.004  0.1406 -0.1132  0.1590
14853W        W31700   9.588   5.267   3.285 -0.0806 -0.0065 -0.3586
14854W        W31701   9.924  10.936  13.252 -0.0723  0.0051 -0.1409
14855W        W31702   3.913  11.202  12.678 -0.1926  0.0261 -0.1669
14856W        W31703  14.604   0.535   4.815  0.0751 -0.2380 -0.0187
14857W        W31704   5.120   5.963  14.308  0.1604 -0.0064  0.1822
14858W        W31705  15.740   0.434  15.492 -0.1151  0.3030  0.0184
14859W        W31706  12.375   2.097   6.109  0.0941  0.0179  0.0328
14860W        W31707  13.786   5.879  12.739 -0.1968 -0.0644  0.0717
14861W        W31708  12.597  13.690   1.061  0.2260  0.4530  0.2025
14862W        W31709   2.605   6.163  13.707  0.0687  0.3164  0.1219
14863W        W31710  11.322   7.279  14.710 -0.3322 -0.1428  0.0438
14864W        W31711  11.941  12.810   5.008  0.1048 -0.2735  0.0306
14865W        W31712   8.267  10.393  14.578 -0.2799 -0.1447 -0.1469
14866W        W31713   9.113  11.003   3.522 -0.2961 -0.2978  0.0907
14867W        W31714  14.994   2.228  12.848 -0.2572 -0.1481  0.1344
14868W        W31715   7.214   0.851  15.707  0.2058 -0.0618  0.0848
14869W        W31716   1.900   1.074   0.149 -0.0792  0.1746 -0.2913
14870W        W31717   1.853   0.170   1.507 -0.1977 -0.0498  0.0905
14871W        W31718  10.970  11.199   6.040  0.2363 -0.2782 -0.3423
14872W        W31719   2.986   4.522  12.669  0.1420 -0.1786 -0.3805
14873W        W31720   5.926  18.392  14.552  0.2023 -0.1148  0.1262
14874W        W31721   6.811   6.856  11.715  0.2726 -0.1467 -0.2231
14875W        W31722   6.490   6.898  14.638  0.1677 -0.2634 -0.0804
14876W        W31723   8.563   0.893  15.896 -0.1420 -0.0645  0.1043
14877W        W31724  16.255  17.014  11.511  0.0206  0.0763  0.0069
14878W        W31725  15.633  18.362  13.761 -0.1460 -0.0949  0.0467
14879W        W31726   0.192   8.294  11.451 -0.1420 -0.0080  0.3221
14880W        W31727   1.430   5.037   2.140  0.1281 -0.1845  0.2757
14881W        W31728  10.691  10.436  14.324  0.0471 -0.1262  0.0992
14882W        W31729  11.261  16.754   1.567  0.2460 -0.2159  0.1693
14883W        W31730   5.078   3.991   2.845 -0.2461  0.2658 -0.2610
14884W        W31731  15.544  13.027   5.494 -0.1031  0.2909  0.1516
14885W        W31732  14.172  14.796   1.295  0.0333 -0.3212  0.0174
14886W        W31733  11.459   4.345   3.445 -0.2072 -0.1212 -0.0567
14887W        W31734  17.477  18.198   3.217  0.1611  0.0890  0.1802
14888W        W31735  13.396   9.237  12.707  0.1826 -0.1133  0.1135
14889W        W31736  16.783  10.373  13.138  0.0073 -0.2207 -0.1849
14890W        W31737  14.096   8.655   3.704 -0.2821 -0.0685 -0.1412
14891W        W31738   1.622   6.003  10.897 -0.3719  0.1565 -0.0043
14892W        W31739  13.419  11.853   5.832  0.0688  0.4308  0.0433
14893W        W31740  16.003  10.814   4.654 -0.0090  0.0750  0.2080
14894W        W31741   4.885  17.194  12.152  0.0930 -0.1072  0.0715
14895W        W31742  10.484   9.026   0.376 -0.0897  0.0575 -0.0574
14896W        W31743   5.511   9.433   5.104 -0.3563  0.0491  0.0367
14897W        W31744   3.383   1.732  14.003  0.3338 -0.0771 -0.0695
14898W        W31745  10.377   9.111   2.820 -0.0092  0.3171  0.0844
14899W        W31746  18.234  14.751  15.895  0.1107 -0.0230 -0.0881
14900W        W31747   8.458  11.537  11.783 -0.0824  0.0232  0.0029
14901W        W31748  14.997   2.956   4.784 -0.1872  0.0343 -0.2967
14902W        W31749  13.783  12.941  15.184  0.4059  0.0145 -0.1691
14903W        W31750   0.808  14.361   2.222  0.2538 -0.1961 -0.1779
14904W        W31751   4.993  18.128  16.356 -0.0320 -0.0544  0.0226
14905W        W31752   5.909   7.478  12.842  0.0084  0.0776 -0.2476
14906W        W31753  15.916  12.302   5.271 -0.0008  0.2033 -0.3977
14907W        W31754   9.272  15.825  12.842 -0.0856 -0.1446  0.0670
14908W        W31755   5.712   7.494   0.946  0.1641 -0.1311  0.1637
14909W        W31756  16.959  17.624   2.926  0.1246  0.0747 -0.0401
14910W        W31757  17.330  14.353  15.420 -0.4299 -0.0604  0.2435
14911W        W31758   0.001  10.935   6.177  0.4453 -0.0235  0.1361
14912W        W31759  13.046   7.215   2.719  0.1395  0.1162  0.1664
14913W        W31760   2.021  12.376   1.758  0.0961  0.1249  0.2840
14914W        W31761   2.208   4.309   3.749 -0.1084  0.1360  0.0586
14915W        W31762  13.058   8.670   5.105  0.1865  0.0950 -0.1154
14916W        W31763  11.992  10.395   1.554 -0.2431  0.0749 -0.2265
14917W        W31764  11.519   0.691   2.091  0.2229 -0.3097 -0.3052
14918W        W31765   4.054  14.132   5.110 -0.2549  0.0209 -0.0093
14919W        W31766  16.521   5.918  15.358 -0.1594  0.2464  0.0292
14920W        W31767   5.953  12.483  13.394  0.0613 -0.1150 -0.0355
14921W        W31768   2.886  13.406   2.389  0.1010 -0.1755 -0.1370
14922W        W31769   0.175  16.449   4.999 -0.0555  0.1611 -0.1436
14923W        W31770  17.029  12.154  15.036 -0.1375 -0.0549  0.0006
14924W        W31771  11.849  17.067   0.924  0.0450 -0.1654 -0.0207
14925W        W31772  13.362  14.052  15.338 -0.0585  0.1104 -0.0722
14926W        W31773  13.455  16.112   4.709  0.5467  0.2278 -0.0297
14927W        W31774  17.400  17.804  14.340  0.1831  0.1633  0.0050
14928W        W31775   7.299  14.072   0.901 -0.1095  0.0079 -0.2114
14929W        W31776   2.658  12.434   2.939  0.1542  0.2097 -0.1980
14930W        W31777  13.088   0.835   5.889  0.0264 -0.0443 -0.0569
14931W        W31778  12.597   8.092  12.868 -0.3020  0.4368  0.3309
14932W        W31779  13.126  11.470   3.856  0.0801 -0.0358  0.0294
14933W        W31780   5.608  12.782  15.623 -0.1438  0.2474  0.0649
14934W        W31781  14.334  17.180  13.310 -0.1797  0.0109  0.0243
14935W        W31782  10.074  14.840  13.518  0.0457  0.1957  0.1910
14936W        W31783  16.521  10.604   4.899 -0.0589  0.0395  0.0537
14937W        W31784   3.251  16.438  15.675 -0.1151  0.1712  0.0720
14938W        W31785  16.861   8.717   3.456  0.3204  0.3264 -0.0004
14939W        W31786  17.071   9.834  10.955  0.2462 -0.0282 -0.1954
14940W        W31787  11.921   7.977  15.617  0.4013  0.4239  0.0343
14941W        W31788  10.089  12.049  12.480  0.0515  0.3073 -0.0042
14942W        W31789   3.903  13.284   4.644 -0.1444 -0.0913 -0.0309
14943W        W31790  18.115  15.268  11.171 -0.0411  0.2689 -0.0134
14944W        W31791  16.581  13.226   1.647 -0.0519 -0.0616 -0.1319
14945W        W31792  11.132   4.038   3.691  0.1909  0.1656  0.1465
14946W        W31793   1.813  16.888  14.707 -0.0642  0.1827  0.0007
14947W        W31794   4.500   7.103   2.176 -0.1372 -0.0575  0.1193
14948W        W31795   3.585  14.477   4.210  0.1342  0.0280 -0.0934
14949W        W31796   9.063  17.759   3.883  0.3845 -0.2590  0.1367
14950W        W31797  17.579  13.479   1.873 -0.0162 -0.0958  0.1356
14951W        W31798   7.412   8.005  11.636  0.1363 -0.1421 -0.2039
14952W        W31799   3.188   2.763  11.219  0.0580  0.3012  0.0431
14953W        W31800   8.459  14.914  13.668  0.1462  0.2394 -0.0151
14954W        W31801  13.158  13.800  11.711  0.2076 -0.1046  0.0940
14955W        W31802  16.222  14.007   4.307 -0.1438 -0.0867  0.1084
14956W        W31803   8.474  17.882  12.042  0.0545 -0.0830 -0.0291
14957W        W31804  17.046   1.951  11.810 -0.1482  0.2127  0.1566
14958W        W31805   3.316  13.760   2.879  0.3015  0.0433  0.2572
14959W        W31806   5.034  16.263   4.959  0.1900  0.1319 -0.2368
14960W        W31807  16.460  12.507  16.015  0.2381 -0.0794  0.1477
14961W        W31808   0.347  12.055  15.448 -0.0217  0.0415 -0.0225
14962W        W31809   7.115   7.333   4.212 -0.0347 -0.1528  0.0064
14963W        W31810   3.335  15.265  13.816 -0.1690  0.0282 -0.0780
14964W        W31811   7.603  17.660   3.380 -0.3147  0.1172 -0.0643
14965W        W31812   5.922  12.391  15.738 -0.0883 -0.1049  0.0398
14966W        W31813   0.237   5.058   2.282 -0.1604 -0.3892 -0.1430
14967W        W31814   7.308   4.286  11.597 -0.3843  0.2871 -0.0831
14968W        W31815  17.572  14.006  12.118 -0.0571 -0.2509  0.2824
14969W        W31816  16.800   3.241   3.930  0.6010  0.1681  0.1863
14970W        W31817  17.967  15.870  15.253  0.2784 -0.0889  0.1802
14971W        W31818  10.503  12.095  12.238 -0.1033 -0.0488 -0.3564
14972W        W31819   3.844  18.329   3.944  0.0339  0.2478 -0.1795
14973W        W31820   0.259  16.840  15.313 -0.1869 -0.2783  0.0240
14974W        W31821   5.659   9.831   1.289 -0.0369  0.1050 -0.1617
14975W        W31822   5.694  11.418   2.374 -0.2514  0.0931 -0.3999
14976W        W31823  12.940   3.102  12.957 -0.1335  0.3145  0.2562
14977W        W31824   0.843   1.409  10.096  0.2465  0.0549 -0.0040
14978W        W31825  15.520  17.368  12.145  0.0413  0.2065 -0.4559
14979W        W31826  13.621  18.412  13.484  0.2431 -0.3114 -0.0354
14980W        W31827  17.914  14.771  13.158  0.1237  0.1083  0.2147
14981W        W31828   6.929  17.556   5.553  0.1808 -0.1658 -0.1487
14982W        W31829  16.274   7.661   4.723  0.0026  0.0629  0.1437
14983W        W31830  11.397   4.214  15.422  0.0515 -0.2005 -0.1055
14984W        W31831   1.779  12.557  12.429 -0.0256  0.1221  0.0011
14985W        W31832  13.097  17.758  11.391  0.0661  0.0593  0.2792
14986W        W31833  15.856  18.137  12.210 -0.0087  0.0213 -0.2989
14987W        W31834  10.765  11.822  10.856 -0.2836  0.1895 -0.1954
14988W        W31835   7.961   8.823  12.776  0.1242 -0.0040  0.0402
14989W        W31836   0.409   3.539  15.528  0.1945  0.1406 -0.3393
14990W        W31837  10.354   4.267   3.190 -0.0719 -0.0535 -0.4615
14991W        W31838  15.272  17.769  12.100  0.2350  0.0857  0.0788
14992W        W31839  13.965   9.593  11.913  0.1474  0.1438  0.0203
14993W        W31840   3.328   4.951  12.256  0.0074 -0.2651 -0.1415
14994W        W31841   4.257   8.386   0.003  0.2368 -0.2576 -0.1608
14995W        W31842  13.604   6.570  11.070 -0.0421 -0.1226 -0.2872
14996W        W31843   3.072   5.481  14.199  0.0937 -0.4385 -0.0161
14997W        W31844   6.132  11.986   3.132  0.2721  0.0366  0.2609
14998W        W31845  13.412   2.800  10.675  0.2309 -0.0074 -0.2002
14999W        W31846  18.038   0.389  12.661 -0.0219 -0.0492 -0.0034
15000W        W31847   5.764   1.817   3.145  0.2517 -0.0175 -0.0505
15001W        W31848   7.548  15.269   6.236  0.0579  0.3128  0.1256
15002W        W31849  13.629  13.489  12.138 -0.0497  0.0386  0.0832
15003W        W31850   9.377  15.006   6.101  0.0149  0.0034 -0.0138
15004W        W31851   7.459   4.952  15.476 -0.2440  0.1557 -0.6756
15005W        W31852  12.748  12.585  12.860 -0.1079  0.0458 -0.4532
15006W        W31853   7.415   7.753   0.071 -0.2611  0.0395 -0.2880
15007W        W31854   0.891  17.554   3.955 -0.1586 -0.1901 -0.1286
15008W        W31855   6.167   5.495  10.866  0.0800  0.0506  0.1461
15009W        W31856  12.510  13.811   4.105  0.0289 -0.1208  0.2327
15010W        W31857   1.445   5.480   1.213  0.2463 -0.0237 -0.1583
15011W        W31858   0.608   6.297   4.449  0.4157 -0.1297  0.0195
15012W        W31859  17.451   8.948  16.339  0.2822  0.3641  0.0649
15013W        W31860   1.986   5.881  12.140 -0.1600  0.2584  0.2001
15014W        W31861  14.984  16.903   1.412  0.1645 -0.2514 -0.0133
15015W        W31862   1.354  11.188   2.552 -0.0398  0.1843  0.0328
15016W        W31863   3.579  12.635  11.726  0.0476  0.3076 -0.2818
15017W        W31864   2.101   9.135   0.991 -0.1131  0.2370 -0.0226
15018W        W31865   3.367  10.291  12.506 -0.3430 -0.1954 -0.1830
15019W        W31866  12.809   1.857   6.052  0.0902 -0.2308 -0.0264
15020W        W31867   8.312   1.938   1.288 -0.3293  0.0852  0.0575
15021W        W31868   6.376  12.717   3.793  0.0326 -0.0426 -0.0494
15022W        W31869  10.396  17.649   1.449  0.0094  0.1335 -0.2176
15023W        W31870  17.237  17.588   0.496  0.0450 -0.2997 -0.1513
15024W        W31871  13.210   3.328  14.046  0.0323  0.1393 -0.2900
15025W        W31872  11.699  10.779   1.628 -0.1937 -0.2942 -0.1644
15026W        W31873  12.890   4.320  14.319 -0.2761 -0.2555 -0.1138
15027W        W31874  14.222  13.904  15.656  0.3484 -0.0426 -0.0891
15028W        W31875  12.447   9.625  14.743 -0.0003 -0.0820  0.1040
15029W        W31876  16.314   6.346  12.921  0.1321 -0.1651  0.2456
15030W        W31877  14.888  10.507  10.731 -0.0576 -0.3271  0.0643
15031W        W31878  10.938  11.683  15.098 -0.1456 -0.1616  0.2875
15032W        W31879   3.834   0.667   5.497  0.1244  0.3648 -0.0975
15033W        W31880   7.057  12.054  14.384  0.4543  0.3522 -0.0415
15034W        W31881   8.055   4.953   2.920 -0.0313  0.2716 -0.0154
15035W        W31882  11.644   7.025   4.495  0.0666 -0.0626 -0.1602
15036W        W31883   1.656  11.758  12.162 -0.2927  0.0517  0.2104
15037W        W31884   3.201   2.736  12.936 -0.1830  0.0319 -0.2771
15038W        W31885  15.954   3.085  11.163  0.1505 -0.0024  0.0421
15039W        W31886   3.368  11.654  14.089  0.0249 -0.2726  0.0123
15040W        W31887   3.110  11.952   4.892  0.0217  0.0481 -0.0684
15041W        W31888  14.387   6.251  14.986 -0.0611  0.0886  0.0208
15042W        W31889   9.439  13.398   5.062 -0.0515  0.1366  0.3327
15043W        W31890   5.903   6.881   5.165  0.0473 -0.1252 -0.1926
15044W        W31891  11.672  18.329   2.656  0.1712  0.2283  0.0103
15045W        W31892  11.919   8.142   4.698 -0.2018 -0.0430 -0.0794
15046W        W31893  14.363   1.071   4.787  0.0691 -0.2920  0.0106
15047W        W31894   2.259  15.639  13.991 -0.1108 -0.1846 -0.0592
15048W        W31895  17.302   5.894   0.699  0.1844 -0.2641 -0.0463
15049W        W31896   4.425   0.996  11.212  0.0873  0.3445 -0.3029
15050W        W31897  16.130   1.434  15.865 -0.1324 -0.2840 -0.1002
15051W        W31898  13.508   3.419  12.305  0.1618  0.0010  0.1275
15052W        W31899   5.688   6.502   0.915  0.1027  0.0402  0.1412
15053W        W31900  17.116   4.942   2.808 -0.1161 -0.0929 -0.3854
15054W        W31901   4.947   0.849  10.884 -0.2071  0.0948  0.0145
15055W        W31902   2.931  16.867   3.445  0.0246  0.0914  0.2854
15056W        W31903  12.539   3.035  13.221  0.0869  0.0743 -0.1151
15057W        W31904  17.111  16.458  14.469  0.2882 -0.0816 -0.0426
15058W        W31905  16.151   3.996   3.396  0.1197 -0.3137 -0.0948
15059W        W31906   3.250   9.303  15.332 -0.0734  0.0761  0.1144
15060W        W31907   7.437  11.279   3.652 -0.0473 -0.0253  0.2555
15061W        W31908   1.144   2.621  13.304 -0.4044 -0.0606  0.3226
15062W        W31909  17.299  14.022   1.656  0.0946 -0.0645  0.0664
15063W        W31910   7.722  11.624   1.379 -0.0907 -0.0008  0.0321
15064W        W31911   6.328   3.450   1.350  0.1788 -0.1431  0.1306
15065W        W31912  15.834   9.543   0.294 -0.2348  0.0157  0.0247
15066W        W31913   5.732   3.850  15.352  0.0862 -0.0540  0.1633
15067W        W31914   4.252  12.629  14.240  0.2312 -0.2038 -0.0645
15068W        W31915   9.832  16.710   4.207 -0.0365  0.0036 -0.1350
15069W        W31916   3.530   4.395   0.691  0.2098  0.1939  0.1736
15070W        W31917   0.291   2.535   2.541 -0.0881 -0.0412 -0.0347
15071W        W31918   1.891   5.762  12.814 -0.2138  0.1109  0.4885
15072W        W31919   2.134  14.753  13.685  0.0825 -0.0867  0.2788
15073W        W31920  11.258   4.482   1.466 -0.5523  0.1899  0.0916
15074W        W31921   4.147  10.826  14.004  0.2617  0.0379 -0.0609
15075W        W31922  14.146  13.380   2.362 -0.2157  0.2881  0.0673
15076W        W31923   2.856  17.491  13.303  0.0750 -0.1162  0.2206
15077W        W31924   1.041  10.286   1.403 -0.0526  0.0278  0.0542
15078W        W31925  15.215  13.382   5.278 -0.2070 -0.0084 -0.0104
15079W        W31926  16.766   1.276   0.119  0.0171 -0.1220  0.0511
15080W        W31927   6.280   1.321   2.489  0.1088  0.3857 -0.0242
15081W        W31928   7.439   8.256  12.919 -0.1622 -0.0486  0.1415
15082W        W31929   0.840  10.653  13.877 -0.0199 -0.0023  0.4675
15083W        W31930   4.262   7.080   3.977 -0.2242  0.0223  0.0182
15084W        W31931   5.366   8.037   3.703  0.0877  0.3304  0.1449
15085W        W31932  16.169   7.902   3.002 -0.0649 -0.1378 -0.2039
15086W        W31933   1.518  17.788  11.540 -0.0966  0.0508 -0.1134
15087W        W31934   6.914   8.817   4.233 -0.0762  0.1768  0.3335
15088W        W31935   7.279   1.425   5.583 -0.2372  0.1502 -0.0281
15089W        W31936  14.226  10.284   4.506 -0.3708  0.3548  0.5507
15090W        W31937   5.217   8.731   0.183 -0.0952 -0.2436  0.0603
15091W        W31938  11.200  16.408   1.091 -0.0533 -0.0854 -0.1412
15092W        W31939   9.742  14.974   1.299  0.0464  0.0290 -0.0122
15093W        W31940   3.437   5.499  13.620 -0.1474  0.1176  0.0463
15094W        W31941   3.649   7.165  14.360 -0.1269  0.0058  0.2080
15095W        W31942   6.662   6.467   0.946 -0.0599 -0.0417  0.0432
15096W        W31943  11.155  18.075   0.024 -0.1514 -0.0113 -0.2169
15097W        W31944   0.973   3.086   4.184 -0.0543 -0.0882 -0.2052
15098W        W31945  16.452   3.797   2.381  0.1076 -0.4150 -0.0416
15099W        W31946   6.682  11.174   2.597  0.0480  0.3138  0.1966
15100W        W31947  15.988  14.739  14.005  0.0789  0.0958 -0.1435
15101W        W31948   2.193   5.887   4.054 -0.0432  0.3942  0.1428
15102W        W31949   7.577   1.391   6.361 -0.3249 -0.3051  0.0529
15103W        W31950   0.592  11.791   5.806 -0.0796  0.1250 -0.1245
15104W        W31951   7.885  11.892  14.126 -0.0764 -0.0837 -0.0589
15105W        W31952  10.113   4.751  13.312  0.2037  0.0498  0.0403
15106W        W31953   2.707   2.816   1.605 -0.2694 -0.0266  0.3289
15107W        W31954   9.024   2.554  16.143 -0.3211  0.1064 -0.1721
15108W        W31955   8.696  12.223   3.000 -0.2533  0.1419  0.0379
15109W        W31956  13.689  17.097   0.088 -0.0183 -0.1421  0.1578
15110W        W31957   7.987  17.438   1.913 -0.0545 -0.2517  0.0805
15111W        W31958  15.169   7.788   1.634  0.2404  0.2098  0.2552
15112W        W31959   2.152   7.412  13.009  0.0857 -0.0822 -0.0425
15113W        W31960   1.019   9.757   5.398  0.3276 -0.2409  0.0886
15114W        W31961   5.912  16.702   1.717  0.3588  0.1924  0.0146
15115W        W31962  17.436  18.372  12.997  0.1087  0.0873  0.1222
15116W        W31963   6.207  14.821   5.409  0.0439 -0.2002 -0.1501
15117W        W31964   1.432   0.979   5.589  0.0281 -0.2052 -0.0142
15118W        W31965   9.633  15.210   3.356  0.0073  0.1526  0.0279
15119W        W31966   7.961  12.958   2.263 -0.0729 -0.0437 -0.2027
15120W        W31967  10.012   5.317   5.194  0.2999  0.1654 -0.0056
15121W        W31968  14.244   2.081   4.629  0.1418 -0.1002  0.0037
15122W        W31969  14.022  12.011  12.930  0.1688 -0.0117 -0.0337
15123W        W31970  17.781  16.228   1.630  0.1486 -0.1738  0.0903
15124W        W31971   8.500   7.662   5.066 -0.0013 -0.4809  0.0706
15125W        W31972   2.883  15.458  13.665  0.2469 -0.1180 -0.0094
15126W        W31973  13.687   4.352   0.151  0.1882 -0.0068 -0.1997
15127W        W31974  10.126  17.167   2.108  0.0641 -0.2493  0.1712
15128W        W31975  15.318  11.761   5.651 -0.1132  0.2591  0.0452
15129W        W31976  11.453  16.358  11.585  0.0440 -0.0554  0.0656
15130W        W31977  11.638  10.502   0.146 -0.0602  0.0109  0.3034
15131W        W31978   3.836  14.487  11.800  0.2203  0.1172  0.3099
15132W        W31979  14.867   3.224   3.525  0.1507  0.0741 -0.1438
15133W        W31980   5.525  13.864  12.293  0.1208  0.0458 -0.3101
15134W        W31981   8.329   9.318  16.206  0.1050  0.4781 -0.1406
15135W        W31982   2.698  11.116  14.124  0.1469 -0.0007 -0.1886
15136W        W31983   3.813   7.703  12.924 -0.0831 -0.0372  0.1183
15137W        W31984  15.292   8.771  12.091 -0.1478  0.0275 -0.1596
15138W        W31985   0.262  14.225   2.156  0.1436  0.0700  0.0608
15139W        W31986  18.285  15.196  14.994  0.0103  0.4701  0.1787
15140W        W31987   2.203   4.341  11.549  0.1152 -0.3003 -0.1086
15141W        W31988  14.314  12.853   0.788  0.0554 -0.0827 -0.3342
15142W        W31989  10.491  10.075  14.010 -0.1285  0.0131  0.1414
15143W        W31990  10.452   7.704  13.107 -0.2474  0.1601  0.0026
15144W        W31991  15.374   7.534  16.275 -0.0876 -0.0833 -0.0423
15145W        W31992  16.601   3.933  16.115 -0.0908  0.0393 -0.0770
15146W        W31993   3.627  18.082   4.388 -0.2539 -0.2823  0.0683
15147W        W31994  15.068  10.067  12.892  0.0578  0.0603 -0.0039
15148W        W31995  11.995   7.230   0.822 -0.1138 -0.0772  0.0241
15149W        W31996   7.634   5.931   5.548 -0.1917 -0.0313 -0.0878
15150W        W31997   8.248   0.670  13.200 -0.1901 -0.0903 -0.2273
15151W        W31998   2.935   6.954  15.945 -0.0518  0.1229 -0.0580
15152W        W31999  10.007   7.529   1.381 -0.0583  0.1688 -0.1642
15153W        W32000   8.069  13.834  16.325  0.0037  0.1524  0.1502
15154W        W32001   5.740  11.927  14.026  0.1580 -0.0771 -0.0699
15155W        W32002   7.638   1.088   1.456 -0.0232  0.0724  0.3316
15156W        W32003  13.005  14.339   5.188  0.1920  0.2098 -0.0409
15157W        W32004   2.178   8.389   2.768  0.1526 -0.0131  0.0680
15158W        W32005   2.914  17.860  14.378  0.1313 -0.1600 -0.0671
15159W        W32006   3.000   4.170   4.099 -0.2122 -0.1782 -0.0731
15160W        W32007   0.022   5.134  14.377  0.1225 -0.0511 -0.3573
15161W        W32008  17.770  12.560  15.344  0.0636 -0.3647 -0.0377
15162W        W32009  14.177  15.468   5.654  0.0375 -0.0925 -0.1359
15163W        W32010   4.198   5.478   2.615 -0.2370 -0.2024  0.0125
15164W        W32011  16.864  12.462   1.074 -0.0345  0.0618  0.2571
15165W        W32012   2.111   6.078   1.578  0.0734 -0.1118 -0.0545
15166W        W32013  11.681   0.183  11.819  0.1300 -0.2791  0.0402
15167W        W32014  17.427  10.342   0.486  0.0713 -0.1294  0.0084
15168W        W32015   1.549  13.566   2.328  0.0080  0.1303  0.1121
15169W        W32016  18.379  13.187  11.728  0.1674  0.1498 -0.2945
15170W        W32017   3.835  10.238  12.312  0.2017 -0.0323  0.3472
15171W        W32018  12.195   0.485  13.318  0.1297 -0.1366 -0.2367
15172W        W32019  16.744   7.522  15.318 -0.0987  0.2710  0.0371
15173W        W32020  12.341   7.531   4.078 -0.0779  0.1894 -0.2554
15174W        W32021   1.739  14.636  15.583 -0.2429  0.1637  0.3019
15175W        W32022  15.647  16.025   5.916  0.1722  0.1256 -0.2315
15176W        W32023   7.125  16.832   3.702 -0.2007 -0.2697 -0.4722
15177W        W32024   4.439   1.296   3.708  0.0064 -0.0420  0.1336
15178W        W32025  12.023  10.280  15.277  0.0279 -0.0936  0.0921
15179W        W32026  14.618   1.809  15.689 -0.1755 -0.0241  0.1128
15180W        W32027  14.739   7.820   2.000 -0.3009 -0.0376  0.1611
15181W        W32028   1.032   5.345   2.405 -0.1715 -0.2106  0.2307
15182W        W32029   8.415   7.952   3.174  0.0972 -0.3541  0.0558
15183W        W32030  17.811   2.739   5.313  0.0738 -0.3247  0.2238
15184W        W32031   4.116   1.746  15.384 -0.0621  0.4377 -0.0170
15185W        W32032  11.508   3.203   3.321  0.4862  0.1795  0.2745
15186W        W32033  14.896  13.605   0.041  0.0256 -0.0611  0.1557
15187W        W32034  18.151  10.227  15.709 -0.2676 -0.0993 -0.0916
15188W        W32035  12.783   5.489   0.304  0.1443  0.0454  0.2718
15189W        W32036  16.449  12.993   3.552  0.0936  0.0941 -0.2103
15190W        W32037  15.382  11.213   2.018 -0.1865 -0.0858 -0.0142
15191W        W32038   2.411   2.545  12.243 -0.2727  0.1545 -0.0684
15192W        W32039  18.087  17.324   4.058 -0.1365  0.2598 -0.2961
15193W        W32040   9.379   8.026   0.268  0.1985 -0.0640  0.2018
15194W        W32041   2.731   1.313   5.390  0.1970 -0.0417  0.2347
15195W        W32042  13.703  16.209  15.402 -0.3532  0.2655  0.1213
15196W        W32043  13.230  14.706   1.422 -0.4515 -0.0958 -0.1266
15197W        W32044   1.720   1.670   0.680  0.0561  0.0618 -0.1192
15198W        W32045   3.152   5.174  13.782  0.3422 -0.0015 -0.0106
15199W        W32046   3.422   9.787  15.771 -0.2378  0.1171 -0.0947
15200W        W32047  16.526  12.169   3.629 -0.0192  0.1320  0.1617
15201W        W32048   1.966   4.591  11.189  0.0196  0.0262  0.4188
15202W        W32049   5.436   7.135   2.975 -0.2891 -0.0280 -0.0500
15203W        W32050   4.364   8.081   5.963  0.0353 -0.1230  0.2650
15204W        W32051  13.413  15.521  13.213  0.1370  0.1597 -0.2706
15205W        W32052   5.357  10.949  12.822  0.0834  0.1564 -0.0431
15206W        W32053   1.929  13.358  13.715 -0.0665  0.1482  0.1318
15207W        W32054  16.469   0.776  11.680  0.0373  0.2033 -0.0616
15208W        W32055  13.069  17.145  11.302  0.2954 -0.0069 -0.0392
15209W        W32056   7.859  10.777   3.243 -0.4173  0.2523 -0.2058
15210W        W32057   6.429  14.030  13.827 -0.0577  0.0893 -0.0980
15211W        W32058   1.444   5.859   9.673 -0.1300 -0.0411  0.2055
15212W        W32059   2.094   1.706   1.112  0.2034 -0.2482 -0.2834
15213W        W32060   7.260   3.625  12.191 -0.1556 -0.0442 -0.2634
15214W        W32061   8.446   6.286   1.430 -0.1489 -0.0236  0.0066
15215W        W32062  16.451  14.869  13.979 -0.0544  0.1865  0.0498
15216W        W32063   3.599  16.889   3.315 -0.1261 -0.0757 -0.1051
15217W        W32064   8.997  12.954  14.219  0.1904  0.0751 -0.0589
15218W        W32065  11.883   9.662  12.977 -0.1273  0.0948  0.2591
15219W        W32066   1.562   9.780  12.781  0.1240 -0.1040 -0.3428
15220W        W32067  13.199   6.137  11.846  0.2528  0.0772  0.2518
15221W        W32068   1.369   4.625   3.242  0.0413 -0.3611  0.3471
15222W        W32069  15.836  15.220   3.402  0.1185 -0.1018 -0.3406
15223W        W32070  12.190   6.788  14.284 -0.1919  0.0583 -0.0549
15224W        W32071  17.766  12.808   4.236  0.0242 -0.2704  0.0358
15225W        W32072   6.853  10.695   2.457 -0.0017  0.2276 -0.2890
15226W        W32073  12.242  14.841   3.739 -0.0595 -0.1679  0.0171
15227W        W32074   0.466  17.537   0.048 -0.2492 -0.1382 -0.1418
15228W        W32075   8.319  10.746   0.513  0.0712 -0.0739  0.3379
15229W        W32076   5.344  12.449   1.341  0.2317  0.0038  0.0332
15230W        W32077  13.639  16.019  13.745 -0.1254 -0.0341 -0.1766
15231W        W32078  17.863  11.349  15.386 -0.0790  0.0500 -0.0408
15232W        W32079  15.908   5.089   1.289 -0.2357  0.2580  0.1034
15233W        W32080   0.109   7.677   3.204 -0.0406  0.1546 -0.0289
15234W        W32081   5.801   5.642  11.660  0.1323 -0.3059 -0.1327
15235W        W32082  13.154   6.861  12.724  0.2939  0.2690 -0.0414
15236W        W32083   7.521  17.137  11.935 -0.0828  0.1726  0.0342
15237W        W32084   8.659   3.165  11.777 -0.2997 -0.1140  0.0367
15238W        W32085   4.788   5.529   0.005 -0.0244 -0.3397 -0.1863
15239W        W32086  18.283   6.460  13.103  0.1267  0.0380  0.0171
15240W        W32087   9.779   4.604   0.476 -0.0867  0.2167  0.1838
15241W        W32088  16.656   6.800   1.433 -0.1335  0.0153  0.1076
15242W        W32089   9.126   8.413  15.264 -0.1567  0.1636  0.0247
15243W        W32090  10.255  13.936  12.555  0.0775 -0.0297 -0.0832
15244W        W32091   8.194  11.462  12.686  0.1818  0.3332  0.2565
15245W        W32092  16.425   0.752   4.710  0.1129  0.2387  0.3183
15246W        W32093   0.951   3.211   3.646  0.0852 -0.0637  0.3879
15247W        W32094   3.497  10.106   5.026  0.0730  0.0551 -0.1463
15248W        W32095  11.178  10.774  16.190  0.2513 -0.1540 -0.2534
15249W        W32096  16.531   7.052  13.059 -0.0672 -0.0415 -0.2222
15250W        W32097   5.354  15.313   1.341 -0.3202  0.1251 -0.0685
15251W        W32098   8.115  10.158   2.770  0.0555  0.2171  0.0145
15252W        W32099  10.297   4.819   1.819 -0.1573 -0.0217  0.0815
15253W        W32100  15.272  13.166   6.163 -0.0662  0.1269  0.0095
15254W        W32101  12.330  11.565   1.171  0.0428 -0.0989 -0.2057
15255W        W32102   8.973   7.889   4.082 -0.5822 -0.4593  0.0056
15256W        W32103  15.656  16.276   2.999  0.0051 -0.0531 -0.0687
15257W        W32104  14.345  15.824   1.460 -0.1259  0.0136 -0.0890
15258W        W32105  16.410   7.021   0.454 -0.0137  0.0988 -0.0528
15259W        W32106  14.051  16.312  13.237  0.5122 -0.2102 -0.2610
15260W        W32107  15.072   4.198  16.252  0.3711 -0.2520 -0.0852
15261W        W32108  16.741   5.476   1.281 -0.1234 -0.0080  0.2384
15262W        W32109   5.012  11.794   4.940  0.1050 -0.1514  0.3310
15263W        W32110   4.722  16.187  15.381  0.1901  0.3184 -0.0168
15264W        W32111   9.088   1.142  12.511  0.2260 -0.2062 -0.0063
15265W        W32112   1.221  13.901   2.053 -0.0774  0.1356 -0.1793
15266W        W32113   5.400   9.661  13.846  0.1363 -0.0443 -0.1048
15267W        W32114   3.894   3.662   1.689 -0.1734 -0.1269 -0.2444
15268W        W32115   0.005   2.760   1.681  0.0142  0.4703  0.2954
15269W        W32116   6.817  12.663   4.085  0.0026  0.1976 -0.1322
15270W        W32117  17.945  12.264   3.078 -0.1813 -0.0699 -0.1257
15271W        W32118  15.728   8.283  14.368  0.1734  0.1704 -0.0242
15272W        W32119  13.846   4.458   0.630  0.5270 -0.0179  0.1223
15273W        W32120   0.117   6.867  13.096 -0.1996 -0.2271 -0.3583
15274W        W32121   4.038   1.183  14.795 -0.1632  0.0876 -0.1626
15275W        W32122  12.629   4.972   3.304  0.0701 -0.2703 -0.0984
15276W        W32123  17.776  17.548   3.746  0.1943  0.2518  0.0346
15277W        W32124  14.864  13.297  15.608  0.0900  0.1268 -0.0952
15278W        W32125   0.512  11.970   1.793  0.1012 -0.1428  0.2450
15279W        W32126  12.616  14.839   0.539  0.1844 -0.2600  0.0890
15280W        W32127   4.642  12.293  13.050  0.0016  0.0919 -0.1175
15281W        W32128   8.240  14.185   3.126  0.3664  0.2203 -0.1807
15282W        W32129   1.868   5.015   2.952 -0.0879  0.1646 -0.1504
15283W        W32130   1.152  15.381  13.635 -0.0804 -0.1094 -0.3115
15284W        W32131   3.074   3.613   0.109 -0.2889  0.0647 -0.3115
15285W        W32132  13.366  17.602  15.874 -0.0377  0.0713 -0.1194
15286W        W32133  11.207   2.049   1.400 -0.1441  0.0387  0.1623
15287W        W32134  12.261  11.419  13.041 -0.3592 -0.1890  0.1340
15288W        W32135  14.921   8.417   1.097 -0.0959  0.3647 -0.0731
15289W        W32136  15.426   7.611  15.719  0.2078  0.0373  0.0788
15290W        W32137   4.416   1.317  15.152 -0.2539 -0.0710 -0.0049
15291W        W32138   9.495   1.498   0.448 -0.0569 -0.4660 -0.4544
15292W        W32139  11.980   6.457   4.710 -0.0375  0.1086  0.2233
15293W        W32140   0.072   2.327  13.535 -0.2618  0.1838 -0.0069
15294W        W32141  11.198  17.062  13.966  0.0797  0.0265  0.0667
15295W        W32142   2.936   3.347   4.279  0.0382 -0.3567  0.0637
15296W        W32143  15.688   6.439   3.944  0.1762  0.3244 -0.3350
15297W        W32144   2.697  14.666  16.263  0.3661 -0.1975  0.1376
15298W        W32145  14.388   8.391   2.528 -0.0950  0.0280 -0.3200
15299W        W32146   5.926   4.173   3.459  0.1952 -0.0261  0.1847
15300W        W32147   9.719  11.711   5.026  0.0140 -0.1003 -0.0367
15301W        W32148  17.032  16.691   1.320  0.0199 -0.0262 -0.0252
15302W        W32149   2.035  13.076  15.598  0.1737 -0.2864  0.1217
15303W        W32150   1.820  15.118   3.128 -0.0102  0.2614  0.5063
15304W        W32151  17.632  17.977   4.302  0.2609  0.3170  0.4807
15305W        W32152   7.294  13.705  16.198  0.2270 -0.2012  0.0378
15306W        W32153  18.325   5.586  10.461 -0.1826 -0.0868  0.2125
15307W        W32154  18.189   2.289  10.592  0.1748 -0.0002 -0.1409
15308W        W32155  12.445   5.948   3.262 -0.0460  0.2085  0.1907
15309W        W32156   5.798  12.316  11.669 -0.0128 -0.2215 -0.2688
15310W        W32157   3.086   0.364   3.408  0.0982 -0.1275  0.2239
15311W        W32158   6.962   4.805  14.001  0.1924 -0.2124  0.0425
15312W        W32159   8.615  18.379  15.252 -0.0750 -0.2597  0.0851
15313W        W32160  18.080  14.752   1.280  0.1643 -0.0522 -0.0911
15314W        W32161   0.232   8.411   4.184  0.1776 -0.1284  0.0065
15315W        W32162  12.845   3.826   4.738 -0.3245  0.0720 -0.4478
15316W        W32163   2.964  13.468  13.221 -0.2233 -0.2892  0.1881
15317W        W32164   2.700   4.314  13.448 -0.5460 -0.0199 -0.0694
15318W        W32165  17.109   2.607  12.340  0.1123 -0.0602  0.1501
15319W        W32166   6.044   4.916   1.983  0.4030  0.0785  0.0680
15320W        W32167   6.246  14.849   1.263  0.2150  0.1117  0.0237
15321W        W32168   1.615  17.311   5.410 -0.3252  0.0227 -0.2745
15322W        W32169  11.005  15.574  13.036 -0.4193 -0.0367  0.0337
15323W        W32170   4.839  12.019   3.484 -0.0880 -0.0772  0.1843
15324W        W32171   7.079  10.080  15.149 -0.3002 -0.2285 -0.1873
15325W        W32172   8.184   4.462  14.338  0.0270 -0.1552 -0.0292
15326W        W32173  10.367   5.563   3.032 -0.0224 -0.0409  0.0747
15327W        W32174  13.296   4.064   5.109  0.3366  0.2300  0.0339
15328W        W32175   8.083  13.338   3.593 -0.0779  0.1507  0.0067
15329W        W32176   6.790   7.964  11.732 -0.0653 -0.0525  0.0391
15330W        W32177   3.889  15.423  12.725 -0.1292 -0.0238  0.0639
15331W        W32178   1.681  16.555   1.157  0.3378 -0.0164 -0.1953
15332W        W32179  17.349   2.910  11.800  0.0956 -0.1632 -0.0739
15333W        W32180  13.548   3.299  13.628 -0.0778 -0.3521  0.0759
15334W        W32181  18.227   9.718  11.406  0.2850 -0.1053 -0.1444
15335W        W32182  17.248   5.733   5.156 -0.0010 -0.0478 -0.0666
15336W        W32183  11.976  14.584   5.178 -0.1804 -0.0472 -0.2098
15337W        W32184  13.344   2.546   0.443 -0.2275  0.0780  0.2437
15338W        W32185   3.832  14.510   2.693  0.1143 -0.1698 -0.3939
15339W        W32186   4.126   7.590  11.509  0.1781 -0.0748 -0.0420
15340W        W32187   8.069   1.553  16.086 -0.2056 -0.1784 -0.3278
15341W        W32188   6.307   7.045  15.501 -0.1615 -0.0864 -0.3677
15342W        W32189   8.803   2.903   2.202 -0.0035  0.1502 -0.1401
15343W        W32190  14.423   9.839   6.170 -0.0563  0.0711 -0.1428
15344W        W32191  17.911  14.813  12.563 -0.1106 -0.1889  0.1831
15345W        W32192  16.868  15.411   3.449  0.1278  0.0064 -0.0622
15346W        W32193   0.097   8.049  13.222 -0.0461  0.1568  0.3851
15347W        W32194   9.826  10.909   1.379  0.0165 -0.2450  0.1130
15348W        W32195  16.012   7.808  12.729 -0.0072 -0.1113  0.2130
15349W        W32196  11.128  12.696  13.403 -0.2973 -0.0016  0.0309
15350W        W32197   1.141   1.076  11.091 -0.3511  0.1898 -0.0350
15351W        W32198  16.264   4.684  13.358  0.2540 -0.0967  0.1563
15352W        W32199   6.183   8.027   5.876  0.5644  0.2236  0.1445
15353W        W32200   6.841  10.630  11.719  0.0073 -0.0747  0.2181
15354W        W32201  16.320  13.124   5.695 -0.1516  0.1223 -0.4590
15355W        W32202   2.856   8.823   4.810  0.1551  0.0117 -0.2659
15356W        W32203   0.905  14.014  13.186  0.1430  0.0340 -0.3618
15357W        W32204  13.849  10.663   3.007 -0.0503  0.1435  0.1801
15358W        W32205  14.409   3.267  13.028 -0.0762 -0.1858  0.2271
15359W        W32206  10.416  10.564  13.313  0.2276  0.2777 -0.1072
15360W        W32207  12.226   7.384  13.974  0.4536 -0.1541 -0.1404
15361W        W32208  13.513   5.913   1.294  0.1071  0.3740  0.4116
15362W        W32209   9.907   8.162   2.481  0.2086  0.0160  0.0716
15363W        W32210  17.866   3.564  12.246 -0.2271 -0.2932 -0.4649
15364W        W32211   5.027  18.300   2.811  0.0043 -0.0610 -0.4389
15365W        W32212   5.776  18.137  12.047 -0.2474  0.1705 -0.0116
15366W        W32213  16.511  15.223  13.079 -0.0814 -0.1935 -0.0987
15367W        W32214   2.293  10.699   3.605  0.0626 -0.0689  0.1110
15368W        W32215   1.987  18.105  13.227  0.2992  0.0027 -0.1792
15369W        W32216   4.249   6.295  12.380 -0.0621  0.0132 -0.0969
15370W        W32217   6.441  13.628  11.601  0.0398  0.0089 -0.0364
15371W        W32218  12.749   3.356   4.001  0.3305  0.1375  0.2018
15372W        W32219   6.609  13.149   1.859 -0.0124 -0.0037 -0.1862
15373W        W32220   4.586  14.885   2.285  0.1646  0.2269 -0.1602
15374W        W32221  11.757  11.172  12.470  0.1593 -0.0213 -0.1030
15375W        W32222  15.553  11.515   5.189 -0.3664  0.1331  0.2201
15376W        W32223   4.183   2.280  14.081 -0.0205 -0.0168 -0.3154
15377W        W32224  10.756  16.368   0.197 -0.2068  0.0222  0.1641
15378W        W32225  11.085   0.412  14.349  0.0495  0.0432 -0.1165
15379W        W32226  17.715   4.853  12.962  0.1620  0.0119 -0.0887
15380W        W32227  16.111   7.876  11.324 -0.0813 -0.0201 -0.0891
15381W        W32228   3.800   6.951  13.916 -0.1422  0.1192 -0.1352
15382W        W32229   1.447   4.558  11.495  0.0804 -0.1475 -0.1454
15383W        W32230   0.616  17.018  12.288  0.4562 -0.0085  0.0179
15384W        W32231   5.948   8.235  12.657 -0.1220  0.0966  0.1195
15385W        W32232   1.326   3.342  12.043 -0.0227 -0.0578 -0.0204
15386W        W32233  13.907  14.466  11.800  0.2768  0.3309 -0.2091
15387W        W32234  16.285   0.094  15.416  0.0414  0.1967  0.1408
15388W        W32235  12.524   8.411  16.077 -0.2065 -0.2071  0.1632
15389W        W32236   3.730  12.381   1.943 -0.2300  0.1535 -0.4112
15390W        W32237   9.726  18.417   4.415  0.0319  0.1239  0.0998
15391W        W32238   1.574   1.632  15.733 -0.2354  0.0255 -0.1459
15392W        W32239  11.406   3.396   0.901  0.0615  0.0003 -0.0684
15393W        W32240   5.365   8.445  14.805  0.0634 -0.0099  0.1270
15394W        W32241   7.630   8.840   2.764 -0.1506  0.1052  0.0254
15395W        W32242   9.112  18.262  13.553 -0.1585 -0.0009 -0.0681
15396W        W32243  10.243   6.157  13.670 -0.0956 -0.3098 -0.1563
15397W        W32244   3.042  17.885  15.095 -0.0430  0.0255  0.3668
15398W        W32245  10.890  17.952  15.375  0.2238 -0.0064  0.1840
15399W        W32246   4.815   3.895   0.458 -0.1523 -0.2465 -0.2403
15400W        W32247  13.434   4.383   4.148 -0.1175 -0.1213  0.1442
15401W        W32248  12.260   8.887   0.303  0.1937 -0.0501 -0.2393
15402W        W32249   7.808   1.141  14.339 -0.0173  0.0897  0.1099
15403W        W32250   6.703  10.563  12.395 -0.1597 -0.1388 -0.0584
15404W        W32251   0.889  10.109   1.972 -0.0083  0.0576  0.0953
15405W        W32252   1.962  11.574  13.116  0.0087  0.2386 -0.0316
15406W        W32253  16.530   0.233   4.443  0.2005 -0.1896 -0.2665
15407W        W32254   3.369  15.142  14.698 -0.1615 -0.2475 -0.0922
15408W        W32255  17.635   1.449   1.371 -0.3196  0.2236 -0.0797
15409W        W32256   6.593   0.336   3.423  0.0628  0.2346  0.0380
15410W        W32257   7.120   7.259   0.798  0.2452  0.2071  0.1495
15411W        W32258  17.644   5.639   3.849 -0.3280  0.0606  0.0644
15412W        W32259   4.626  11.195  16.226  0.0184 -0.0474 -0.0757
15413W        W32260   2.432  18.154  12.186 -0.0017 -0.2696 -0.0433
15414W        W32261  13.283  17.929  12.987  0.1414 -0.1188 -0.1372
15415W        W32262   8.983   4.373  14.837  0.1723  0.3806 -0.2316
15416W        W32263  13.583   5.847   0.055  0.1745  0.1137 -0.1436
15417W        W32264   2.253  17.031   0.713 -0.0962 -0.0746  0.1195
15418W        W32265  10.406  13.600  12.139 -0.0228  0.3696 -0.3077
15419W        W32266   7.469   7.305   5.233  0.0150 -0.1868  0.2301
15420W        W32267   7.436   8.991   0.645  0.1564 -0.1364 -0.0136
15421W        W32268   9.304  12.203  15.690 -0.2795 -0.0940 -0.2088
15422W        W32269   9.178  10.600  14.331 -0.1600  0.0337 -0.2769
15423W        W32270   4.179   5.683  12.201  0.2166  0.3320  0.0141
15424W        W32271  15.057  11.819   2.741 -0.0216  0.2688 -0.0756
15425W        W32272  11.109  12.507   3.148  0.0551  0.1403  0.2543
15426W        W32273  17.288   1.197  14.524  0.1538  0.1259  0.1539
15427W        W32274   8.313   9.148  14.017 -0.0135 -0.2118  0.0451
15428W        W32275  10.577  13.832  15.803  0.0700  0.2199  0.0345
15429W        W32276   8.567   4.589  14.709 -0.0185  0.3940  0.1482
15430W        W32277   5.740   4.581  13.169 -0.1018  0.0678 -0.1295
15431W        W32278  17.870   6.186  14.975 -0.1980 -0.1161  0.2347
15432W        W32279   6.431  15.410  14.633  0.0203  0.1265  0.2097
15433W        W32280  17.505  16.869   3.624 -0.1754 -0.0693 -0.2525
15434W        W32281  18.247   3.679  14.062 -0.0993  0.0626  0.3201
15435W        W32282   5.145   0.802   5.191 -0.2214  0.3240  0.2295
15436W        W32283  15.714  15.915  12.074  0.0364 -0.0395  0.1804
15437W        W32284   7.041  12.405   3.144  0.1498 -0.1358  0.0660
15438W        W32285   0.401  16.387  15.421 -0.0681  0.3519  0.3312
15439W        W32286   3.423  14.758   0.387  0.1283 -0.0445  0.0032
15440W        W32287  10.447  17.082   4.706  0.2377  0.0516 -0.1003
15441W        W32288   4.896   3.434   0.045 -0.2083  0.2910  0.1793
15442W        W32289   1.063   6.256  13.778  0.2081  0.2835 -0.1193
15443W        W32290   5.796   6.674   4.698  0.0192  0.2513  0.2653
15444W        W32291   3.570  13.973   0.904  0.0069 -0.2934  0.0310
15445W        W32292  14.733   7.829  12.783 -0.3489 -0.3546 -0.0453
15446W        W32293   3.902   5.039   2.918  0.2293  0.0566 -0.1709
15447W        W32294   1.509  17.363   1.161 -0.2511 -0.1835 -0.2338
15448W        W32295   3.776   7.706   2.476 -0.1286  0.0759 -0.0924
15449W        W32296   6.877  13.693  12.362 -0.1758 -0.1534  0.2214
15450W        W32297  16.253   4.239  14.350  0.0851  0.2308 -0.2314
15451W        W32298  10.724  17.623   1.838 -0.1555  0.2206 -0.1601
15452W        W32299  13.393   7.979   3.458 -0.3658  0.1597  0.2073
15453W        W32300   7.866   0.627   1.427 -0.3528 -0.1746 -0.3131
15454W        W32301   8.267   0.626   2.696  0.1094 -0.0950 -0.0878
15455W        W32302  17.707   4.405   3.866  0.0288  0.4875 -0.1922
15456W        W32303   8.209   4.487   1.680 -0.1402 -0.1033  0.0915
15457W        W32304  15.925   0.765   4.821 -0.3164 -0.3526  0.1534
15458W        W32305  15.813   7.700  13.564 -0.0051  0.0109  0.3270
15459W        W32306   5.985   3.222  12.233 -0.0279 -0.1139  0.0150
15460W        W32307  13.595   3.622  13.240  0.3120  0.0855 -0.0290
15461W        W32308   0.329  11.904   5.394 -0.3480  0.0164 -0.2260
15462W        W32309   3.772  18.293   3.313 -0.3506  0.0606 -0.1093
15463W        W32310  10.038  14.543  11.663 -0.3670 -0.0278 -0.0374
15464W        W32311   0.337   7.916  14.771  0.2239 -0.2231 -0.1340
15465W        W32312   7.596   1.265  11.915  0.1081  0.0355  0.0657
15466W        W32313   6.896  16.015   2.481 -0.0728  0.1211  0.1907
15467W        W32314  17.038   5.038  13.073 -0.2454  0.0912 -0.1096
15468W        W32315  10.420   5.715  15.291 -0.2376 -0.4875  0.1204
15469W        W32316   0.869  12.336  13.572 -0.0044  0.0351  0.3757
15470W        W32317  17.247   7.887   5.067 -0.3645  0.1134  0.4394
15471W        W32318   6.842  15.216  12.336 -0.1161  0.2258  0.1890
15472W        W32319   5.355   2.098  16.227 -0.0962  0.0877  0.1157
15473W        W32320   7.917   3.526  12.178  0.1969 -0.0971  0.1536
15474W        W32321  16.403   7.086  13.655  0.0337  0.0756  0.0585
15475W        W32322   6.719  11.979   3.110  0.2206 -0.1243  0.2005
15476W        W32323  12.671   6.832  15.429  0.1146  0.0531  0.1056
15477W        W32324   9.047   5.483  13.157 -0.1225 -0.1525 -0.0920
15478W        W32325  10.970   3.725  13.997 -0.1585  0.1111 -0.0819
15479W        W32326  17.623  15.168   0.199 -0.1035  0.1287  0.1288
15480W        W32327  15.361  11.391   2.947  0.0520  0.2348 -0.1535
15481W        W32328  12.949  18.021  15.771  0.1032 -0.1238 -0.1586
15482W        W32329   2.689  14.476  15.252 -0.0488 -0.3726  0.1939
15483W        W32330  11.242  15.063   2.714  0.1035  0.0105 -0.0360
15484W        W32331  10.203  13.495   0.325  0.0025 -0.2812  0.1110
15485W        W32332  16.120  14.878   3.561 -0.0261  0.0003  0.0747
15486W        W32333   2.163   7.944  11.103 -0.1149 -0.1783 -0.2622
15487W        W32334   1.851   7.072   1.475  0.0236  0.1451  0.2159
15488W        W32335   2.012  11.805  15.260  0.0980 -0.1667 -0.2145
15489W        W32336  15.156  15.948   3.397 -0.1592 -0.0567 -0.2408
15490W        W32337  17.117  10.193   4.212  0.4079 -0.3574 -0.0865
15491W        W32338  17.006   5.014  11.834  0.2282 -0.2311 -0.0090
15492W        W32339  11.221  18.270  13.737  0.1109  0.1185  0.0777
15493W        W32340  10.625  12.248   3.221 -0.1380 -0.0214  0.2260
15494W        W32341   4.302  11.292   4.660 -0.0773  0.0606  0.1006
15495W        W32342   1.977  12.509   5.436  0.1594  0.3055 -0.2698
15496W        W32343   1.663  10.009  16.193  0.0031 -0.0236  0.0253
15497W        W32344   7.032  11.674  12.024 -0.3157  0.0353  0.0018
15498W        W32345   0.109  11.893   4.429  0.0658  0.1592 -0.2052
15499W        W32346   5.104  12.101  13.285  0.0574  0.1342  0.1030
15500W        W32347   3.085   6.452  15.878 -0.1298  0.0341  0.1108
15501W        W32348   9.988  12.316   2.343  0.2588  0.1661 -0.2355
15502W        W32349  12.611   1.420   2.548 -0.0929 -0.1181  0.0763
15503W        W32350  16.881  15.004  14.211  0.1288  0.1113 -0.2264
15504W        W32351   6.303   0.722  15.428 -0.1917 -0.0459  0.3501
15505W        W32352  14.769   3.175  15.559 -0.2130 -0.0578 -0.0777
15506W        W32353   6.181  12.058  16.202 -0.2785 -0.1053 -0.0850
15507W        W32354   1.316  11.242   4.826  0.1153 -0.1577  0.1589
15508W        W32355   8.712  16.472   2.180  0.1482  0.1113  0.1079
15509W        W32356  12.592   2.239  12.257  0.1827 -0.0388 -0.1624
15510W        W32357   1.755  13.380   5.219  0.4184  0.0650  0.0275
15511W        W32358   9.716   2.191   1.033 -0.1468 -0.0377  0.0893
15512W        W32359   5.642   0.729   5.203  0.1374 -0.1516  0.0826
15513W        W32360   1.736   0.732   3.164  0.1375 -0.1076  0.2309
15514W        W32361   8.917  12.101   4.994  0.0756 -0.0429  0.1058
15515W        W32362   8.560  11.068  12.979  0.2688 -0.2475  0.0168
15516W        W32363   9.657  14.424   4.988 -0.0392 -0.0522 -0.2203
15517W        W32364   6.521   8.385  15.223 -0.0316 -0.1620  0.0165
15518W        W32365  10.509   5.348   0.228 -0.2946  0.3580 -0.3454
15519W        W32366  16.686  10.942   1.897  0.1600  0.0521  0.1139
15520W        W32367  12.497  15.270  14.113  0.0100  0.2483  0.0169
15521W        W32368  16.119   7.417  14.429  0.1641  0.0309 -0.1075
15522W        W32369  15.563   6.007  12.360 -0.0168 -0.1885 -0.1096
15523W        W32370  16.008  16.547  14.087  0.0440  0.5039 -0.0394
15524W        W32371  13.919   5.314   3.821 -0.0789  0.2627  0.1170
15525W        W32372  15.478  10.041  13.245  0.4152 -0.3241  0.1764
15526W        W32373   4.855   4.333  16.372  0.1294 -0.2119  0.1677
15527W        W32374  13.264  12.388   5.228  0.2644 -0.3365  0.4137
15528W        W32375   6.864   3.881  14.028 -0.1173 -0.0624  0.2775
15529W        W32376   7.487  17.622  11.785 -0.0835 -0.0125  0.1051
15530W        W32377  14.103   2.358  14.180  0.3174 -0.1081 -0.0528
15531W        W32378   5.750  13.254  14.359  0.0706  0.1676  0.1973
15532W        W32379  14.434   2.699  13.937  0.2253 -0.0677 -0.0895
15533W        W32380  17.760  16.542  15.666 -0.3885 -0.1501 -0.2605
15534W        W32381   3.869   3.531  13.574 -0.1980  0.2119  0.1853
15535W        W32382   9.521   5.627   1.082 -0.0971  0.0121 -0.0385
15536W        W32383  11.395  17.174  12.556 -0.2439  0.2505 -0.2090
15537W        W32384  13.780   1.489   0.910  0.0900 -0.0266 -0.0764
15538W        W32385  13.397   0.770  11.286  0.2181  0.2410 -0.2813
15539W        W32386   3.103   5.957   1.348 -0.1108  0.0493 -0.2035
15540W        W32387   6.000  12.226  14.341 -0.1394 -0.0279 -0.2808
15541W        W32388  18.046  10.894   4.080 -0.0531 -0.1144  0.2682
15542W        W32389   6.631  11.355   5.021  0.1675 -0.0489 -0.2703
15543W        W32390   1.775  16.192  13.133 -0.0898 -0.1398  0.0290
15544W        W32391   4.376   0.736   2.500  0.2546  0.1905  0.0327
15545W        W32392   4.585   2.760   0.344  0.0101  0.4415 -0.2343
15546W        W32393  14.858   7.366   2.997 -0.0262 -0.2176  0.0162
15547W        W32394  18.026   9.232   2.421 -0.4081 -0.1644  0.1055
15548W        W32395  13.882   5.943  16.026  0.2277  0.1474 -0.1528
15549W        W32396   4.291  12.007   2.672  0.2224  0.1889  0.0956
15550W        W32397   2.445  18.043   3.744  0.1369  0.0677 -0.0567
15551W        W32398  17.209  13.182   2.916  0.4456 -0.1588 -0.0190
15552W        W32399  13.891   9.568  14.283  0.2367 -0.3104 -0.1388
15553W        W32400   1.868   7.998   4.930  0.1483 -0.0480  0.1742
15554W        W32401   9.083  10.998  16.217  0.1666  0.3289  0.4758
15555W        W32402   6.358  15.720  15.019 -0.0883  0.1442  0.2178
15556W        W32403   4.379  14.575   2.627 -0.0679 -0.0842  0.2459
15557W        W32404  15.291   0.308  11.956 -0.2182  0.3379  0.0011
15558W        W32405   9.234   9.415   2.078  0.3539 -0.0354  0.1348
15559W        W32406  11.948   7.514  12.947  0.1098  0.2793  0.2315
15560W        W32407   6.796   3.560  13.622  0.2273  0.0670 -0.1248
15561W        W32408  13.000  15.516   0.098  0.2308  0.0430  0.0365
15562W        W32409   7.968   7.726  13.176  0.0330 -0.2217 -0.3185
15563W        W32410   0.367  14.888  15.837 -0.0247  0.1188 -0.1324
15564W        W32411   1.968   3.242  10.770  0.0190  0.0986  0.2026
15565W        W32412  11.292   5.924  12.841  0.3502 -0.1344  0.1418
15566W        W32413   3.519   0.272  14.009 -0.3176  0.3044  0.0813
15567W        W32414  16.678   8.985   4.579  0.0717  0.1232  0.3624
15568W        W32415   3.522   4.572   5.177  0.5014 -0.0428  0.2871
15569W        W32416   8.620  13.098  10.881 -0.4005  0.3317  0.0475
15570W        W32417   2.869   4.986  14.154  0.0067  0.0001  0.0537
15571W        W32418  17.804  16.229  14.327 -0.2541 -0.1599  0.0692
15572W        W32419   4.832  11.840  11.904  0.1487  0.3523  0.2118
15573W        W32420   4.043   1.196   1.923  0.1462  0.1834 -0.0638
15574W        W32421   3.816   0.761  14.629  0.0407 -0.0759 -0.0126
15575W        W32422  18.198   4.416   4.577 -0.1090  0.1015  0.2217
15576W        W32423   3.188   3.917   0.612 -0.0821 -0.2251 -0.0079
15577W        W32424   2.048   7.974  13.443  0.2540  0.0835  0.0630
15578W        W32425   6.081   9.228   0.238  0.0222 -0.0689  0.1026
15579W        W32426  11.981   4.746  15.863  0.0359 -0.0842  0.2411
15580W        W32427   8.233   0.097  13.189 -0.1823  0.0535  0.2472
15581W        W32428   5.339   9.875   1.714  0.1302  0.2316 -0.1814
15582W        W32429   5.822   5.596  13.941  0.3014 -0.2977 -0.0623
15583W        W32430  14.988  14.578   0.823  0.2314  0.1303 -0.1438
15584W        W32431   2.792   4.498  15.604  0.0813 -0.1947  0.1509
15585W        W32432  14.016   3.830  11.162 -0.2859 -0.2223  0.3865
15586W        W32433   1.521  17.182   3.266 -0.1264 -0.0447 -0.0657
15587W        W32434  14.473   6.561   4.674 -0.0835 -0.0782  0.3419
15588W        W32435  13.184  11.803  15.090  0.2626 -0.1396 -0.1896
15589W        W32436  14.967   0.295   3.336  0.0524 -0.0216  0.0258
15590W        W32437   8.452  12.018   5.640  0.2056  0.0921  0.1478
15591W        W32438   3.667   8.428  14.508  0.0866 -0.1935  0.0599
15592W        W32439   8.327   7.564  12.292 -0.0342  0.1158 -0.0204
15593W        W32440   6.164   5.993   2.022 -0.0171 -0.2418  0.1272
15594W        W32441   7.533   7.365  13.789 -0.3269  0.2012 -0.0422
15595W        W32442  17.735  10.342  15.933  0.0788  0.1661 -0.1320
15596W        W32443  16.917   8.508   2.907 -0.0663 -0.2152 -0.0580
15597W        W32444  17.531   8.567  12.379 -0.2002 -0.0668 -0.0985
15598W        W32445  13.765   9.220  13.044  0.0239 -0.0340  0.2605
15599W        W32446  15.643   1.562   2.784 -0.0319 -0.0783  0.1999
15600W        W32447   5.666  18.367  15.566  0.2082  0.0449  0.1622
15601W        W32448  14.263   3.147  13.689 -0.1131  0.5097  0.4309
15602W        W32449   4.773   2.722   3.300  0.0410 -0.1223 -0.1130
15603W        W32450   2.169  11.068   5.235  0.0826 -0.3217 -0.0267
15604W        W32451   7.268   3.546  13.915  0.3818 -0.2544 -0.0537
15605W        W32452  13.313  15.628   3.119 -0.0513 -0.2562  0.0635
15606W        W32453   8.869  15.986  11.675  0.0477 -0.1341  0.1089
15607W        W32454   7.186   8.738  14.896  0.5085 -0.0198  0.0426
15608W        W32455  17.992   3.131  15.922 -0.0977  0.0186  0.0170
15609W        W32456   5.214   9.279   1.805 -0.0854  0.0907 -0.1743
15610W        W32457  17.946   3.378   4.698  0.0146  0.0129 -0.1427
15611W        W32458  15.388   9.377  11.810  0.0757  0.0522 -0.1171
15612W        W32459  11.732   0.429   2.857 -0.1722 -0.0893 -0.2617
15613W        W32460   6.713   5.084  14.845  0.0696  0.0638  0.1191
15614W        W32461   5.595   4.699   3.272  0.4228 -0.1465  0.1797
15615W        W32462   1.085  13.689   3.480 -0.2637 -0.0882  0.0648
15616W        W32463   0.403   7.310  12.244 -0.2744 -0.3421  0.0045
15617W        W32464   2.461  11.663   2.652  0.2390 -0.3531  0.1194
15618W        W32465  17.165   2.822   4.526  0.2304 -0.1306 -0.1570
15619W        W32466   2.704  15.869   0.479  0.0194  0.0060 -0.0143
15620W        W32467   0.272  17.864   4.407 -0.0735  0.1008 -0.3987
15621W        W32468  15.078   3.279   2.733  0.0385 -0.0034  0.1052
15622W        W32469  11.529  15.547   2.892  0.2041 -0.0140  0.0073
15623W        W32470  10.703   5.734  15.719  0.0849 -0.1526  0.4861
15624W        W32471   8.256   0.407  11.893 -0.0920  0.4037 -0.1225
15625W        W32472  14.759  13.113  11.458  0.2109  0.0064 -0.2068
15626W        W32473   9.579   4.386  11.103  0.1862  0.2051 -0.0550
15627W        W32474   0.725  15.647   5.794 -0.1872 -0.1992  0.1164
15628W        W32475   6.121  11.477  15.825  0.1650  0.3569  0.0545
15629W        W32476   9.633   0.660   1.612 -0.0293 -0.0298  0.0346
15630W        W32477  12.084   7.313   3.594  0.2169 -0.0057  0.0789
15631W        W32478  15.389   6.783  15.388  0.2128 -0.0067  0.1651
15632W        W32479  15.297  14.368  11.672  0.1588 -0.0884 -0.0260
15633W        W32480  10.197   6.933   4.653  0.4056  0.1072 -0.1962
15634W        W32481  13.458  10.724   5.615 -0.1746 -0.2296 -0.0222
15635W        W32482   3.786   9.119  11.695 -0.0908  0.0591 -0.0655
15636W        W32483   4.744  14.129  12.714 -0.0303 -0.0105 -0.1783
15637W        W32484   0.890   3.962  10.470 -0.2178 -0.2123  0.0384
15638W        W32485  13.881  12.558   2.741 -0.3252 -0.3533 -0.2162
15639W        W32486   5.816  15.751   0.250  0.3556  0.0005  0.1607
15640W        W32487   6.976   5.436  14.569 -0.2572  0.1261 -0.2905
15641W        W32488   1.418   9.104   3.584 -0.3613  0.0050  0.2082
15642W        W32489   1.353  11.565  11.836 -0.1899 -0.2114  0.1264
15643W        W32490  15.676   4.103   2.547  0.0875  0.0173  0.4149
15644W        W32491   0.531  17.762  15.108 -0.0649  0.0584  0.3118
15645W        W32492   5.845  10.745   1.134  0.1252 -0.0518  0.2256
15646W        W32493   8.985   7.255   2.787 -0.1200 -0.1742 -0.0419
15647W        W32494  10.313  17.453  15.534  0.2316 -0.2794  0.0779
15648W        W32495  14.420   8.608   1.426  0.0378  0.1119  0.1177
15649W        W32496  15.273   5.444  12.954  0.2005  0.1233 -0.0787
15650W        W32497   5.470   9.503   0.868  0.1752 -0.2906 -0.4548
15651W        W32498   9.343   0.094   3.186 -0.3425  0.0205  0.2147
15652W        W32499  15.770  15.204   1.929  0.0298 -0.1003  0.2404
15653W        W32500   2.067   7.215  13.880 -0.2119 -0.0555 -0.1278
15654W        W32501  10.938   4.650   3.287  0.0686 -0.2460  0.1711
15655W        W32502   7.426   5.919  12.423 -0.1950  0.0997  0.2808
15656W        W32503   4.338  12.248   4.785  0.1783  0.1292 -0.0690
15657W        W32504  14.023  12.150   1.930 -0.2654  0.0480 -0.1735
15658W        W32505  16.032  14.137   1.725 -0.2117 -0.0009  0.1182
15659W        W32506  14.272  13.929   1.388  0.0669  0.1008 -0.2405
15660W        W32507   7.495  15.786   1.122 -0.1210  0.1853 -0.0577
15661W        W32508  12.812   3.946   3.573  0.1765  0.2149  0.0496
15662W        W32509  15.202  14.841   1.220  0.2683 -0.0310  0.1739
15663W        W32510  11.112  15.773   6.650  0.3191 -0.0884 -0.1396
15664W        W32511  17.990   8.037  16.328 -0.1648  0.2586  0.3161
15665W        W32512  15.484  16.867   3.199 -0.3902 -0.1068 -0.0970
15666W        W32513  15.260   9.330   2.311 -0.2182  0.2384  0.1121
15667W        W32514   7.010   8.572  14.414 -0.2185  0.1201  0.2844
15668W        W32515  12.382   4.535   2.038  0.1770  0.0273  0.2705
15669W        W32516   1.136   1.873  15.971 -0.1207 -0.1581  0.0903
15670W        W32517   7.127  15.309   5.210  0.0418  0.2672  0.1043
15671W        W32518  10.030  12.620  14.470  0.2197 -0.0621 -0.0182
15672W        W32519   3.213  14.758  13.109 -0.3539  0.2105  0.0487
15673W        W32520   9.877  14.706  14.605 -0.0363  0.1320  0.2946
15674W        W32521  13.809  17.980  12.956 -0.2803  0.2214 -0.0774
15675W        W32522   7.673   1.388   0.000 -0.2109  0.1851 -0.1465
15676W        W32523  17.978  17.930  13.187  0.1942  0.1409  0.0375
15677W        W32524  14.341  13.020   4.109 -0.1142  0.1147 -0.4207
15678W        W32525  11.525   1.414   4.351  0.2188  0.1417 -0.1584
15679W        W32526   0.446  17.374   1.248  0.0404 -0.0476 -0.1473
15680W        W32527   8.893   4.982  13.734  0.1741  0.0306  0.0290
15681W        W32528  12.721   8.298   1.598 -0.1154  0.1051 -0.1208
15682W        W32529   7.358   2.141  13.654  0.0207 -0.0131  0.1294
15683W        W32530  10.881  15.405  15.750  0.0546 -0.0525 -0.0535
15684W        W32531   8.969  17.235   6.072  0.2375 -0.2160 -0.0141
15685W        W32532  11.725   0.806  15.175 -0.1286  0.0309  0.4114
15686W        W32533  12.938   2.582   3.646  0.2192  0.2728  0.2304
15687W        W32534   3.892  14.819   0.734  0.1079 -0.1279 -0.3265
15688W        W32535  17.721   5.670  12.576  0.2032 -0.0876  0.0294
15689W        W32536   8.182  17.049  15.902  0.0413  0.0675 -0.0566
15690W        W32537   0.664  15.987   4.734 -0.1015  0.0399 -0.2375
15691W        W32538   8.289  17.050  15.402 -0.0594 -0.0763 -0.0314
15692W        W32539   9.424   0.176   6.188  0.2525  0.0756 -0.1014
15693W        W32540  17.966  14.835  12.021  0.1854 -0.1171  0.1345
15694W        W32541   6.443  14.682   2.717 -0.0661 -0.1138  0.0032
15695W        W32542   3.385  17.236  11.727 -0.2658  0.0648 -0.2853
15696W        W32543   3.265   2.807  14.308  0.0130  0.3105  0.0062
15697W        W32544   5.773  17.975   1.306  0.0243 -0.1742  0.4796
15698W        W32545  10.019  11.512  15.268 -0.1014 -0.0857  0.1106
15699W        W32546  12.320  14.215  14.442  0.3218  0.2222  0.0268
15700W        W32547   0.693  14.383   5.388 -0.0074 -0.1537  0.0572
15701W        W32548  13.454   0.032  13.040 -0.1228  0.0026 -0.0326
15702W        W32549  13.972   3.925   2.718 -0.0696 -0.0424  0.1781
15703W        W32550  17.694   3.285  11.532  0.0171  0.4368  0.3712
15704W        W32551   0.532  10.465  12.174 -0.0251  0.0893 -0.1268
15705W        W32552  10.362   7.608   1.724  0.3686  0.0889 -0.0050
15706W        W32553   9.576   5.647   3.644 -0.1900 -0.1627  0.1894
15707W        W32554   3.338   1.478  15.013  0.1060 -0.0757  0.0481
15708W        W32555   5.190   0.276   3.892 -0.1963  0.1952 -0.0225
15709W        W32556   6.527   0.815   0.222 -0.0919  0.0134  0.2162
15710W        W32557   7.951   9.720  12.853  0.2058 -0.0827  0.1067
15711W        W32558   3.861   8.670   1.411 -0.0181  0.1101  0.1005
15712W        W32559  13.359   6.821   3.042  0.1271 -0.2574  0.1843
15713W        W32560   4.235   8.566   1.742 -0.3432 -0.1717  0.2124
15714W        W32561  16.723   0.343  15.528 -0.0289 -0.2045  0.0813
15715W        W32562  14.339  17.996  14.483  0.0681  0.0031 -0.2396
15716W        W32563  17.558  13.699   6.038  0.4971  0.0907 -0.1838
15717W        W32564  14.004  17.134  12.700 -0.1080  0.1299  0.2932
15718W        W32565   1.192   6.649  16.216  0.0482 -0.1970  0.0705
15719W        W32566  14.153   9.424  13.432 -0.0652  0.3904  0.0599
15720W        W32567  13.866   0.940   3.915 -0.0036  0.1043 -0.5126
15721W        W32568  15.324   4.787  14.025  0.0993  0.3499 -0.1934
15722W        W32569  14.221  15.098   2.135 -0.3277 -0.2367  0.0367
15723W        W32570   9.786   6.970   3.107 -0.1195  0.0153  0.2756
15724W        W32571  13.346  18.115   2.592 -0.0437  0.0934  0.0110
15725W        W32572   1.490   2.992   4.277  0.0132 -0.2381 -0.1051
15726W        W32573   8.571   9.494   0.274 -0.0651 -0.0738 -0.0337
15727W        W32574   9.677  18.228  14.592 -0.1129  0.3931  0.1960
15728W        W32575   8.794   4.942   4.920 -0.1372 -0.0675  0.2122
15729W        W32576  14.794   6.711   4.233 -0.2271  0.0778  0.3888
15730W        W32577  11.837   5.290  11.008 -0.0201  0.0541  0.1105
15731W        W32578  16.423   1.105   1.074 -0.1806  0.1391  0.1677
15732W        W32579  10.317   7.152  11.866 -0.3268  0.1888  0.0048
15733W        W32580  15.616  13.264  13.981 -0.1638 -0.0841 -0.0144
15734W        W32581   3.112   2.215   4.530 -0.4192 -0.0521  0.0055
15735W        W32582  14.514   1.579   0.481 -0.0183  0.0195  0.2229
15736W        W32583   4.233  16.122  15.066 -0.1821 -0.1166  0.0131
15737W        W32584  11.606  14.998   4.722 -0.0298 -0.1099 -0.0673
15738W        W32585   6.888  13.492  13.090  0.0969  0.1303 -0.0418
15739W        W32586  10.638   1.251   3.909 -0.1077 -0.0561  0.2314
15740W        W32587   3.478  11.149   2.605 -0.3318  0.1666 -0.4039
15741W        W32588  12.404   1.137  16.056  0.1251 -0.1133 -0.0402
15742W        W32589  15.871   0.564   6.335  0.1796  0.0604 -0.0387
15743W        W32590   1.874  14.303  12.940  0.0060 -0.1143 -0.2188
15744W        W32591   4.312   2.508   3.399 -0.0940  0.0319 -0.1540
15745W        W32592  11.083  13.806  11.360  0.0138 -0.0528 -0.0885
15746W        W32593   9.969  13.698  16.237  0.0439  0.0795  0.2442
15747W        W32594   5.404   5.609  13.361  0.2042  0.1384 -0.3934
15748W        W32595  15.629  16.083  14.169 -0.2579 -0.0602 -0.0296
15749W        W32596  14.622   7.019   2.733 -0.2533 -0.1884 -0.4533
15750W        W32597   6.088   1.918   5.725  0.1635  0.0146  0.0746
15751W        W32598   9.989  12.786  11.658  0.3101  0.0863  0.0686
15752W        W32599  16.397  12.002  14.302 -0.1494 -0.1949 -0.2171
15753W        W32600   2.282  12.220   2.269  0.1409 -0.0334 -0.3054
15754W        W32601   4.635  12.184  16.224  0.0759  0.3322  0.1057
15755W        W32602   7.175   1.289   2.372  0.0169  0.1166  0.0910
15756W        W32603   4.521  11.119  14.163 -0.1260  0.2224 -0.0870
15757W        W32604  12.563  16.354   3.757  0.1994 -0.1405  0.1155
15758W        W32605   2.710  11.176  15.071 -0.2061  0.1056 -0.2549
15759W        W32606   9.694  12.574   4.943 -0.3335 -0.1120 -0.1728
15760W        W32607  17.119   4.774  12.576  0.1882 -0.0500  0.1447
15761W        W32608  16.144   4.279  11.901  0.1314  0.2649  0.1891
15762W        W32609   7.843   0.796  11.864 -0.0710 -0.1028  0.2381
15763W        W32610   8.914   0.838   0.603 -0.0792 -0.1079  0.0376
15764W        W32611   7.728   1.904   2.563  0.2797  0.0098  0.1002
15765W        W32612   3.641  15.134   1.955 -0.0535  0.0534 -0.1692
15766W        W32613   3.847  14.036   1.373 -0.0134  0.2273  0.1845
15767W        W32614   8.039   5.443  15.032  0.2122  0.0178  0.0941
15768W        W32615   3.693  15.064  13.101  0.3122 -0.2487 -0.1843
15769W        W32616   0.605   3.965  13.591 -0.0563  0.0119  0.2865
15770W        W32617   4.901   5.814  10.700  0.2037 -0.3833  0.0489
15771W        W32618  18.121   4.937  12.605  0.1107  0.0547  0.0289
15772W        W32619  17.556   9.111   2.649  0.1869 -0.0281 -0.3090
15773W        W32620  15.522  16.568  14.334  0.0930  0.1958  0.1624
15774W        W32621  15.739  14.831   1.299  0.1459  0.3299  0.0426
15775W        W32622   5.654  16.124   6.260  0.1119 -0.2481 -0.0061
15776W        W32623   7.634  12.009  16.127 -0.2115  0.2444  0.0409
15777W        W32624   6.842   7.812  16.091 -0.0039 -0.1154  0.2695
15778W        W32625   1.043   8.567  15.459 -0.2517 -0.2323  0.1098
15779W        W32626  17.951  14.980   0.628  0.3009 -0.1360  0.5132
15780W        W32627  12.813  14.680  13.849  0.0109  0.1991 -0.3025
15781W        W32628   8.084   2.852  13.628  0.0432 -0.2471  0.1369
15782W        W32629   3.993   7.955  11.042  0.1860  0.1748  0.0577
15783W        W32630   3.357   0.098  15.575  0.0577 -0.0256  0.0093
15784W        W32631  10.897  15.645   5.615  0.1221 -0.1773 -0.0254
15785W        W32632   6.593  10.264   1.674 -0.2319  0.1380 -0.1133
15786W        W32633   5.846  14.782  14.260  0.4317 -0.1650  0.2787
15787W        W32634  13.549  18.074   5.341 -0.1946 -0.0200  0.2507
15788W        W32635  17.158   4.688  11.452 -0.2074  0.1593  0.3158
15789W        W32636   9.105  14.365  13.485  0.0049  0.0360 -0.2419
15790W        W32637   3.613   5.268   4.930 -0.0459  0.0471  0.0654
15791W        W32638   4.280   0.830  11.696  0.0598 -0.0036  0.0026
15792W        W32639   8.631  11.356   2.743  0.1423 -0.3230 -0.0367
15793W        W32640  16.806   0.068  14.580 -0.0951  0.3908 -0.5327
15794W        W32641  15.180  10.924   3.050  0.0011 -0.0622  0.1050
15795W        W32642  13.313   3.129   2.991  0.0591 -0.1279 -0.2144
15796W        W32643   7.458  12.452   0.939  0.1645 -0.0180  0.1182
15797W        W32644   4.455   7.660  12.780  0.1531 -0.4037  0.0509
15798W        W32645  12.658  13.569   2.239  0.0088 -0.1946  0.2599
15799W        W32646   4.493   8.656   2.731 -0.0359 -0.1189  0.0126
15800W        W32647   6.544  16.683   6.011 -0.0589  0.0449 -0.1595
15801W        W32648  13.136  13.946   4.873 -0.1640 -0.1460 -0.1405
15802W        W32649  10.206  18.308   3.574 -0.1244  0.2094  0.0961
15803W        W32650  12.462   4.217  15.323  0.0804  0.0660 -0.1684
15804W        W32651  12.687  15.416   5.574 -0.1320  0.4377 -0.1776
15805W        W32652   0.766   2.292   3.976  0.1089 -0.0240 -0.1556
15806W        W32653   1.044   3.814   3.054  0.0172 -0.0469  0.1858
15807W        W32654   0.056  13.996  12.811  0.1121 -0.0141  0.0570
15808W        W32655   1.619  17.695   3.130  0.1508  0.0146 -0.0979
15809W        W32656   1.287  17.925  13.573  0.4230 -0.1478 -0.1818
15810W        W32657  13.875   2.224   2.106 -0.0643 -0.0619  0.1105
15811W        W32658   3.832  15.817  14.998 -0.1430 -0.2716  0.2163
15812W        W32659   9.354  18.267  13.051  0.1085 -0.0623  0.2771
15813W        W32660   8.342  15.730   0.106 -0.0248 -0.0405 -0.1554
15814W        W32661  16.888   2.478  11.881 -0.0707 -0.2675 -0.0962
15815W        W32662  16.054   9.650   3.259 -0.2100 -0.1161 -0.3381
15816W        W32663  10.553  15.446  11.741  0.2994  0.0344  0.3462
15817W        W32664  17.746  12.810   2.992 -0.5732  0.2833 -0.0256
15818W        W32665  15.609   9.376  13.274 -0.0947 -0.0218  0.0422
15819W        W32666  10.460  14.475  13.601  0.2206 -0.1560 -0.0088
15820W        W32667  15.449   9.005   0.836  0.1489  0.3169 -0.2156
15821W        W32668   2.936   8.295   2.996 -0.1963 -0.0139 -0.0095
15822W        W32669  13.501   4.565   5.024  0.1546  0.2599 -0.1839
15823W        W32670  11.483   8.241   1.026 -0.0073 -0.1833 -0.1095
15824W        W32671  14.638   4.878   3.263  0.6343 -0.1765 -0.0635
15825W        W32672   0.288  16.876   5.732 -0.2365  0.2495  0.2088
15826W        W32673  15.795   9.307  14.723 -0.1903  0.1127  0.0398
15827W        W32674  13.496   2.650   4.240  0.1670  0.3226  0.1626
15828W        W32675   6.043   2.774   3.823  0.0797 -0.2692  0.1834
15829W        W32676   2.487   9.221  11.553  0.2320  0.2372  0.0001
15830W        W32677   8.490  11.633   3.630  0.1300 -0.1253 -0.1220
15831W        W32678  11.431  14.218  14.440  0.2972 -0.1647 -0.0929
15832W        W32679   0.896  15.781   3.827 -0.2022 -0.1993  0.1938
15833W        W32680   0.559  18.091   4.021  0.0920 -0.0189  0.2699
15834W        W32681  12.648  14.371   2.491 -0.2183  0.1004 -0.0325
15835W        W32682  12.179  18.196   5.146  0.0719 -0.2356 -0.0440
15836W        W32683   4.097  16.718   2.368 -0.2715  0.3751 -0.3475
15837W        W32684  13.489   5.546  11.515  0.0505  0.1809 -0.0547
15838W        W32685   1.517  12.670   5.310  0.2884  0.3863  0.0227
15839W        W32686   0.382  15.174  14.901  0.0049  0.2016  0.2123
15840W        W32687   9.578  16.295  15.873 -0.1246 -0.2729  0.0495
15841W        W32688  10.903  10.168   1.931  0.0740 -0.2591 -0.2615
15842W        W32689   3.580  18.105  15.344  0.0452 -0.0467 -0.3504
15843W        W32690   3.013   3.856  14.387 -0.2512 -0.0012  0.5155
15844W        W32691   8.439   8.016  15.003 -0.3253 -0.0057 -0.2711
15845W        W32692  16.997  17.528  12.899 -0.3532 -0.2074  0.0618
15846W        W32693   3.060  17.375   3.364  0.2694  0.3329 -0.1807
15847W        W32694  15.588   6.096  14.511 -0.1102 -0.2441 -0.2032
15848W        W32695  14.525   2.376   4.313  0.0829 -0.0008 -0.0544
15849W        W32696  17.530  11.057   4.250  0.2512  0.1939  0.2789
15850W        W32697   6.900   1.707  15.677 -0.1961  0.2049 -0.0775
15851W        W32698  17.992  15.477   0.356 -0.1960  0.3572 -0.0561
15852W        W32699   5.846   6.512  12.938  0.1364  0.0588  0.1243
15853W        W32700  11.296  11.380   5.690  0.1064  0.0092 -0.1318
15854W        W32701  15.183   6.875   2.066 -0.0231 -0.0284  0.2231
15855W        W32702   9.375   7.123  15.770 -0.5147 -0.0925 -0.2045
15856W        W32703   1.599  17.069   4.401  0.1064 -0.0401 -0.0060
15857W        W32704   9.193  10.428   1.694  0.1781  0.3255  0.2434
15858W        W32705   8.288  16.758   2.163 -0.0224 -0.1485 -0.0917
15859W        W32706   5.412   6.167   5.059  0.0962 -0.2065 -0.1327
15860W        W32707   6.965  10.294   1.034  0.0256 -0.0235 -0.0901
15861W        W32708   4.118   1.701  15.892  0.1698  0.3244 -0.1699
15862W        W32709   8.011  18.077   1.715  0.0392  0.3736 -0.0853
15863W        W32710   6.808  15.780   4.669 -0.2204 -0.3295 -0.2360
15864W        W32711  17.568  12.168   3.564 -0.0558  0.3392  0.0816
15865W        W32712  15.192  16.469  15.330 -0.0142  0.0944  0.0669
15866W        W32713  16.892  13.133  13.144 -0.1931  0.2717 -0.1843
15867W        W32714  12.984  16.478   1.270 -0.2925 -0.2018 -0.0470
15868W        W32715  11.215  11.755  11.811 -0.1063 -0.0943 -0.3414
15869W        W32716   7.871   2.968  12.472  0.1557  0.0688 -0.2095
15870W        W32717  16.025  10.445   5.897 -0.2176 -0.4143  0.0271
15871W        W32718   4.755  16.377  12.697 -0.0685  0.2460  0.1425
15872W        W32719   9.823   3.124  15.555  0.1982  0.1575  0.2713
15873W        W32720   1.648  15.195  16.332  0.0416 -0.1179 -0.3065
15874W        W32721   5.668  16.385  12.145  0.1052 -0.4391 -0.1325
15875W        W32722  15.610   1.328   4.281  0.1761 -0.0895  0.0149
15876W        W32723  16.116  12.046   4.490 -0.0698 -0.0503 -0.0211
15877W        W32724   8.929   7.269   5.513  0.3698  0.0334  0.0600
15878W        W32725   3.769   8.567   0.051 -0.2943  0.0934 -0.0278
15879W        W32726  13.648   3.178  11.819  0.1327 -0.2235 -0.1759
15880W        W32727  17.372   8.162  12.608 -0.1508 -0.0227  0.2805
15881W        W32728   5.652   6.454  14.652 -0.0267 -0.1421 -0.2113
15882W        W32729  16.265   5.547   4.034 -0.0395 -0.0774 -0.2753
15883W        W32730   1.933  16.621   0.750 -0.4692 -0.1673  0.5173
15884W        W32731   8.792   2.328   3.032  0.0704 -0.3297 -0.2177
15885W        W32732  15.570   2.833  11.029 -0.1227  0.0643 -0.0568
15886W        W32733   9.797   1.278  12.794 -0.1479  0.0445  0.1072
15887W        W32734  18.306   2.710  14.032  0.0618 -0.2410  0.0874
15888W        W32735   6.225   5.003  11.939  0.1141 -0.3236 -0.0514
15889W        W32736  11.508  13.762  14.775  0.0031  0.0501 -0.1191
15890W        W32737  12.800   0.953  14.952 -0.1475 -0.2918 -0.4662
15891W        W32738   1.466  14.669   2.908 -0.0121  0.0927  0.5172
15892W        W32739   6.504   6.269  13.510  0.3407  0.4239 -0.2206
15893W        W32740  10.574  11.732   0.535  0.1106 -0.2072  0.0089
15894W        W32741   3.354  13.386  13.559 -0.0081  0.3568 -0.1572
15895W        W32742  10.033  11.347  15.782  0.0510 -0.1286 -0.2029
15896W        W32743  12.837   2.553   0.475  0.0271 -0.0113 -0.0823
15897W        W32744  10.035   2.286  14.694  0.1883  0.2820 -0.0733
15898W        W32745   8.618   6.768   3.573 -0.0327 -0.2419 -0.1435
15899W        W32746   0.737   6.989   2.999 -0.1354  0.0775  0.3966
15900W        W32747   2.909   5.645   4.590 -0.3004  0.0678  0.0279
15901W        W32748  17.654   3.865   3.992  0.0240  0.1097  0.0572
15902W        W32749   6.934   5.176   1.680  0.3368 -0.3323  0.1500
15903W        W32750   8.311  12.017   3.237 -0.1665  0.1972  0.3019
15904W        W32751  17.773   8.312  12.885 -0.0846 -0.2238 -0.1772
15905W        W32752   6.935   4.332  14.170  0.0934 -0.2389 -0.1967
15906W        W32753   9.023  15.577  13.289  0.0418  0.2801  0.3354
15907W        W32754  17.866   1.076   5.124 -0.1581  0.1278 -0.4021
15908W        W32755   4.893   3.609  14.735  0.0007 -0.1393 -0.1122
15909W        W32756   0.085   8.029  15.845 -0.0738  0.0554 -0.2321
15910W        W32757  12.526  13.603  16.257 -0.1754  0.1088 -0.0295
15911W        W32758   4.531  18.398   1.018 -0.0862  0.0289  0.1327
15912W        W32759  16.951  15.963   2.814  0.0329  0.0947 -0.2812
15913W        W32760   0.173   4.214   2.179  0.1883 -0.2587 -0.1783
15914W        W32761   0.922   3.368  10.571 -0.1276  0.1107  0.1429
15915W        W32762   7.341   7.895  14.927 -0.1468  0.1482  0.2069
15916W        W32763  12.182   0.682  16.103 -0.1759  0.1146 -0.1817
15917W        W32764  16.466   3.406  12.798 -0.1029 -0.0424  0.0284
15918W        W32765   6.150  14.905   0.725 -0.0526  0.1636 -0.2839
15919W        W32766   8.712   0.857   0.052  0.1333  0.1062  0.0010
15920W        W32767  18.412  11.210   1.745  0.1900 -0.1766 -0.0939
15921W        W32768  12.653  17.312  13.217 -0.0058 -0.2057 -0.0069
15922W        W32769  13.591  15.088   1.552  0.0174 -0.0606  0.2190
15923W        W32770  14.921  17.782  14.103  0.2675 -0.1590  0.2023
15924W        W32771   4.782   1.401  12.315 -0.0387  0.1957 -0.0024
15925W        W32772   0.116  14.403   4.152  0.0298  0.3815 -0.0127
15926W        W32773   7.750  12.817  13.158 -0.0175  0.2889  0.1897
15927W        W32774  14.892  12.093  13.382  0.0574 -0.2018  0.0932
15928W        W32775   0.697   1.090   1.843  0.1172 -0.3320 -0.2158
15929W        W32776  11.608   5.252  11.773 -0.3089  0.3532  0.3655
15930W        W32777  10.782   7.812   3.891  0.0799 -0.0999 -0.0742
15931W        W32778  13.783   7.882  14.293  0.1407  0.1429  0.3786
15932W        W32779  17.250  16.776  16.373 -0.2482  0.0616 -0.3746
15933W        W32780  11.392  16.221   4.988 -0.0673 -0.4230 -0.2175
15934W        W32781  15.326  10.670   3.631  0.1108  0.2187 -0.1937
15935W        W32782   6.270  17.201   3.402 -0.0155  0.1410  0.5397
15936W        W32783   2.003  15.405   2.613 -0.2335 -0.0963  0.2407
15937W        W32784   3.113  17.677  11.981 -0.1160 -0.1391 -0.0003
15938W        W32785   3.369   8.864  12.079 -0.2331 -0.0447  0.2008
15939W        W32786   6.342  14.966   3.681  0.2011 -0.1039 -0.3229
15940W        W32787   1.165   8.689  11.528 -0.0536 -0.1610  0.0961
15941W        W32788  16.574   1.611   5.081 -0.0147  0.1294 -0.1033
15942W        W32789   7.740  14.355   1.259 -0.1133  0.3180  0.2766
15943W        W32790  18.061   2.627  14.592 -0.0801 -0.1498  0.1013
15944W        W32791   7.192   9.147   2.088  0.0589 -0.0339 -0.2170
15945W        W32792   9.922   4.143  14.128 -0.1215  0.0366  0.1758
15946W        W32793  15.054   6.838  10.886  0.1304 -0.1967  0.0725
15947W        W32794   9.838   6.566   0.878 -0.1928 -0.2412  0.1979
15948W        W32795  10.638  12.757   3.063 -0.0812 -0.1840 -0.1571
15949W        W32796   6.721  15.614  15.974  0.2635  0.0976 -0.1920
15950W        W32797  16.281   6.363  11.953 -0.1638  0.1463 -0.0644
15951W        W32798   1.174  14.493   4.984 -0.0165 -0.0470  0.4293
15952W        W32799   7.813  10.036  16.256  0.0811  0.2289 -0.2324
15953W        W32800   9.410   5.317  14.855  0.0214  0.2626 -0.1205
15954W        W32801   6.803   4.596   0.239 -0.0915  0.0672 -0.1413
15955W        W32802   9.207   2.023   0.910  0.0651 -0.1528 -0.2046
15956W        W32803   9.466   4.466   0.051 -0.2357 -0.3306  0.0786
15957W        W32804   4.753   2.743   1.185 -0.1479 -0.0411  0.0193
15958W        W32805   4.856  11.145   4.554  0.1944 -0.7232 -0.0230
15959W        W32806  15.954   1.815  13.644  0.1161  0.1255  0.0131
15960W        W32807  11.493   0.887   1.660  0.1370  0.0475 -0.0126
15961W        W32808   4.184  11.310  13.827 -0.0213  0.1451  0.0202
15962W        W32809  11.747   7.707  14.719 -0.0042 -0.0142  0.2963
15963W        W32810   8.331   4.169   2.700 -0.2730  0.5263  0.0933
15964W        W32811  12.960  11.774   5.013 -0.1251 -0.0576  0.0363
15965W        W32812   0.477  17.289  14.939 -0.2669 -0.1814  0.1755
15966W        W32813   0.163  16.966   2.747 -0.1070 -0.2256 -0.2626
15967W        W32814   3.190  10.114   3.151 -0.0246  0.1959  0.0178
15968W        W32815  12.261   9.923  12.662  0.0714 -0.2510 -0.4843
15969W        W32816  15.470  14.369  14.205  0.1255 -0.2518  0.3795
15970W        W32817   3.868  11.065   3.652  0.5486 -0.2053  0.2416
15971W        W32818   3.114   3.223  11.043  0.1151  0.3676  0.1154
15972W        W32819   2.951   1.767   5.279 -0.2031 -0.2252  0.4040
15973W        W32820   4.770  10.826  11.647 -0.3085  0.0823  0.1810
15974W        W32821   6.449  16.053  15.854  0.0967 -0.0698  0.2893
15975W        W32822   4.933   7.680  13.656 -0.0623  0.3115 -0.2942
15976W        W32823   8.892   1.943  12.985  0.0367  0.1328  0.1184
15977W        W32824   0.348   3.705  12.673 -0.0048 -0.1439 -0.0787
15978W        W32825   5.916   5.475   4.878 -0.3447 -0.0260  0.3710
15979W        W32826   5.990   8.733  13.501 -0.2063  0.5536  0.4294
15980W        W32827   4.087  10.835   4.431  0.1443 -0.1140  0.1815
15981W        W32828   0.064  18.124  12.122 -0.2420  0.0969 -0.2605
15982W        W32829  15.786  18.386   5.353  0.2898  0.3422  0.4183
15983W        W32830   7.729   9.134   5.286 -0.2281 -0.0333  0.0291
15984W        W32831   4.014   8.777  15.234 -0.0621 -0.0066 -0.0142
15985W        W32832   1.519   0.580  16.104  0.0121 -0.0690  0.2654
15986W        W32833   7.273  17.044  13.500 -0.1649  0.3332 -0.2345
15987W        W32834   5.656  12.185  16.222 -0.3021 -0.4507  0.1902
15988W        W32835   3.277   2.019  14.398  0.1390 -0.0362 -0.0156
15989W        W32836  12.582   6.222  12.039  0.1120  0.0771  0.0930
15990W        W32837   6.160  16.893   6.389 -0.0985 -0.0111  0.0631
15991W        W32838   3.459  17.587  16.367 -0.1191 -0.0612 -0.2652
15992W        W32839   7.154   2.269   5.200 -0.2091  0.3890 -0.1873
15993W        W32840  11.732   2.760   3.516  0.1259 -0.0742 -0.0358
15994W        W32841  14.183  13.131  14.356 -0.0196 -0.1688  0.1530
15995W        W32842   9.009   1.213   2.167  0.0522  0.1308 -0.0171
15996W        W32843  16.977  10.911   4.438  0.0836  0.0684  0.0476
15997W        W32844   4.783   5.080  13.770  0.4634 -0.2689  0.1216
15998W        W32845   9.481   0.173  13.863 -0.2872  0.1530 -0.0420
15999W        W32846  13.527   4.555  13.816 -0.2137  0.2506  0.6150
16000W        W32847   8.087   3.601  13.442  0.0641 -0.2808  0.1212
16001W        W32848   5.886   5.115   3.281  0.1788  0.4899 -0.1194
16002W        W32849  13.076   3.862   2.502 -0.3081  0.0763  0.0947
16003W        W32850  12.474   7.567  12.746  0.4591 -0.0690 -0.2659
16004W        W32851  12.743   6.630   3.527  0.0314  0.0460  0.2539
16005W        W32852   5.923  12.331   2.281 -0.0188 -0.1712 -0.1104
16006W        W32853  18.129   6.609   2.130 -0.1848  0.3763  0.3018
16007W        W32854   9.902   4.567  15.692 -0.0927 -0.1414  0.1057
16008W        W32855   4.404   5.489   5.636  0.4095 -0.3219 -0.0403
16009W        W32856   7.328   1.710   0.573 -0.0587  0.0598  0.1355
16010W        W32857  11.230  18.307   4.735  0.1596 -0.1612  0.0540
16011W        W32858   3.310  14.124  15.226  0.0916  0.1489  0.3133
16012W        W32859  17.641   2.974   4.281 -0.0031  0.0436 -0.0723
16013W        W32860   5.935  18.332   5.439 -0.0783  0.4377  0.0931
16014W        W32861   0.795   8.284  11.578  0.1618  0.4326 -0.3430
16015W        W32862   5.900   5.928   2.579 -0.1255  0.5389 -0.1191
16016W        W32863   8.051  11.597   2.312 -0.2374 -0.2405 -0.0680
16017W        W32864   3.606  12.311  12.194 -0.0071 -0.2562 -0.0946
16018W        W32865   5.818   1.381  12.240  0.1883  0.1612 -0.1731
16019W        W32866   3.168  13.576  11.881  0.1268 -0.3653 -0.2840
16020W        W32867  14.336   4.516   2.291 -0.1192  0.2650  0.3076
16021W        W32868   2.082   3.440   0.061  0.0049  0.3506 -0.1128
16022W        W32869   3.480   1.872   2.723  0.1000 -0.0118 -0.1540
16023W        W32870  12.841  15.549   5.045  0.2235 -0.3201 -0.0674
16024W        W32871  17.535  14.541   0.067  0.4372  0.3692 -0.0768
16025W        W32872   4.013   7.998   0.604 -0.0197  0.1812  0.2114
16026W        W32873  13.887  16.611  12.776 -0.1596  0.0878  0.0143
16027W        W32874  10.946   3.789   2.738  0.1666  0.1194 -0.1474
16028W        W32875   9.191  17.169   5.625 -0.0755  0.1523  0.1596
16029W        W32876   5.909  13.007   1.348 -0.1930 -0.2581 -0.0961
16030W        W32877   0.590   1.850  13.389  0.1184  0.2221  0.0334
16031W        W32878   0.976   9.374  16.140 -0.0590  0.1716 -0.0847
16032W        W32879   2.011  11.524   5.390 -0.0756 -0.2803  0.0640
16033W        W32880   9.915  11.943   1.905  0.0609 -0.0756 -0.1437
16034W        W32881  14.572   2.676  11.178 -0.1453  0.1643  0.1624
16035W        W32882  17.943   2.154   2.733 -0.0052 -0.2592  0.0472
16036W        W32883  11.626   3.865  11.324  0.1111 -0.0826  0.1367
16037W        W32884  11.561  12.320  14.649  0.2120  0.0756 -0.1939
16038W        W32885  12.000  17.152   2.875  0.2518  0.0207  0.1638
16039W        W32886  10.857   9.106   5.854  0.2353  0.1787 -0.1449
16040W        W32887   2.537   2.469  15.895  0.0973  0.2903  0.0190
16041W        W32888  11.509   1.734  14.282 -0.1116 -0.0711  0.1999
16042W        W32889  18.246   0.049   5.127  0.2801  0.0601  0.2307
16043W        W32890  13.012  11.294   1.937  0.0500  0.3661 -0.0596
16044W        W32891  15.443  10.594   1.752  0.1142  0.3689  0.1031
16045W        W32892   5.461  15.944  13.928  0.2450  0.0951 -0.0865
16046W        W32893  14.963  15.650  14.849 -0.2829 -0.0545  0.3468
16047W        W32894  14.089   4.954  14.518 -0.0196 -0.0248  0.3518
16048W        W32895   8.999   6.142   3.183 -0.0587  0.0522 -0.4000
16049W        W32896   1.736   8.076  14.025  0.1186 -0.1629  0.2829
16050W        W32897   4.015  15.414   3.571 -0.0929  0.1341 -0.0890
16051W        W32898   4.018  10.367   2.490  0.1576 -0.0646 -0.1152
16052W        W32899   7.461   6.012   3.584  0.0154 -0.1768  0.0670
16053W        W32900   9.584   4.334   4.378  0.0133 -0.0800 -0.0257
16054W        W32901   2.542   3.157   0.151  0.0749 -0.1078 -0.2468
16055W        W32902  14.810   4.417   1.116  0.0234  0.1118 -0.0715
16056W        W32903  17.600   5.823  15.211  0.0121 -0.1398 -0.1390
16057W        W32904  13.993   2.112  11.213  0.2872 -0.1410 -0.0640
16058W        W32905   3.566   4.661  11.131  0.1698  0.0943 -0.1131
16059W        W32906   0.424  12.867  13.562 -0.1292  0.1629 -0.0668
16060W        W32907   4.008  15.821   5.054 -0.1298  0.0519 -0.0509
16061W        W32908   5.856   1.011  11.761  0.3344 -0.0571  0.0346
16062W        W32909  16.966   3.678  14.288  0.1604  0.4736  0.2306
16063W        W32910  16.551   0.799  15.349 -0.2113 -0.2031  0.0318
16064W        W32911  11.935  15.175  13.823  0.3460  0.1837  0.2708
16065W        W32912   4.344  17.020   1.256 -0.0818 -0.0814 -0.0721
16066W        W32913  11.106  15.162   4.624  0.1478  0.1307 -0.1358
16067W        W32914   8.023   7.129  12.040 -0.3452  0.0502  0.2993
16068W        W32915   5.214   6.709  11.499  0.0268  0.1549  0.0086
16069W        W32916   7.498  11.553   0.660  0.1411  0.1876 -0.0392
16070W        W32917   2.128   3.783   5.341  0.2968 -0.0761 -0.2421
16071W        W32918   0.696   7.768  13.779  0.0516 -0.1438  0.1513
16072W        W32919  10.383   5.450   2.519  0.0528  0.1225 -0.2880
16073W        W32920   4.487  13.785   5.062  0.2361  0.3509 -0.1626
16074W        W32921  10.297  10.516   0.712  0.0143  0.0668 -0.1958
16075W        W32922   5.724  11.257  11.876  0.0972 -0.2766  0.2681
16076W        W32923  15.761  12.722   3.867  0.0840 -0.1083 -0.0758
16077W        W32924   1.398  17.508   4.533  0.0971  0.1380  0.0722
16078W        W32925  10.763  11.457   5.691 -0.1102  0.1719 -0.0621
16079W        W32926  11.734   2.884  11.992 -0.0435 -0.0139  0.0579
16080W        W32927   2.350  14.862  15.853 -0.1434 -0.1832 -0.5409
16081W        W32928   9.161   8.844   2.323  0.3271 -0.1138  0.0573
16082W        W32929  11.096   8.814   1.847  0.2684 -0.0908 -0.1896
16083W        W32930   5.023  17.054   4.508 -0.2430  0.0378  0.1732
16084W        W32931   4.607  12.546  12.035 -0.0900 -0.0493 -0.0896
16085W        W32932   5.132  12.502   4.841 -0.0141  0.1159 -0.0442
16086W        W32933  15.450  15.509  13.902  0.1815  0.0047  0.0259
16087W        W32934   8.466   2.901   5.792 -0.0167  0.0703  0.0825
16088W        W32935   7.775  12.340  13.916  0.5149  0.2649  0.1767
16089W        W32936  11.039  10.179  15.505 -0.1227  0.1182  0.2457
16090W        W32937   8.991  17.079  16.088  0.3789  0.0543  0.0933
16091W        W32938   2.297  17.247   0.075 -0.3257 -0.1737  0.2680
16092W        W32939   9.206   5.241   5.245 -0.3849  0.2470  0.0476
16093W        W32940  11.492   4.967  14.862  0.0095 -0.0917 -0.1020
16094W        W32941  14.688  10.922   2.930  0.2221  0.0888  0.1575
16095W        W32942   9.970  17.149   1.548 -0.1851  0.1819 -0.3271
16096W        W32943   4.160  10.616  15.017  0.1381  0.0637  0.1570
16097W        W32944   9.993  17.365  13.576 -0.2764 -0.1973 -0.0307
16098W        W32945   3.842  12.233   1.320  0.1875  0.1177 -0.0457
16099W        W32946   3.656   9.156   0.088 -0.0411 -0.3392 -0.1253
16100W        W32947   0.531   9.348   3.293 -0.0179  0.1370  0.1551
16101W        W32948   9.268   8.687   3.911  0.3114  0.0341 -0.2992
16102W        W32949  15.904  12.775   3.385 -0.1487 -0.2692  0.5613
16103W        W32950  17.188  11.466   2.411  0.3469 -0.1741  0.0134
16104W        W32951   1.415   4.546  15.122  0.0916  0.0868  0.2819
16105W        W32952   2.645   1.034   2.623 -0.0864 -0.0704  0.1696
16106W        W32953  12.018  13.323  15.477  0.1386  0.0403  0.1676
16107W        W32954   1.119  11.003   4.391  0.1626  0.3685  0.1254
16108W        W32955  12.656   4.443   3.384  0.1855 -0.3435  0.1027
16109W        W32956  14.128  11.444   3.147 -0.0360  0.0845 -0.0000
16110W        W32957   3.028   2.600   4.190 -0.0246  0.0949  0.0327
16111W        W32958  12.332  15.360   3.095  0.1250 -0.2422 -0.1265
16112W        W32959   5.811  10.249   5.836  0.2184  0.1076  0.4183
16113W        W32960  16.842   8.340   2.429  0.0452  0.0367  0.3706
16114W        W32961   7.736  18.001   2.200  0.0269 -0.0149  0.0858
16115W        W32962   3.249  15.031  11.599 -0.1595  0.2527  0.0332
16116W        W32963   2.760   7.494  14.650  0.1665 -0.0842 -0.0465
16117W        W32964   2.294  12.094   0.215 -0.4861  0.0122  0.1684
16118W        W32965   7.788   1.334  15.433  0.1774 -0.1555 -0.1386
16119W        W32966  12.767  16.532   2.840 -0.1037 -0.2753 -0.1414
16120W        W32967   9.128   0.580  14.740  0.3504 -0.2175 -0.2076
16121W        W32968   8.298   5.794   2.079 -0.0339  0.1600 -0.3440
16122W        W32969  10.087   9.532  12.579  0.2613  0.2438  0.2095
16123W        W32970   5.261   1.920   3.044 -0.0457 -0.1004  0.1389
16124W        W32971   1.974  16.574   2.616 -0.1595 -0.1201  0.0086
16125W        W32972   5.009  11.429   0.961  0.4003 -0.0771 -0.0142
16126W        W32973   4.575   0.470   1.647  0.0251 -0.1196  0.1327
16127W        W32974   3.087  13.882  12.910  0.1531 -0.1085 -0.1619
16128W        W32975  13.285  18.103  13.785  0.0100  0.1153  0.4310
16129W        W32976   1.532   4.595  14.294  0.0716  0.1838 -0.0372
16130W        W32977   9.051  17.911  16.109 -0.2441  0.1933 -0.0954
16131W        W32978   8.760   5.433  12.340  0.1920  0.0698 -0.0533
16132W        W32979   2.008  14.256  11.954 -0.2157 -0.1788  0.3283
16133W        W32980  15.656   5.147  13.726 -0.1123  0.2394  0.0067
16134W        W32981   4.347  13.046   2.589 -0.0812  0.0182 -0.0183
16135W        W32982  17.182   9.791  14.435  0.0141 -0.0697  0.0564
16136W        W32983   3.195   7.318   5.333  0.1316 -0.3134  0.1928
16137W        W32984   0.004   6.381   2.491  0.0071  0.1650 -0.0556
16138W        W32985  16.437  15.097   0.593  0.2711 -0.1515  0.2409
16139W        W32986  14.682   5.035  15.572  0.0030 -0.3189 -0.0119
16140W        W32987  13.968  17.665  14.522 -0.1337 -0.1230 -0.3976
16141W        W32988   6.539   4.807   0.753  0.0590 -0.4254 -0.1619
16142W        W32989  12.521   9.469  15.744  0.0526  0.0596 -0.2651
16143W        W32990   8.248   5.278  13.102 -0.0962 -0.0723 -0.1076
16144W        W32991   6.698  17.653   4.135 -0.0249  0.2277  0.3193
16145W        W32992   6.009  16.180   0.561 -0.0990  0.1420  0.2786
16146W        W32993   9.833   3.761  16.018  0.0683 -0.2548 -0.2019
16147W        W32994   3.943  16.614   1.847  0.0567  0.1712 -0.0033
16148W        W32995  13.737   0.558  14.860 -0.0568  0.1679  0.0313
16149W        W32996   5.833  13.598  15.216 -0.5648 -0.2586  0.0662
16150W        W32997  12.964  14.516   0.491  0.1453  0.0316 -0.1491
16151W        W32998  15.409   0.075   0.404  0.3455  0.2112  0.0624
16152W        W32999  17.180   9.960  15.441 -0.1095 -0.4905  0.5931
16153W        W33000  17.702   8.412   0.011 -0.0264  0.1779 -0.0374
16154W        W33001   7.182  16.272  13.482  0.2718  0.3593  0.0988
16155W        W33002  14.191   7.787  11.614  0.0627  0.2122 -0.0834
16156W        W33003  14.649   2.465   5.946  0.0429 -0.2265  0.1211
16157W        W33004   9.707   6.349  12.472  0.3077  0.1108  0.0995
16158W        W33005  15.315  14.756   5.493  0.1062  0.1306  0.1357
16159W        W33006   6.834   3.302  11.369 -0.0830  0.2438 -0.0238
16160W        W33007  14.102  10.176   3.992 -0.0199 -0.2508  0.0608
16161W        W33008  17.985  14.113  14.190  0.0821  0.1388  0.1342
16162W        W33009  16.275  10.948  13.140 -0.0934 -0.2512  0.2027
16163W        W33010  12.541   7.614  11.206 -0.0079 -0.1687  0.3132
16164W        W33011   5.745   2.680   5.688 -0.1090 -0.2607  0.1700
16165W        W33012   6.913   1.584   1.191 -0.1336  0.1623  0.2374
16166W        W33013  14.002  18.345   4.566  0.0425 -0.0664  0.3470
16167W        W33014   2.799   6.158  11.549 -0.1158 -0.2523  0.1756
16168W        W33015  10.694  11.536   3.997  0.1578 -0.1806 -0.2003
16169W        W33016  17.393  13.137   3.381 -0.0502 -0.1542  0.1241
16170W        W33017   6.651   6.147  14.132 -0.0366  0.1305 -0.3622
16171W        W33018   4.559  16.600   1.439  0.1633 -0.0099  0.0746
16172W        W33019   1.645   3.674   3.009  0.1766  0.1743  0.0217
16173W        W33020   7.140   6.359   0.912 -0.0718 -0.0414 -0.0247
16174W        W33021   0.025   8.851  13.888  0.0340 -0.0543 -0.0970
16175W        W33022   6.822  18.274  13.364 -0.1704  0.1405 -0.0559
16176W        W33023  14.546   8.764   2.874 -0.2876  0.0178 -0.0516
16177W        W33024  11.245   7.638   2.437 -0.0305  0.0064 -0.0049
16178W        W33025   3.749   9.530   4.016 -0.1693  0.1690 -0.1114
16179W        W33026   2.682  16.639   1.048  0.1907  0.0396 -0.3069
16180W        W33027   9.840   6.357  13.307 -0.0483  0.5332 -0.2752
16181W        W33028   4.613   1.738   1.290 -0.2904  0.1550  0.1443
16182W        W33029  12.873  13.453  14.146  0.0362  0.3821 -0.0834
16183W        W33030   7.573  14.885  14.642  0.1815 -0.0105  0.1756
16184W        W33031  15.119   2.058   5.743  0.4075 -0.1728 -0.0465
16185W        W33032   9.333   9.844   2.356  0.0094 -0.1888 -0.0698
16186W        W33033  17.920   4.690  13.421  0.2596 -0.2226  0.1581
16187W        W33034  14.965   9.506  15.567  0.0889  0.1270 -0.1011
16188W        W33035  16.704   1.031  12.193 -0.0270 -0.0271 -0.0302
16189W        W33036  10.507   9.688  12.303 -0.0907  0.0056 -0.0631
16190W        W33037  13.221  10.434  12.563  0.4641  0.3930  0.4207
16191W        W33038   1.466   9.843  11.039 -0.0329  0.1205 -0.2116
16192W        W33039  13.809  14.202  13.287 -0.2045 -0.1141  0.1029
16193W        W33040  11.722  17.524   1.762  0.2453 -0.1137  0.0183
16194W        W33041   1.658   1.034  12.145 -0.0644 -0.2408 -0.2223
16195W        W33042   1.472   9.095   0.295 -0.0445  0.1556  0.0582
16196W        W33043  12.173  18.210   2.827  0.3691 -0.4712 -0.0497
16197W        W33044  12.969   5.715   1.891 -0.2671  0.2042  0.1758
16198W        W33045  16.086   2.652  12.572 -0.0792 -0.1043  0.0272
16199W        W33046   5.348   7.663  13.019 -0.0155  0.0044  0.2072
16200W        W33047   9.057  11.510  12.260 -0.1322  0.3970 -0.0278
16201W        W33048   1.677  13.756   1.285 -0.0337 -0.1178 -0.1713
16202W        W33049   2.767  14.704   1.970  0.0449 -0.0005 -0.2133
16203W        W33050   0.602  12.777  11.618 -0.0589 -0.2324 -0.0739
16204W        W33051   1.718  10.224   4.549  0.4364 -0.1013 -0.2445
16205W        W33052   8.776  12.724   2.861 -0.0923  0.1447 -0.2282
16206W        W33053   2.939  10.220  12.971  0.1884  0.2902  0.2348
16207W        W33054   0.154  17.385   1.733  0.1902 -0.1773 -0.1151
16208W        W33055  13.025  18.192   3.235 -0.0478  0.0644  0.0545
16209W        W33056   6.208  15.704   0.732 -0.1905  0.2022  0.0995
16210W        W33057   2.567  18.175  11.254 -0.0408 -0.2617 -0.3236
16211W        W33058   0.212   2.749   4.711  0.2061 -0.2504  0.0277
16212W        W33059   6.485   7.666   2.841 -0.4221 -0.2319 -0.3122
16213W        W33060  16.223  16.990   2.158 -0.0884  0.1566  0.1408
16214W        W33061   9.869  10.764   2.608  0.0923 -0.0559  0.4411
16215W        W33062   2.849  16.170   0.895  0.3537  0.1223  0.1968
16216W        W33063   3.986   0.561   3.526  0.1918 -0.1316  0.3447
16217W        W33064   8.617  15.725   4.529  0.0556 -0.1280  0.1873
16218W        W33065   0.994  13.546   2.374 -0.1597  0.1900 -0.0388
16219W        W33066   9.389   1.695  11.390 -0.0842  0.2440 -0.1726
16220W        W33067  15.685   7.784  14.385 -0.0981 -0.2786  0.0628
16221W        W33068  12.155   7.498   2.636  0.0720 -0.0703 -0.2475
16222W        W33069  15.345   5.443  13.475  0.0064  0.1915  0.2860
16223W        W33070   5.542   1.976  14.857  0.3710  0.0027 -0.0961
16224W        W33071  13.842   7.463   5.606  0.1599 -0.0996 -0.1039
16225W        W33072  13.005   0.549  15.396 -0.5041  0.0345 -0.0985
16226W        W33073   6.011   4.188   4.684  0.1791 -0.2013 -0.1425
16227W        W33074  17.198   9.603  11.385  0.2850  0.0168 -0.3482
16228W        W33075   6.020  11.140   0.845  0.0815 -0.0620 -0.0680
16229W        W33076   8.651   1.414  12.452  0.2226 -0.0074 -0.1565
16230W        W33077  18.048  10.155   5.882  0.0483 -0.0793  0.0077
16231W        W33078  10.966  16.922  15.900  0.0591 -0.1127 -0.1504
16232W        W33079   6.809   2.425  13.302 -0.2189  0.4005 -0.1310
16233W        W33080  12.294   6.919   4.079 -0.0399  0.3002  0.0700
16234W        W33081   7.548  10.407   0.282  0.1677  0.0420  0.3385
16235W        W33082  12.144   4.885   2.949 -0.0186 -0.2519  0.0941
16236W        W33083   1.909  11.044  12.470  0.0582 -0.1484  0.1327
16237W        W33084   8.241  11.394   1.347 -0.0664  0.0476 -0.3924
16238W        W33085   4.707   8.121  12.911 -0.0456  0.1085  0.0951
16239W        W33086   7.390  13.756  12.421  0.0859 -0.0952 -0.1743
16240W        W33087   3.041   5.894  14.717  0.3057  0.1504 -0.0956
16241W        W33088   5.990   6.071  14.641  0.0683  0.0688  0.1932
16242W        W33089   4.628  14.831  12.910  0.0604  0.1327 -0.0086
16243W        W33090  16.054   6.908   0.064  0.2210 -0.2739 -0.2893
16244W        W33091   9.274   2.742   3.205  0.0846  0.0231 -0.0918
16245W        W33092  14.835  12.954  13.698  0.0937  0.2763  0.1819
16246W        W33093  13.469   4.932  15.039 -0.1331  0.0947  0.0162
16247W        W33094   3.599  15.354   1.403 -0.1399  0.0149  0.1674
16248W        W33095  11.819   9.138  13.403 -0.1467 -0.2631 -0.2684
16249W        W33096   5.601   0.507   2.593  0.0066 -0.0440  0.1375
16250W        W33097   8.333   7.543   1.072  0.0063 -0.0942 -0.1011
16251W        W33098   9.720  10.984   3.253  0.2118 -0.3164 -0.1696
16252W        W33099  12.229   2.269  13.812 -0.0681 -0.0922  0.2016
16253W        W33100  16.503  10.724  15.364  0.2843  0.1366  0.0646
16254W        W33101  16.167  15.833   5.408  0.1477  0.1094 -0.0009
16255W        W33102  15.559  16.483  13.842  0.0202 -0.3241  0.0383
16256W        W33103   1.332  13.315   3.206 -0.0259  0.2736 -0.1538
16257W        W33104  13.764   2.311  15.739  0.1729  0.4167  0.2230
16258W        W33105   7.796   4.809   1.391  0.2290  0.2770 -0.0751
16259W        W33106  17.603   2.671  10.175  0.1187  0.0273 -0.0107
16260W        W33107   9.247   0.281  16.173 -0.2796 -0.0297 -0.0139
16261W        W33108  10.537  16.709  12.605  0.0107 -0.1832  0.0755
16262W        W33109  15.476   4.707   4.949 -0.1541 -0.2460  0.1283
16263W        W33110  14.891   8.137  13.259 -0.1134  0.1511 -0.2087
16264W        W33111  10.154   8.919   3.898 -0.2496 -0.0194  0.0558
16265W        W33112   9.265   0.472   0.756  0.1680 -0.1791  0.0454
16266W        W33113   3.292  12.162  15.043  0.0441  0.0219 -0.0822
16267W        W33114  12.129  10.300   5.357  0.3492 -0.1197  0.0070
16268W        W33115   1.726   9.866   3.725 -0.1895  0.0264  0.1126
16269W        W33116  14.952  10.801   2.501  0.1459  0.2197  0.2333
16270W        W33117  15.428   5.814   3.892  0.0066  0.0704  0.0699
16271W        W33118   5.870   5.342   0.157  0.1388  0.3589 -0.2980
16272W        W33119  17.661   4.571  15.093  0.0480  0.2179  0.0994
16273W        W33120   6.361  11.781   4.036  0.3490  0.0065 -0.1626
16274W        W33121   6.377  12.832  13.297  0.0679 -0.2371 -0.0546
16275W        W33122  17.682  11.594  13.085 -0.2261  0.1600  0.0806
16276W        W33123  10.309  11.905   2.333  0.2659  0.3323 -0.2413
16277W        W33124  17.042  18.003  14.742  0.0211 -0.1909  0.0356
16278W        W33125   2.542  13.503   1.487  0.3188 -0.0362  0.1842
16279W        W33126  12.669   4.907  13.067 -0.0885 -0.2935 -0.0330
16280W        W33127  16.227   0.062   4.041  0.0509 -0.1209 -0.4760
16281W        W33128   2.733  12.722   4.911  0.3456 -0.2568  0.0839
16282W        W33129   1.870   7.161   0.479 -0.1274  0.2713 -0.3500
16283W        W33130   4.170   9.945  13.281 -0.2839  0.2608 -0.2549
16284W        W33131   6.795  16.749   4.788  0.0143 -0.0275  0.4044
16285W        W33132   0.568   1.070  13.036 -0.2544 -0.1212  0.0894
16286W        W33133  12.568   5.635  10.064  0.0392  0.1695 -0.0992
16287W        W33134   0.672  10.012  15.799 -0.0989  0.0501  0.1296
16288W        W33135  12.130  14.438  16.272 -0.2378  0.0560  0.0206
16289W        W33136   3.764   8.398   3.243  0.0533 -0.1949  0.0928
16290W        W33137   2.729  11.038   4.091 -0.0449 -0.2262 -0.4639
16291W        W33138  12.414  15.076  12.651  0.0320  0.0575 -0.0954
16292W        W33139   0.038  16.156  14.677 -0.0366 -0.0708  0.4627
16293W        W33140  12.187  14.170   4.298 -0.0140 -0.1483 -0.0764
16294W        W33141  10.330  14.936   4.910 -0.1985  0.0745 -0.0844
16295W        W33142  11.726   7.829  12.628  0.2599  0.0140 -0.1239
16296W        W33143   6.278  11.626   0.703 -0.1717  0.3189 -0.1102
16297W        W33144  14.915   3.636  11.881  0.0494  0.1084  0.0213
16298W        W33145   9.124   4.487  16.032 -0.1400  0.1150  0.0865
16299W        W33146   9.929  15.167  11.937  0.4629 -0.2924 -0.1192
16300W        W33147   3.547  11.716   0.538 -0.0968  0.0539  0.0329
16301W        W33148   5.026  18.094  14.797 -0.1747 -0.1102  0.0892
16302W        W33149   1.129   0.510  14.656 -0.5459  0.1762 -0.0504
16303W        W33150   6.208   6.310   0.874  0.0490  0.0044 -0.1368
16304W        W33151   1.886  16.036   0.922 -0.1095 -0.1333 -0.1159
16305W        W33152  13.925   5.380   5.094  0.0628  0.1960 -0.2954
16306W        W33153   5.330  13.626  14.459 -0.0051 -0.1235  0.1286
16307W        W33154   8.237   3.426  12.534  0.2922 -0.0891 -0.1491
16308W        W33155   3.296   9.466   1.238 -0.2833 -0.2749 -0.1396
16309W        W33156  17.240   6.538   4.247  0.1256 -0.0205 -0.1794
16310W        W33157  11.488  10.467   1.151  0.1345 -0.2424  0.3845
16311W        W33158   3.721   7.811   4.749  0.0823  0.2693  0.3456
16312W        W33159   9.283  17.087   2.766 -0.3166 -0.0007 -0.0338
16313W        W33160  10.890  15.123   0.921  0.0601 -0.0516  0.0511
16314W        W33161   9.177  15.538   0.109  0.1512 -0.1026  0.1950
16315W        W33162   1.402   3.235   1.288 -0.1971  0.0710 -0.2457
16316W        W33163   6.356  15.713   2.398 -0.1325 -0.5038  0.0185
16317W        W33164  17.978   0.993  11.902  0.2134 -0.0006 -0.2010
16318W        W33165  13.349   6.725   1.349  0.0017 -0.3583 -0.2093
16319W        W33166   3.972   6.667  15.500 -0.3624  0.0280  0.0232
16320W        W33167   6.708   7.219  12.429 -0.3650 -0.0350  0.0174
16321W        W33168  17.584  14.045   1.142 -0.1146  0.0555  0.3226
16322W        W33169  14.045  13.632   0.974 -0.0153 -0.1732  0.1352
16323W        W33170  13.364  15.686  12.199 -0.1144  0.0460 -0.3200
16324W        W33171  17.183   0.402  12.952 -0.0621 -0.0591 -0.3438
16325W        W33172  13.618  16.494  10.987  0.3637 -0.1708 -0.1169
16326W        W33173  10.385  15.430   0.907 -0.0052 -0.2651 -0.1985
16327W        W33174  16.958   6.118   1.681  0.1184 -0.1025  0.1437
16328W        W33175  13.080   1.075  13.414  0.1510 -0.2676 -0.2109
16329W        W33176   4.832  13.455   1.776  0.1057  0.1112  0.1567
16330W        W33177  12.309  17.394   5.854  0.2181 -0.1222  0.1942
16331W        W33178   7.104  12.814  15.746  0.3469 -0.0937  0.1183
16332W        W33179   1.649  12.957  15.292  0.3041  0.2498  0.2011
16333W        W33180  15.656  16.904  12.369  0.0682  0.2482  0.0689
16334W        W33181   5.040   6.906   0.466 -0.1889  0.0980  0.1569
16335W        W33182  18.224   1.470  15.832  0.1406  0.2677 -0.0400
16336W        W33183  12.096   0.964  13.641 -0.1560  0.0545 -0.1104
16337W        W33184   3.907   0.237  14.958 -0.2567 -0.2351 -0.4764
16338W        W33185   5.634  16.468   0.595 -0.0339 -0.0274 -0.3526
16339W        W33186   8.961  13.605   2.216  0.0922 -0.2920 -0.0877
16340W        W33187   2.636  17.431  12.016 -0.0809 -0.1064 -0.2458
16341W        W33188  16.796  10.546  14.921  0.1499 -0.4187  0.4004
16342W        W33189  14.874  11.286   2.708 -0.1525 -0.0783 -0.4836
16343W        W33190   4.839   3.223  12.139  0.1778  0.0385  0.0492
16344W        W33191   7.097  13.146   1.032 -0.0585  0.0577 -0.3052
16345W        W33192   1.133  14.845  13.642  0.1616  0.1973 -0.0826
16346W        W33193   5.536  10.722   3.252 -0.1664 -0.1277  0.0507
16347W        W33194  16.353  10.150  14.421 -0.0768  0.6420  0.0131
16348W        W33195  10.332   0.466  12.601  0.3949  0.3004 -0.1754
16349W        W33196  13.090   2.875   2.580  0.0226  0.0517  0.1156
16350W        W33197   4.421   7.125   5.522 -0.0718 -0.0655 -0.0054
16351W        W33198  14.867  16.447  13.678  0.1602 -0.1648 -0.3382
16352W        W33199   1.774   2.022   4.153 -0.0250 -0.1962  0.1086
16353W        W33200  14.456   9.344   4.916 -0.1246  0.0821 -0.0048
16354W        W33201  18.412   5.677   3.789 -0.0599 -0.2105  0.0652
16355W        W33202  15.001  14.173  12.612  0.0489  0.1285 -0.0268
16356W        W33203  11.176   3.586  15.916  0.6778  0.0705 -0.0009
16357W        W33204  17.619  17.719   0.179 -0.3548 -0.0219 -0.2757
16358W        W33205  18.215  15.000   4.836  0.0494 -0.0283 -0.0886
16359W        W33206   9.860   0.191   3.449  0.3453  0.2738  0.2062
16360W        W33207   5.305  14.965   0.900 -0.1703  0.2651  0.0566
16361W        W33208   3.886   9.507  15.749 -0.1747 -0.0206  0.0900
16362W        W33209   8.027   8.989   3.907 -0.2456 -0.1393  0.1651
16363W        W33210  16.309   1.092  16.324 -0.1318  0.2028 -0.0953
16364W        W33211   1.632  11.157  13.425 -0.2617 -0.2726  0.0055
16365W        W33212  17.458   2.031  16.043  0.0543 -0.0325  0.0535
16366W        W33213  11.675  18.200  14.947 -0.4934 -0.0493 -0.3930
16367W        W33214   5.017   9.101   0.537 -0.2801  0.0616 -0.0866
16368W        W33215  16.468  18.415   1.392  0.1813  0.2602  0.3063
16369W        W33216   9.428   7.450   3.709 -0.2318 -0.0778 -0.0257
16370W        W33217   7.708  10.652   1.803 -0.1612 -0.1916 -0.0588
16371W        W33218   1.492  12.368   1.778  0.2580  0.0687  0.2860
16372W        W33219   5.643  13.228   2.079 -0.0156  0.1744 -0.2386
16373W        W33220  13.565   0.200  16.135  0.0623 -0.2693  0.2111
16374W        W33221   1.848   9.999   1.210  0.2144  0.0082 -0.2006
16375W        W33222   0.965   1.433  11.657  0.2526 -0.1902  0.2770
16376W        W33223   6.875   3.327  14.116  0.2914  0.2527 -0.0972
16377W        W33224   4.963   5.306   1.796 -0.3080 -0.0758 -0.1419
16378W        W33225  15.633   2.474   5.213  0.0064 -0.0089 -0.0805
16379W        W33226   3.470   7.310   4.934 -0.3409 -0.0270 -0.0159
16380W        W33227   1.259   4.658   1.813 -0.0646  0.2657 -0.1364
16381W        W33228   0.297  13.123   5.377  0.3628 -0.0839  0.1148
16382W        W33229  12.559  15.819  16.355 -0.1103 -0.2454 -0.3025
16383W        W33230  15.144  15.382  16.247 -0.0954  0.0432 -0.0369
16384W        W33231   2.220  13.938  12.817 -0.1479  0.2558 -0.1081
16385W        W33232   1.436  17.492   2.679  0.4841 -0.0961  0.1850
16386W        W33233   0.006   6.615  14.351  0.0498 -0.0656  0.0268
16387W        W33234  11.413   8.268  13.308  0.1572  0.1800  0.1404
16388W        W33235   8.255  10.208   1.279  0.0102  0.1723 -0.1936
16389W        W33236   4.464   3.412  15.015 -0.1664 -0.0142 -0.0114
16390W        W33237   8.689  18.144  15.674 -0.0576  0.2474  0.1071
16391W        W33238  17.024   5.081  13.614  0.2319  0.1284  0.4555
16392W        W33239  11.351   6.328  14.469  0.0500  0.2344  0.1274
16393W        W33240   2.188  16.290   4.009  0.0014  0.2341  0.0416
16394W        W33241   1.458   8.445   4.203 -0.0338 -0.1538 -0.0260
16395W        W33242  12.067  10.937   1.272 -0.5401  0.1255  0.0907
16396W        W33243  11.944   1.213  15.400 -0.1645  0.2963  0.1736
16397W        W33244  13.461  10.628   3.381 -0.0943 -0.0988 -0.0577
16398W        W33245  15.967   2.333  15.783 -0.0536  0.0470  0.0650
16399W        W33246  11.443  16.847   4.365  0.1205  0.0184 -0.0544
16400W        W33247   0.196  15.013   5.961  0.2143  0.0784  0.1893
16401W        W33248  13.015  16.842  15.898  0.2099 -0.1103 -0.1302
16402W        W33249   6.235   7.693  14.951  0.0361 -0.5512  0.0630
16403W        W33250   9.887   8.243   3.872  0.0491 -0.1160 -0.2580
16404W        W33251  11.903   3.132  14.839  0.0515  0.1411 -0.0458
16405W        W33252  10.209  11.653   3.769 -0.2669 -0.2740  0.5395
16406W        W33253  11.517   6.810   2.650  0.0116  0.0561 -0.2145
16407W        W33254  18.387   6.309  12.210 -0.0260  0.1580 -0.0715
16408W        W33255   8.782  12.655  13.894  0.0136 -0.2129 -0.1307
16409W        W33256  13.792   7.770  11.964 -0.0084 -0.1315 -0.1700
16410W        W33257  17.879   4.468   2.839 -0.2249 -0.1541  0.3326
16411W        W33258  12.714  14.354  15.910 -0.1301 -0.0118 -0.0450
16412W        W33259   1.381   3.223  10.619 -0.0516  0.3201  0.3695
16413W        W33260   2.213   4.628  14.816 -0.0786  0.1976  0.0215
16414W        W33261   2.378  11.244   2.174  0.0073 -0.0326 -0.2426
16415W        W33262   6.286  11.188  13.814  0.2344  0.0989 -0.1948
16416W        W33263   5.818   7.490  13.436  0.2408  0.1562  0.1673
16417W        W33264   3.615   7.706   5.286 -0.0332  0.0466  0.1641
16418W        W33265   7.717  14.769   2.442  0.4012 -0.0010 -0.2044
16419W        W33266  15.272   4.563   1.867  0.2600  0.3279 -0.0446
16420W        W33267  15.660  11.552  16.135 -0.0621 -0.0293  0.0916
16421W        W33268   5.635  16.987   5.632  0.0641 -0.0901  0.0836
16422W        W33269   9.228  10.421  12.222 -0.0151  0.3609 -0.2188
16423W        W33270   5.931  14.624   3.572 -0.1709  0.3088  0.1734
16424W        W33271   5.617  14.302   0.349 -0.1129  0.1702  0.0627
16425W        W33272  11.167  18.151   2.876  0.0565  0.3322 -0.1975
16426W        W33273   3.095  17.141   4.260 -0.2931  0.0947  0.0689
16427W        W33274   2.980   6.553  14.604 -0.3486  0.0929 -0.2251
16428W        W33275   2.166  13.541  12.474  0.3202 -0.2111 -0.1852
16429W        W33276   1.810  12.124   2.375  0.0084  0.0416 -0.0316
16430W        W33277  12.017   6.860  15.222  0.0794  0.0408  0.2276
16431W        W33278  11.558   1.739  13.338 -0.0589  0.0083  0.1258
16432W        W33279   7.717   9.365   1.853 -0.1488  0.1295 -0.0414
16433W        W33280   1.547  13.992  14.445 -0.2835  0.0802  0.0952
16434W        W33281   1.171   8.203  12.441 -0.2734  0.0417 -0.0126
16435W        W33282  18.228   1.676   0.777  0.0366  0.3161 -0.2758
16436W        W33283  11.399  15.440  11.574  0.2693  0.2888 -0.2578
16437W        W33284   6.133  12.131   0.761  0.1249  0.1111 -0.0959
16438W        W33285   1.745  11.491   1.092 -0.1489  0.1247  0.2456
16439W        W33286   6.585  12.586   4.637 -0.0826  0.2127 -0.1861
16440W        W33287  12.870  17.265   1.259 -0.2665  0.0183 -0.0959
16441W        W33288  10.505   2.132   1.760 -0.2105 -0.1965 -0.0595
16442W        W33289  12.928  15.852   3.316 -0.2025 -0.0336 -0.0470
16443W        W33290   9.723  12.225   3.829  0.1296 -0.4701  0.2765
16444W        W33291   8.555   5.037  16.194  0.0781  0.1209  0.3032
16445W        W33292   7.048   0.142  13.677 -0.1238 -0.0701 -0.3257
16446W        W33293   3.604   0.213   2.094  0.2439  0.1184 -0.0171
16447W        W33294   6.725   8.778   1.116 -0.1238 -0.2708  0.0160
16448W        W33295  15.932  10.235  13.653 -0.0224 -0.2384 -0.1638
16449W        W33296  16.630   9.443  12.885  0.2157 -0.1514  0.1772
16450W        W33297   2.877   0.896   0.584 -0.1808  0.2389 -0.1350
16451W        W33298  11.026   5.705  13.254  0.1561  0.3834 -0.3500
16452W        W33299   1.768   9.507   1.112  0.4346  0.1969  0.5252
16453W        W33300  11.149  13.690  15.111  0.1170 -0.0399  0.1079
16454W        W33301   0.552  17.730   2.467  0.3209 -0.1095 -0.2417
16455W        W33302  15.465  13.320  11.687  0.1008  0.1074  0.0496
16456W        W33303  14.104  16.577  11.384 -0.1747  0.1916 -0.0271
16457W        W33304   5.914  18.268   1.968  0.1732  0.1243  0.1062
16458W        W33305   3.142  10.911   1.728  0.0423  0.2121  0.1388
16459W        W33306  12.672   8.242  14.957 -0.0683 -0.0075  0.3075
16460W        W33307  12.601  15.786   2.320 -0.2814 -0.1288  0.1571
16461W        W33308  17.854   5.370  12.956  0.2065  0.1306 -0.1893
16462W        W33309   5.887  17.556  14.909 -0.2150 -0.0928  0.0277
16463W        W33310   5.218  11.436   6.288  0.1363 -0.1191 -0.0739
16464W        W33311   7.567  15.045  13.544 -0.0989  0.0024 -0.0802
16465W        W33312   1.114  14.224   1.661  0.2026 -0.1652 -0.4144
16466W        W33313   5.172  10.551  15.721  0.1217  0.3720 -0.1286
16467W        W33314  14.115  18.069  11.347 -0.3221  0.1577 -0.0250
16468W        W33315  18.011   2.863   0.399 -0.0740 -0.4912 -0.1673
16469W        W33316  12.481   3.408   1.086  0.0575 -0.0055  0.1152
16470W        W33317   0.979   2.981  12.155  0.0595 -0.0481 -0.2495
16471W        W33318   2.764   4.084   4.556 -0.3222 -0.0687  0.3637
16472W        W33319   7.793   5.649  13.423  0.0177 -0.1540 -0.0464
16473W        W33320   4.057  15.309   4.878  0.0763 -0.0937 -0.0930
16474W        W33321  17.085  14.455   0.328  0.2037 -0.0224  0.0075
16475W        W33322  10.527   4.201  12.496  0.0871  0.0887 -0.3231
16476W        W33323  17.823  16.751   1.666 -0.0992  0.1815  0.0979
16477W        W33324  11.405   9.029  14.579 -0.1495  0.4117 -0.3223
16478W        W33325  17.357   3.028  13.997 -0.0872 -0.0833  0.1858
16479W        W33326  18.160   5.518  11.419 -0.1365  0.0360  0.1506
16480W        W33327  14.401  14.371  11.679 -0.1777  0.1076 -0.2025
16481W        W33328  17.167   2.874  15.517 -0.1661 -0.3437  0.0892
16482W        W33329   1.997  15.579  11.965  0.2059 -0.0899 -0.0031
16483W        W33330   7.371   0.380   6.208 -0.1085  0.1682  0.2721
16484W        W33331   9.430   1.028   0.725  0.3087  0.0338  0.0936
16485W        W33332  16.289  10.386  14.870 -0.0018 -0.3002  0.2704
16486W        W33333   0.750   0.047  11.963 -0.1746  0.1481  0.0704
16487W        W33334  13.532  12.436  11.696 -0.2980 -0.2152 -0.0548
16488W        W33335   2.472  16.588  15.409  0.0436 -0.0836  0.0614
16489W        W33336   4.689  17.228   0.387  0.0241 -0.1151  0.4268
16490W        W33337   9.773  12.853   4.495 -0.0620  0.0162 -0.1022
16491W        W33338  18.360  18.297   1.093 -0.2739 -0.0045  0.2503
16492W        W33339  11.274   1.892  11.589 -0.1316  0.5531 -0.3078
16493W        W33340  10.961  16.795   0.057  0.2644 -0.3700  0.1727
16494W        W33341  16.817   9.781  12.594  0.0060  0.3022  0.1820
16495W        W33342  16.080   8.723   5.511  0.2725  0.2075  0.3312
16496W        W33343  17.377   8.362   0.981  0.0503 -0.2075  0.3278
16497W        W33344   6.631  16.185  14.966 -0.0069  0.2158 -0.0569
16498W        W33345   8.368   9.702   2.172  0.0282  0.2769 -0.4782
16499W        W33346   1.100  14.604   3.239 -0.0881  0.2038 -0.1392
16500W        W33347   7.304   5.266  11.539 -0.0711  0.0417  0.1426
16501W        W33348   9.929  10.838  15.896 -0.2058 -0.3555  0.0060
16502W        W33349  17.918   0.368   3.591  0.1510  0.2364 -0.0161
16503W        W33350  15.295   3.318   1.082  0.5121  0.3705 -0.2114
16504W        W33351   1.648  14.714  12.718 -0.0719 -0.0439 -0.3595
16505W        W33352  16.271  17.601   2.389 -0.1531  0.2388  0.0768
16506W        W33353  13.300   7.945  11.724 -0.1245  0.2552  0.0645
16507W        W33354  11.313   5.291   5.338 -0.0010  0.2055 -0.2475
16508W        W33355  10.008   4.367  13.023  0.0542  0.2109 -0.0542
16509W        W33356   8.383   6.945   5.603  0.2889 -0.0210  0.0784
16510W        W33357  18.206  14.006  14.692 -0.3722 -0.1021  0.1522
16511W        W33358   3.374  12.674   1.907 -0.3486  0.1111 -0.3323
16512W        W33359   2.643  13.641   5.078  0.2374 -0.0690 -0.0668
16513W        W33360  12.957  16.249   2.288 -0.0215  0.1307 -0.1741
16514W        W33361   3.965   1.537   3.560 -0.2017 -0.0238 -0.0530
16515W        W33362  15.079  10.347   2.292  0.1240 -0.0800 -0.2111
16516W        W33363   7.310  13.448   0.724 -0.2032 -0.1501 -0.0775
16517W        W33364   5.781  13.664   4.704  0.0569  0.3189 -0.0355
16518W        W33365   3.193  17.937  12.363  0.0568 -0.0823  0.3285
16519W        W33366   9.418   9.486  12.736  0.0310  0.0349 -0.0807
16520W        W33367   7.419   1.556   4.040  0.4574 -0.0207 -0.1529
16521W        W33368  10.495   7.612  15.308 -0.0148 -0.1542  0.0417
16522W        W33369   9.174  13.051   2.907  0.1499 -0.1111  0.0586
16523W        W33370   8.109   6.591  12.249 -0.0382  0.0485 -0.4889
16524W        W33371  13.755  12.582   4.420  0.2547 -0.4073 -0.2873
16525W        W33372   3.296  18.232   2.027  0.2693  0.1506  0.1936
16526W        W33373   3.854  12.809   4.873 -0.0053 -0.0632  0.1812
16527W        W33374  15.830  12.193  11.912 -0.1641  0.2910 -0.0769
16528W        W33375   8.508   1.529  14.063 -0.1203 -0.1250  0.1724
16529W        W33376   4.249   6.224   5.581  0.1502  0.0027 -0.1499
16530W        W33377   6.826   1.301   3.354 -0.0712 -0.0370  0.1766
16531W        W33378  12.414  14.056   0.213 -0.2885 -0.1985 -0.0732
16532W        W33379  10.628   8.003  14.430  0.3086  0.1817 -0.2663
16533W        W33380  12.085  16.738  13.251 -0.0025 -0.2141 -0.1216
16534W        W33381   5.522  16.409  14.948 -0.0076  0.2260  0.0711
16535W        W33382   9.984  12.816   2.479  0.0348  0.0724  0.0170
16536W        W33383   4.182  12.843   2.127 -0.0196 -0.1125 -0.2162
16537W        W33384  11.126   0.486   1.661  0.3497 -0.0271 -0.4224
16538W        W33385  16.593  12.824  13.798 -0.1997 -0.2069  0.0174
16539W        W33386  11.987   4.185   1.857  0.1071  0.0411  0.0016
16540W        W33387  12.052  16.573  14.147 -0.2471  0.1170 -0.0856
16541W        W33388   0.165   2.256  10.902 -0.0549  0.0669  0.0052
16542W        W33389   9.945   4.146   0.171 -0.1128  0.1388  0.2985
16543W        W33390   0.416   6.694  11.219  0.0414  0.0985  0.0649
16544W        W33391   0.577   0.855   3.241 -0.2306  0.1300  0.3811
16545W        W33392   2.380   1.462  15.351  0.2135 -0.2927  0.0443
16546W        W33393   3.692  16.882  13.115 -0.1139  0.1158  0.2052
16547W        W33394  12.088   1.124   5.013  0.1197 -0.1670 -0.4523
16548W        W33395  10.121  12.722   5.290  0.1193 -0.2673  0.1509
16549W        W33396  15.770  12.192   0.036 -0.0726  0.1264 -0.1734
16550W        W33397  11.853  10.631  13.154 -0.1865 -0.2387  0.1719
16551W        W33398  11.319   3.181   0.486  0.1196 -0.2554  0.0089
16552W        W33399  14.111   0.604  13.779 -0.1676  0.5505  0.1679
16553W        W33400   3.772  17.554   4.805 -0.3270 -0.4200  0.1067
16554W        W33401  11.123   4.564   2.103 -0.2081  0.0974  0.1172
16555W        W33402   6.012  15.487   1.978 -0.1062 -0.0067 -0.0317
16556W        W33403  12.747  12.746   2.072  0.3355  0.0409  0.2124
16557W        W33404   5.924   7.495  15.842 -0.1614 -0.0749  0.2148
16558W        W33405   1.483   0.972   2.139  0.0783  0.2710  0.3408
16559W        W33406   0.808  12.926  16.124 -0.2428 -0.0458  0.0502
16560W        W33407  13.233  17.335   3.386  0.0754 -0.2592  0.0964
16561W        W33408  11.159   4.991  14.434 -0.0434 -0.1029  0.1308
16562W        W33409   2.414   1.789  14.515 -0.0601  0.2730  0.0748
16563W        W33410   7.295   4.581   3.817 -0.1510  0.3328  0.2905
16564W        W33411   0.517  13.697  12.914 -0.2755 -0.0699  0.3265
16565W        W33412   3.515  16.367   2.026 -0.1454 -0.1490  0.0540
16566W        W33413   9.898   3.823   0.951  0.1415  0.1473 -0.0644
16567W        W33414   7.461   0.766   5.764 -0.2099 -0.0368 -0.3859
16568W        W33415  14.032  17.580  11.867 -0.0909 -0.2072 -0.1040
16569W        W33416   2.670  12.481   4.347  0.0135 -0.2556  0.0976
16570W        W33417   4.721   1.679  12.841 -0.0140  0.0518 -0.4217
16571W        W33418   9.884  10.347   0.432  0.1518 -0.1924  0.0654
16572W        W33419  11.908   7.218   4.017  0.0288 -0.0993 -0.0176
16573W        W33420  17.572   9.218  11.212 -0.0475 -0.0220  0.3324
16574W        W33421   9.516  17.193  15.792 -0.0026 -0.0925 -0.0714
16575W        W33422   1.399  13.519   4.894  0.3071 -0.0836 -0.2440
16576W        W33423  13.709   7.271   3.829  0.0595  0.0151 -0.0338
16577W        W33424   7.440   3.402   2.770 -0.3678 -0.0772 -0.2847
16578W        W33425   3.235  17.594  14.750 -0.0496 -0.0198  0.3611
16579W        W33426   1.811   0.453  15.572  0.3162 -0.2201 -0.3257
16580W        W33427  15.816   5.514  13.163 -0.3206 -0.2536  0.1281
16581W        W33428   3.327   9.777   4.535  0.1067  0.0181 -0.0541
16582W        W33429  16.126   1.685  11.564 -0.0602 -0.0992 -0.0703
16583W        W33430   2.520   2.850   4.327 -0.0318 -0.0899  0.1898
16584W        W33431   8.610   8.841   0.853  0.0579  0.1166  0.0753
16585W        W33432  16.018   3.377  14.290 -0.0601  0.0329 -0.0749
16586W        W33433  18.175   6.155  14.482  0.0941 -0.0149  0.0427
16587W        W33434   8.984  11.504   6.297  0.2754  0.0562 -0.1615
16588W        W33435  18.419   9.539   4.191  0.1906  0.0416 -0.0821
16589W        W33436  16.635  11.964   3.223  0.1214 -0.1363  0.1517
16590W        W33437   1.456  14.972   3.698  0.1603 -0.2381  0.2016
16591W        W33438   1.545  17.217  11.108 -0.3096 -0.4594  0.2918
16592W        W33439  16.100   7.326  15.753  0.3608 -0.3697 -0.2541
16593W        W33440   0.379  11.335   6.062 -0.0714  0.1833  0.0873
16594W        W33441   4.192  16.358   4.517  0.0935  0.1737  0.0557
16595W        W33442   1.238   0.501   3.389 -0.1827 -0.1530 -0.1384
16596W        W33443  18.356  17.370   1.295  0.0565 -0.0312  0.0306
16597W        W33444   9.374   1.640   4.973  0.1224 -0.0087  0.2136
16598W        W33445  12.893  16.457   0.477 -0.1220 -0.0672  0.0181
16599W        W33446   7.981  14.202  13.612 -0.4305  0.3043 -0.1235
16600W        W33447   7.428   1.252   0.391  0.0281 -0.0395 -0.0591
16601W        W33448  15.486   3.832   0.010  0.0223 -0.4885 -0.0092
16602W        W33449   0.282   7.518  15.066 -0.0294 -0.0072  0.1818
16603W        W33450   9.053   1.265   0.325 -0.4335 -0.0597  0.1061
16604W        W33451   2.136  18.211   1.705  0.0429  0.2858 -0.2566
16605W        W33452  13.015   1.927  11.132 -0.1043 -0.0802 -0.0379
16606W        W33453  15.653   6.952  13.140 -0.1545 -0.0149  0.0556
16607W        W33454  18.239  16.323   3.527  0.0891  0.1693 -0.1767
16608W        W33455   3.039   6.658  12.860 -0.2060  0.1438 -0.3023
16609W        W33456  13.718  15.133  14.098  0.4695  0.1436  0.1413
16610W        W33457   4.282  12.334   0.419  0.0417 -0.2960  0.1852
16611W        W33458  11.035   7.527  15.766  0.0123 -0.1989 -0.1087
16612W        W33459  16.449   8.009   2.039  0.2237  0.1629 -0.0662
16613W        W33460   2.468  14.098  15.016  0.0731  0.0109 -0.0259
16614W        W33461  11.290   3.295  12.726  0.3489  0.1432 -0.1701
16615W        W33462  12.832   1.865  11.829  0.1830  0.1294  0.3839
16616W        W33463  17.864   3.068   2.472  0.2666  0.3414 -0.0374
16617W        W33464   1.453   4.985  13.484 -0.2565  0.2496 -0.0375
16618W        W33465  13.172   9.373   5.448 -0.0221  0.2803 -0.0896
16619W        W33466  10.113  15.809   3.951 -0.2024 -0.0373 -0.0876
16620W        W33467   1.594   1.041  13.173  0.0462 -0.0382 -0.0638
16621W        W33468  10.545  17.033  11.496 -0.0850  0.3124 -0.1411
16622W        W33469  14.425   6.506   2.825 -0.0568  0.2101  0.4679
16623W        W33470   5.671  16.530  15.937  0.3446  0.2345  0.3102
16624W        W33471   1.289  14.793  16.307  0.0957 -0.2505  0.0537
16625W        W33472  16.312   3.785   1.910 -0.2559  0.1695 -0.2064
16626W        W33473   4.151   7.506  15.556 -0.1925 -0.1572 -0.0830
16627W        W33474   0.607   7.766  15.748 -0.1217 -0.1815 -0.0181
16628W        W33475   1.791  14.746   1.371  0.0860 -0.3108  0.1848
16629W        W33476   2.205   2.865   4.692 -0.0384  0.0626 -0.0623
16630W        W33477  10.567   1.275  16.240 -0.1137 -0.5314  0.2398
16631W        W33478  16.876   3.810   2.060  0.2666 -0.2883 -0.0379
16632W        W33479  11.909  12.927  10.895 -0.0988 -0.0382  0.1125
16633W        W33480   5.804   9.815  15.573 -0.2321  0.2277  0.0573
16634W        W33481   6.401   4.296   0.810 -0.0464  0.0147 -0.1642
16635W        W33482  12.845   9.821   4.492 -0.2102  0.0003 -0.0047
16636W        W33483   7.939  16.022  12.778 -0.2474  0.2579 -0.1015
16637W        W33484   6.603   9.699   2.726 -0.1614  0.1298  0.1027
16638W        W33485   7.382   4.081  13.830  0.0804  0.1935 -0.1807
16639W        W33486  11.443   0.631  13.700 -0.2378  0.3192 -0.0543
16640W        W33487   5.520   0.038  11.679  0.1744 -0.1893  0.3892
16641W        W33488  10.623  18.296  15.135  0.0300  0.1343  0.1051
16642W        W33489  12.947   4.249  15.533  0.0058  0.2673  0.0184
16643W        W33490   8.749   9.703   1.818  0.2596  0.1045 -0.3132
16644W        W33491  10.183   1.557  14.970 -0.0534  0.0738  0.1923
16645W        W33492  14.888   9.095  15.925 -0.2315  0.0741  0.3191
16646W        W33493   8.583  10.137  16.309 -0.1003 -0.1323 -0.0266
16647W        W33494   0.350   5.443   3.489  0.4014 -0.1941 -0.2711
16648W        W33495  11.950   1.004   0.014 -0.0781 -0.0497  0.1093
16649W        W33496  14.658   7.967  14.549 -0.0510  0.3406 -0.1320
16650W        W33497   2.778   3.013   3.946  0.1946  0.0865 -0.1109
16651W        W33498   1.036   2.981  10.891 -0.2532  0.3708  0.0556
16652W        W33499   3.969  13.304   5.691 -0.1043  0.0306  0.1688
16653W        W33500  13.968  11.890  13.420  0.1121 -0.0635 -0.1571
16654W        W33501   9.944   5.418   1.093 -0.1108  0.1104 -0.1905
16655W        W33502  11.282   8.042  15.827  0.0406  0.1351 -0.0042
16656W        W33503   7.251   1.387  14.013 -0.0470 -0.0216  0.0433
16657W        W33504  13.982  14.784   4.511  0.0525  0.0052  0.2673
16658W        W33505   6.121  15.280   4.300  0.0664 -0.4335 -0.1513
16659W        W33506  12.648   9.397   4.317  0.0420  0.1599  0.1168
16660W        W33507   7.668   3.081   0.563 -0.0211  0.5185  0.2154
16661W        W33508  11.891  14.089   5.286  0.5221  0.5017  0.0507
16662W        W33509   1.991   8.159   5.759 -0.3833 -0.0739 -0.1841
16663W        W33510   4.331  13.721   1.999  0.1024  0.1106  0.1296
16664W        W33511  12.220  17.373  15.554  0.0986  0.2514  0.1115
16665W        W33512   5.454   6.385  13.934  0.1237 -0.4251  0.0757
16666W        W33513  16.760   3.475  11.439  0.2119  0.0053 -0.0879
16667W        W33514   8.149  17.905   1.187  0.3032  0.2956 -0.1880
16668W        W33515   3.266   6.192   2.482 -0.1273 -0.0218  0.0667
16669W        W33516   1.127  15.156  13.168  0.2910  0.1645  0.0031
16670W        W33517  12.297   3.682  14.194  0.0522  0.2039  0.2369
16671W        W33518  17.434   0.251   3.456 -0.0305  0.0984 -0.2209
16672W        W33519  16.166   6.827   1.391  0.0697 -0.0659  0.0453
16673W        W33520  16.973  12.820   1.646  0.1250  0.2789  0.0282
16674W        W33521   9.728   0.066   1.688 -0.0893  0.1517 -0.1986
16675W        W33522   9.306   4.883  13.989  0.1014 -0.0234 -0.0732
16676W        W33523   7.653   3.622  15.285 -0.0159  0.1329 -0.2490
16677W        W33524  14.794  17.993   0.336 -0.2884 -0.4219 -0.0687
16678W        W33525  10.129   6.382  15.464  0.1819  0.0197  0.1643
16679W        W33526   6.696  14.969   2.350  0.0710  0.1391 -0.0690
16680W        W33527   6.223   8.933  16.211  0.0599  0.0064 -0.3030
16681W        W33528  11.032  12.740   4.809  0.1523 -0.0272 -0.2218
16682W        W33529  12.250   2.760   3.696 -0.1443  0.1876  0.0900
16683W        W33530  15.635  13.223   4.001 -0.0957 -0.0827  0.0280
16684W        W33531   2.846   4.056  12.667 -0.0913 -0.0669 -0.1765
16685W        W33532  16.892  17.853   4.017  0.3629  0.3796 -0.3481
16686W        W33533   8.905  15.766  12.512  0.0554  0.1587 -0.0552
16687W        W33534   9.637   8.251  13.451  0.0914  0.0423 -0.0971
16688W        W33535   0.754   1.968   3.083  0.0580  0.2363 -0.0980
16689W        W33536   0.207  10.494   1.406 -0.0574  0.1663  0.0001
16690W        W33537  12.699  16.172   4.228  0.1896  0.2805  0.0622
16691W        W33538  13.279   7.992  14.296 -0.2318 -0.0670  0.0181
16692W        W33539   9.154  13.519  11.851  0.0408 -0.0109 -0.1540
16693W        W33540  12.276  17.607  12.716  0.1359  0.0553 -0.2150
16694W        W33541  12.431   4.954   1.615  0.1528  0.1284 -0.2366
16695W        W33542   1.633   5.598  13.167  0.1301  0.1495 -0.3014
16696W        W33543   4.830  14.696   3.793  0.0872 -0.0042 -0.0567
16697W        W33544   5.775  15.208   5.442 -0.0310  0.0513  0.3117
16698W        W33545  10.487   9.628   2.820  0.0241 -0.1167  0.1099
16699W        W33546   8.423   0.331  13.676  0.0823  0.3256 -0.1425
16700W        W33547  17.904   0.880  12.874 -0.0451 -0.0957  0.0657
16701W        W33548  11.381  13.457   0.960 -0.1084 -0.0990  0.1749
16702W        W33549   2.253   5.345   2.949 -0.3015 -0.1190 -0.2297
16703W        W33550   7.338  10.916   2.269 -0.0273  0.1750  0.2390
16704W        W33551  16.150   3.999   4.946  0.1173 -0.0013  0.1028
16705W        W33552  12.469   6.306  13.266  0.3135 -0.1674  0.5066
16706W        W33553   3.952  12.813   2.973  0.3826  0.0361 -0.0460
16707W        W33554   9.708  15.323  14.474 -0.0758  0.0267  0.0598
16708W        W33555   7.590   9.668   2.760 -0.3523 -0.0531  0.2184
16709W        W33556   8.448   7.339  13.240  0.2507 -0.3873 -0.2986
16710W        W33557   3.208   3.815  15.161  0.1333 -0.2820 -0.1788
16711W        W33558   0.272   2.150  16.186 -0.0380 -0.3642  0.1240
16712W        W33559  10.469   1.848   0.649  0.1869  0.2603 -0.1251
16713W        W33560   6.629  13.867   3.207 -0.1220 -0.1486 -0.0675
16714W        W33561  10.572   9.660  14.342  0.1268 -0.1188  0.0997
16715W        W33562   6.596   1.079   5.355  0.1480 -0.0908  0.0887
16716W        W33563  11.111   1.327   4.087 -0.0669 -0.3972 -0.0244
16717W        W33564  11.213   3.922  13.500  0.1797 -0.2221  0.0227
16718W        W33565  12.022  15.877   4.531 -0.3096 -0.1618  0.1163
16719W        W33566  16.225  13.613  12.543  0.0223  0.1376 -0.0577
16720W        W33567  11.827  13.163  12.075  0.0148 -0.0737 -0.1350
16721W        W33568  13.077  10.529   1.794  0.0007  0.6015  0.2088
16722W        W33569   8.241   9.367  13.496  0.3584  0.1719 -0.4063
16723W        W33570  17.653   5.575   4.706 -0.1711  0.2107  0.1909
16724W        W33571   9.750  11.757   1.037  0.3861 -0.2225  0.1715
16725W        W33572   3.215  10.602   2.079 -0.1025 -0.3687 -0.0043
16726W        W33573   6.347   2.000   4.299  0.0963  0.4408  0.1540
16727W        W33574   4.938   9.587  12.425 -0.3286  0.0724 -0.2584
16728W        W33575   4.330  13.041   4.615 -0.0388  0.1110  0.1526
16729W        W33576   5.606   9.116   0.535 -0.3824 -0.2176  0.2879
16730W        W33577   7.389  15.175  12.979 -0.1955  0.2333 -0.1035
16731W        W33578  10.745   7.484  14.262  0.2480  0.3741 -0.0793
16732W        W33579   2.390   8.794  13.760  0.2618  0.0333  0.0560
16733W        W33580   8.375  18.019  16.366 -0.0710  0.0838  0.0390
16734W        W33581  11.664  17.559  15.510 -0.0653 -0.0064 -0.0394
16735W        W33582  15.057  18.298  11.626 -0.2258  0.3255 -0.0066
16736W        W33583  10.094   8.601   2.671 -0.2744 -0.0208 -0.2474
16737W        W33584  14.239  15.912   3.340  0.1064 -0.1661  0.0206
16738W        W33585  11.493  13.162   5.615  0.0695 -0.0715  0.0908
16739W        W33586  14.380   0.102  15.969  0.0267  0.0764  0.2175
16740W        W33587  16.998   9.324  12.490  0.0709  0.4602  0.0602
16741W        W33588   4.914  15.384   1.679 -0.1727  0.0779 -0.1880
16742W        W33589   5.943   1.418   2.903  0.2314  0.2184 -0.1808
16743W        W33590  15.555   0.599  13.275  0.0053 -0.1884 -0.2092
16744W        W33591  10.374   9.749   1.025 -0.1740 -0.2448 -0.1478
16745W        W33592   2.766   6.078   0.148  0.0587  0.0762  0.1882
16746W        W33593  16.393  15.929  11.873 -0.3485  0.1222  0.1425
16747W        W33594  14.960  17.622   5.452  0.1840  0.0213 -0.0528
16748W        W33595   6.726  10.300  14.037  0.0861 -0.3107  0.3021
16749W        W33596  13.047   8.063  12.558  0.1200 -0.1826 -0.2175
16750W        W33597   3.968   4.284   1.504  0.0741  0.1122  0.0818
16751W        W33598   8.269   5.730  11.715  0.0462 -0.1596 -0.1916
16752W        W33599   9.711  16.564  13.109  0.2245  0.0295 -0.1088
16753W        W33600   5.282   0.314  13.206 -0.0712  0.3623 -0.1680
16754W        W33601   0.166   5.400  11.801 -0.1658  0.3228 -0.0642
16755W        W33602   4.454   8.592  15.184 -0.1439  0.2446 -0.0359
16756W        W33603  12.968   6.304   5.044  0.1527 -0.0019  0.2791
16757W        W33604  18.229   2.421   0.462 -0.0598  0.0767 -0.0862
16758W        W33605  12.135  12.500  11.008  0.3750 -0.0617  0.1160
16759W        W33606   2.623  15.639  12.912  0.0684  0.2026 -0.0296
16760W        W33607   7.799  15.812  14.043  0.0102  0.0414  0.1108
16761W        W33608  17.376   8.698  12.877 -0.1236  0.0397 -0.1419
16762W        W33609   1.006  12.533  14.054 -0.0821 -0.1975  0.0011
16763W        W33610   1.998  15.417  14.689  0.1539  0.0982  0.0600
16764W        W33611   4.995   7.208  11.709  0.0382 -0.1903 -0.1336
16765W        W33612   4.678   6.686   3.756  0.0299 -0.0154 -0.0624
16766W        W33613  13.628   7.789  15.266 -0.0574 -0.2632 -0.1049
16767W        W33614   2.244   3.305   4.958  0.0762  0.2188 -0.0420
16768W        W33615   5.869  14.978   1.998 -0.1028 -0.0992  0.1399
16769W        W33616   8.196   3.331  11.367  0.1366  0.1235  0.1428
16770W        W33617  15.972   6.540   2.554  0.2112  0.1968  0.0628
16771W        W33618   4.513   3.653   3.465 -0.0428  0.0541 -0.1592
16772W        W33619  10.756   2.655  13.532 -0.3656  0.2299  0.1842
16773W        W33620   2.552   8.573  11.599  0.3891  0.3684 -0.1522
16774W        W33621  17.028  10.905   1.520  0.2075 -0.1013  0.1384
16775W        W33622   7.715   7.852   2.580  0.1191 -0.2938  0.1176
16776W        W33623   5.546  16.020   4.068  0.0123 -0.1073 -0.1369
16777W        W33624   4.294  15.477  12.416 -0.1339  0.1755  0.1112
16778W        W33625  10.184   9.387   4.792  0.3987 -0.0465  0.0076
16779W        W33626   6.708  16.827  16.371  0.0579 -0.3775  0.0650
16780W        W33627  15.596  14.058   1.899 -0.2078 -0.3522  0.0238
16781W        W33628   0.056   4.270  14.853  0.2131  0.4374  0.4607
16782W        W33629   9.099   3.250  13.686 -0.2034  0.0128  0.0174
16783W        W33630   4.973   2.514  11.637  0.2405  0.0491  0.3860
16784W        W33631   2.654   0.759   6.306  0.1087 -0.1489 -0.0594
16785W        W33632  17.669   4.772  14.645 -0.1650 -0.1983 -0.0545
16786W        W33633  16.144   9.299   5.445 -0.2214  0.0579 -0.2503
16787W        W33634   3.177   3.285  12.067  0.0822 -0.1199 -0.0565
16788W        W33635  17.532  11.276   3.349  0.1828 -0.0546 -0.0472
16789W        W33636  18.146   9.751  13.047 -0.2892  0.0010  0.0830
16790W        W33637   9.405  13.244   1.034  0.1729  0.1166  0.4042
16791W        W33638  13.528   2.263  13.039  0.2364  0.0866 -0.1880
16792W        W33639  12.744   0.344  13.535 -0.0054 -0.0328 -0.0352
16793W        W33640  17.023   2.217  12.595 -0.1132  0.0649  0.0737
16794W        W33641  13.571  12.553  15.453  0.0650  0.2323 -0.0927
16795W        W33642   4.086   7.675  12.376  0.0361  0.1816  0.2768
16796W        W33643   1.701  14.105   4.714 -0.4481 -0.2752 -0.0247
16797W        W33644  14.207   5.091  15.462  0.1417 -0.1431 -0.0739
16798W        W33645  10.841  18.234  16.060  0.1639  0.0310 -0.2615
16799W        W33646  16.363  12.541   0.587  0.1100  0.0437  0.0972
16800W        W33647   5.708  16.840   2.565  0.0880 -0.0094 -0.1685
16801W        W33648  16.994   7.697  15.870  0.2980  0.0070 -0.2121
16802W        W33649   6.578   0.165  16.004  0.2080  0.2650  0.4594
16803W        W33650   9.711   3.836   4.499 -0.1700  0.1746 -0.3479
16804W        W33651  10.446  14.092  13.045  0.3001 -0.2463 -0.5790
16805W        W33652  13.291   8.874   2.112  0.3351  0.2308  0.0263
16806W        W33653   9.304  11.902  16.051 -0.2816 -0.0852 -0.1476
16807W        W33654   8.141  11.031  13.946 -0.1026 -0.1107 -0.1904
16808W        W33655   9.140   9.061   3.019  0.2488  0.1012 -0.1192
16809W        W33656   1.397   1.521  11.966  0.3667 -0.0982 -0.0260
16810W        W33657   4.356   0.864   0.945  0.2033  0.2005 -0.2789
16811W        W33658   5.906  15.730  15.236 -0.2190 -0.1478 -0.1626
16812W        W33659  13.840   8.651  16.113 -0.0642 -0.2441 -0.3584
16813W        W33660   5.294   1.302  15.782  0.0480 -0.3459  0.2141
16814W        W33661   7.358   0.143  13.128 -0.2079  0.1526  0.0352
16815W        W33662   3.911   6.661  11.012  0.1880 -0.0554  0.3008
16816W        W33663  13.253  15.150   3.225  0.0495  0.2573  0.0087
16817W        W33664   7.288   5.592   1.227  0.3131  0.3182 -0.1884
16818W        W33665   6.460   7.967   4.706 -0.0980 -0.3080  0.0610
16819W        W33666   1.304   5.482  16.315 -0.1920  0.0772  0.2883
16820W        W33667  14.148   7.987  11.172  0.0718  0.0165 -0.1181
16821W        W33668   8.116   4.304   4.845  0.2963  0.1373  0.0028
16822W        W33669   2.943  12.995  13.071  0.0257  0.3410 -0.1655
16823W        W33670  11.739   9.531   0.623 -0.3157 -0.0063  0.1043
16824W        W33671  10.200  13.697  13.398  0.1455  0.0884  0.1525
16825W        W33672   5.236   4.421  15.612 -0.2584 -0.0218  0.0792
16826W        W33673   0.339  15.557  12.290 -0.0672 -0.2071 -0.4521
16827W        W33674  16.150  13.396   2.106  0.1869 -0.1087  0.3853
16828W        W33675   8.999   2.796  13.087  0.1328 -0.1825 -0.0161
16829W        W33676   5.411  13.966   4.995  0.2032 -0.1730 -0.1558
16830W        W33677   8.050  12.430   4.871  0.0270 -0.0446  0.0749
16831W        W33678   3.344   5.854  15.869  0.0774  0.1008 -0.0353
16832W        W33679  17.708   6.133   3.730  0.0807  0.0334  0.0944
16833W        W33680  16.250   9.789   5.391 -0.1391  0.0558  0.0736
16834W        W33681  11.070   1.911  13.246  0.2224  0.2225  0.0565
16835W        W33682   0.943   8.437   1.843  0.0764 -0.0666  0.1303
16836W        W33683  17.678   3.411   3.801 -0.4217 -0.3252  0.1760
16837W        W33684  15.963  17.970  11.702  0.3542 -0.0048 -0.1781
16838W        W33685  17.377   5.132  11.394 -0.1134  0.1312 -0.0408
16839W        W33686   0.369  15.440   1.658 -0.0468 -0.0663  0.1012
16840W        W33687  13.833   5.422  12.068  0.3030 -0.1026 -0.0780
16841W        W33688  13.987  16.730   3.695 -0.3228  0.3586 -0.1638
16842W        W33689   0.841  17.298   2.602  0.0667  0.1884  0.0426
16843W        W33690  17.009   3.700  16.066 -0.0025  0.0181  0.1537
16844W        W33691  11.305  10.428   6.066  0.2355  0.1310 -0.1008
16845W        W33692   2.080  16.814   0.286  0.0968  0.0839  0.2564
16846W        W33693   5.702   2.328   0.480  0.2576  0.5045  0.1658
16847W        W33694   7.393  15.576   4.029  0.1116  0.4411  0.0911
16848W        W33695  17.639   6.494  13.688  0.3159  0.3870 -0.1340
16849W        W33696   3.588   6.019  11.199 -0.3582 -0.2701  0.2293
16850W        W33697   1.588   7.181  13.734 -0.1968  0.1171 -0.1969
16851W        W33698  14.210   2.816  12.640 -0.1805  0.1632 -0.4168
16852W        W33699   8.154   4.648  16.123  0.2590  0.0938  0.0455
16853W        W33700   9.160  18.077  14.417 -0.2008 -0.1929  0.2699
16854W        W33701  15.425   1.239   0.854 -0.3911 -0.3489  0.1431
16855W        W33702   7.004   6.086   0.495  0.0939  0.0696  0.0375
16856W        W33703  13.909   4.774  13.502  0.4331  0.1102 -0.4622
16857W        W33704  10.952   6.750  13.853  0.3623 -0.0101 -0.0833
16858W        W33705  15.984  13.079  12.437  0.0912  0.1340  0.0502
16859W        W33706   1.795  11.976   0.362 -0.1485 -0.0689  0.1411
16860W        W33707   6.785  16.645  14.875  0.2542 -0.1508 -0.0179
16861W        W33708   2.464  11.826  14.970  0.2182 -0.0057  0.3878
16862W        W33709   4.135  17.321  14.185 -0.0515  0.0226 -0.2591
16863W        W33710   8.434   7.723  13.655  0.1807  0.0727  0.3406
16864W        W33711   6.999   6.342   4.380 -0.1361  0.2780 -0.0057
16865W        W33712   0.614  11.829   4.530  0.0968 -0.1290  0.1495
16866W        W33713   1.345  12.183   2.249  0.1681  0.1920  0.2366
16867W        W33714   6.646  12.366  15.368  0.0366 -0.0158  0.2526
16868W        W33715  16.893   8.419  15.006 -0.1790 -0.1001  0.3129
16869W        W33716   9.985  15.976  14.220 -0.2453 -0.1371 -0.1934
16870W        W33717   4.474  11.576   0.840  0.2523 -0.2057  0.0422
16871W        W33718  12.149  11.010   2.899  0.2005  0.1318  0.1421
16872W        W33719   1.784   5.780   3.889  0.2934 -0.0680 -0.1017
16873W        W33720   6.759  17.710  14.643 -0.0973 -0.0386  0.1454
16874W        W33721  10.804   5.915   3.136 -0.1883 -0.0209 -0.1329
16875W        W33722   0.006   6.375  11.080  0.2388 -0.0847 -0.1575
16876W        W33723   7.615  11.756  14.556 -0.0071  0.0882 -0.2722
16877W        W33724   2.013   2.569   3.153  0.0417 -0.0136 -0.1754
16878W        W33725  13.798   5.008  16.011 -0.2001  0.0289  0.4408
16879W        W33726   9.020  17.067   4.775 -0.5109 -0.0921  0.4799
16880W        W33727   6.726   7.667  13.034 -0.5625  0.2862  0.0156
16881W        W33728  15.139   2.369   3.452 -0.2571  0.1087 -0.0589
16882W        W33729  17.805  17.631  14.054 -0.0259  0.2403 -0.1604
16883W        W33730  18.061  17.193  13.887  0.0244 -0.0051 -0.0700
16884W        W33731  18.037   5.056   1.239  0.0789  0.2940 -0.2110
16885W        W33732  13.015   2.379   2.835  0.1526 -0.0501  0.0536
16886W        W33733   2.267  16.532  14.934  0.2692 -0.2656 -0.0436
16887W        W33734  10.551   4.366   0.679  0.1083  0.0680 -0.0280
16888W        W33735  13.828  13.047  14.022 -0.0441  0.1756  0.2623
16889W        W33736   1.649   1.876   4.638  0.1721  0.1068  0.1103
16890W        W33737   1.339   4.971   1.102 -0.0546 -0.0974  0.2438
16891W        W33738   3.978   3.165   3.060  0.1928 -0.2148  0.1438
16892W        W33739   3.494   5.244   3.050  0.0609 -0.0795  0.1960
16893W        W33740   1.416  14.706   0.971  0.0678  0.1428 -0.3843
16894W        W33741  10.651   1.226   3.392  0.2988  0.0666 -0.0549
16895W        W33742   6.293  15.016  16.333 -0.1127  0.3120  0.1317
16896W        W33743  15.859   6.767   3.101 -0.1370 -0.1713 -0.1221
16897W        W33744   1.199   7.154  15.988 -0.0686  0.3122  0.0574
16898W        W33745  11.278   8.143  11.852  0.1588 -0.0377 -0.0560
16899W        W33746  10.291  16.634   2.855  0.1361 -0.1875 -0.0053
16900W        W33747  12.202   7.823  14.918 -0.0538 -0.0414 -0.2435
16901W        W33748  16.592   9.237   2.596 -0.0880 -0.0477  0.3121
16902W        W33749   5.243   4.165   3.531 -0.2177 -0.0353 -0.2452
16903W        W33750   7.695   4.518   2.443  0.0207  0.2892  0.3769
16904W        W33751   0.165  15.506   4.125 -0.0319 -0.1087 -0.2160
16905W        W33752  14.030  11.067  16.351 -0.2433  0.3912  0.1759
16906W        W33753   0.985   6.179  14.738  0.2201  0.2854  0.1857
16907W        W33754   0.642   7.283  15.641 -0.1409  0.0956 -0.0710
16908W        W33755  11.783  10.097   1.921  0.0341 -0.1695 -0.1814
16909W        W33756   2.710   3.346   3.090 -0.1418  0.0170 -0.3689
16910W        W33757   5.726  10.790   5.932  0.2701  0.3131 -0.1615
16911W        W33758  10.074  17.855   3.709  0.1553 -0.1351 -0.3574
16912W        W33759  16.390  18.150   2.329 -0.0114 -0.1290 -0.0721
16913W        W33760  14.792  15.537  12.564  0.0262  0.0163  0.1543
16914W        W33761  13.808   2.223  13.679  0.3054 -0.0408  0.1698
16915W        W33762  13.981  17.544  13.260  0.0879 -0.1110 -0.1959
16916W        W33763  10.496   2.711   5.863 -0.1047 -0.0388  0.0088
16917W        W33764  10.580  14.489  11.878  0.0342 -0.0057 -0.0957
16918W        W33765   7.254   1.172   6.023 -0.1050 -0.2346  0.2070
16919W        W33766  13.578  15.253  11.059 -0.0684 -0.1924  0.2061
16920W        W33767  16.006   3.149  12.628 -0.1431  0.0436 -0.1276
16921W        W33768  16.468   8.174   3.371 -0.1956  0.1307  0.0957
16922W        W33769   8.323   2.608   3.187 -0.0422  0.3120 -0.3748
16923W        W33770  14.231   0.118  15.089  0.0380  0.2873 -0.1753
16924W        W33771  13.650  10.137   4.344 -0.0443  0.0417  0.0858
16925W        W33772   5.965   2.629   2.371 -0.2928 -0.3813 -0.4026
16926W        W33773   3.056  12.359  14.426 -0.0313 -0.1497  0.1695
16927W        W33774  14.966   5.074  13.720 -0.0643  0.3149 -0.0540
16928W        W33775  12.877  12.560   4.316 -0.1501  0.0942 -0.0788
16929W        W33776   2.119  13.858   4.800 -0.0361 -0.2252 -0.0839
16930W        W33777  13.734  12.300   1.465  0.0636  0.0051  0.0072
16931W        W33778   2.357  17.657   0.469 -0.2420 -0.2365 -0.1165
16932W        W33779  10.831  11.357  12.139 -0.1550 -0.1457 -0.3125
16933W        W33780   1.838   1.564  15.129 -0.1303  0.2110  0.5457
16934W        W33781   7.684  14.647   0.154  0.0897  0.1153  0.3194
16935W        W33782  14.661  15.198  14.186  0.2011 -0.3484  0.1772
16936W        W33783   1.165  14.350  14.539  0.0523 -0.1739  0.0255
16937W        W33784  15.985   3.878   2.831 -0.1047  0.1167  0.0477
16938W        W33785   1.808  15.058  11.870 -0.2187 -0.0559 -0.0926
16939W        W33786  16.994  14.075  13.052  0.0323  0.1883 -0.0964
16940W        W33787   3.575   2.817  13.221 -0.0298 -0.0060 -0.4192
16941W        W33788  10.861  11.812   4.433  0.1729  0.0205 -0.0566
16942W        W33789   9.951  17.044  15.450  0.0021 -0.0590 -0.0653
16943W        W33790  14.863  10.854   3.489  0.1344 -0.3414 -0.2123
16944W        W33791  10.011   3.449   4.374  0.4141  0.2671 -0.0413
16945W        W33792   4.673   3.098   2.520  0.0046 -0.0296 -0.2316
16946W        W33793  11.597   5.866  16.044  0.0622 -0.0695 -0.1085
16947W        W33794  14.833   0.083   2.742 -0.1486 -0.1847  0.1399
16948W        W33795  18.125   6.761  14.734  0.0344 -0.1717  0.2847
16949W        W33796   3.119   1.698   3.971 -0.1212  0.0488 -0.1539
16950W        W33797   7.157   6.392  12.296 -0.3517 -0.0352 -0.0385
16951W        W33798  18.092  11.660  13.327 -0.4066 -0.1002  0.1359
16952W        W33799  13.736   8.733   4.051 -0.1055  0.0648  0.3093
16953W        W33800   0.897  13.437  14.905  0.2348  0.0225 -0.1018
16954W        W33801   9.273   8.506  12.769  0.0391  0.3789 -0.1251
16955W        W33802   6.100  15.388   2.786 -0.0357 -0.0585 -0.0420
16956W        W33803  16.058   0.806   3.198 -0.0108 -0.0575 -0.0105
16957W        W33804   2.979  11.270   0.227 -0.2038 -0.2069  0.3072
16958W        W33805  14.392  16.110   2.242 -0.0561 -0.2749  0.1786
16959W        W33806  13.765  15.164  13.097 -0.2898  0.0398 -0.0742
16960W        W33807  10.345   0.950   3.104  0.0318  0.0264  0.1853
16961W        W33808  18.139   8.040   3.444 -0.2343  0.3164 -0.0533
16962W        W33809   3.259  12.250   3.720  0.1054 -0.0661  0.3739
16963W        W33810  14.952   0.753  14.361  0.1983 -0.0051 -0.0893
16964W        W33811   8.846  11.922   4.477  0.1778 -0.2648  0.0426
16965W        W33812   0.482  10.381   3.222  0.0449  0.0915  0.1204
16966W        W33813   1.239   7.536  11.081 -0.0894 -0.4057  0.2237
16967W        W33814  15.060   1.138   2.215  0.1558  0.3737 -0.2701
16968W        W33815   8.817   7.487   3.800  0.0340  0.1506  0.0154
16969W        W33816  16.282  10.553  12.473 -0.1830  0.2072  0.1345
16970W        W33817   7.409  13.109   3.942 -0.2376 -0.1858  0.0266
16971W        W33818  15.688   8.935   1.315 -0.1816 -0.0586  0.2458
16972W        W33819   2.099   6.999  15.680  0.3489 -0.2004 -0.2707
16973W        W33820  16.480  14.012   2.058 -0.0998 -0.1235  0.1839
16974W        W33821   3.170   1.950  15.012  0.1628  0.1137 -0.0689
16975W        W33822   3.986   4.514   2.972  0.3589 -0.1680  0.2108
16976W        W33823  15.056  16.846  15.009  0.0116  0.0219 -0.1584
16977W        W33824   0.419  17.483  15.454 -0.0217  0.0203 -0.0846
16978W        W33825  15.589   2.924  12.504 -0.0332  0.1563  0.0973
16979W        W33826  11.320   2.602   1.608  0.2774  0.4864  0.1216
16980W        W33827  11.735   8.094   3.848  0.3472 -0.3131 -0.2761
16981W        W33828  10.721   7.445   5.928 -0.0658  0.0180  0.1808
16982W        W33829   4.304  12.728   5.061  0.1969 -0.4191  0.0968
16983W        W33830   3.549   3.576   3.013 -0.0468  0.0187 -0.0068
16984W        W33831  11.530   3.487  11.780 -0.0039  0.1321  0.4534
16985W        W33832   5.114  15.386   2.690 -0.2841  0.3111 -0.0738
16986W        W33833  13.243  13.069  15.138 -0.1627 -0.0232 -0.2111
16987W        W33834  14.835   4.091   0.710 -0.0918 -0.1145 -0.1760
16988W        W33835  12.623   0.609  16.327 -0.0501 -0.2260 -0.4267
16989W        W33836   2.339  16.746   3.285  0.1412 -0.2457  0.0761
16990W        W33837   6.423   6.085   2.982 -0.0464  0.0978  0.1330
16991W        W33838  18.304  17.755  15.291  0.1671  0.0380  0.2793
16992W        W33839   9.304  14.977  15.376 -0.1198  0.0443  0.0616
16993W        W33840   8.608  17.241  15.738 -0.0570 -0.0479 -0.2929
16994W        W33841  16.673  12.905  14.691  0.1020  0.0935  0.1775
16995W        W33842  10.276   6.858  15.605  0.1157  0.0604  0.4769
16996W        W33843  17.999   0.786   2.929 -0.1060 -0.1969  0.0182
16997W        W33844  10.813   2.687  16.156  0.0230  0.1754 -0.2396
16998W        W33845  11.640  17.806   1.369  0.1565  0.0691  0.3546
16999W        W33846  12.687   1.541   3.864 -0.0818  0.1917  0.1435
17000W        W33847   8.267   6.310  13.809 -0.2611  0.1198  0.1373
17001W        W33848  12.476  13.381   4.353 -0.1488 -0.0900  0.2436
17002W        W33849   1.637  11.190  12.926  0.2602  0.2056  0.1979
17003W        W33850  12.829   7.844   0.853 -0.3461 -0.1218  0.2280
17004W        W33851   0.527   5.215   1.564 -0.1471 -0.2655  0.0017
17005W        W33852   8.271  15.306   3.937  0.0010 -0.4738 -0.1704
17006W        W33853  18.128  11.391   2.545 -0.2026  0.1302 -0.0840
17007W        W33854  15.684   9.788  13.718  0.1399  0.3446 -0.1615
17008W        W33855   6.333  16.726  12.394 -0.0895 -0.1477 -0.1409
17009W        W33856   3.092  12.535  15.437 -0.2712  0.1287  0.0194
17010W        W33857   6.543   7.843   1.214  0.0598  0.1944 -0.0351
17011W        W33858   5.522   6.402  13.443  0.0268  0.1093  0.0127
17012W        W33859   1.884  16.506  15.335  0.2540 -0.0111 -0.0254
17013W        W33860  15.245  16.440   1.815  0.3382 -0.0303 -0.2391
17014W        W33861   1.425   2.928   0.338 -0.3156  0.3845  0.0332
17015W        W33862  11.158   1.318   2.535 -0.0304 -0.0984  0.2642
17016W        W33863   6.447   1.271   2.965 -0.1850 -0.1408 -0.2941
17017W        W33864  12.091  15.386  12.922  0.1223 -0.1495 -0.0014
17018W        W33865  18.164   7.501   4.337 -0.0247 -0.2621 -0.1060
17019W        W33866   1.823   9.409  13.043 -0.0174 -0.1634  0.0760
17020W        W33867   3.652   3.843  15.259  0.0265  0.0379 -0.2018
17021W        W33868   9.122   9.535  14.181 -0.0280 -0.2400 -0.0864
17022W        W33869  10.014   2.309  12.495  0.0068  0.0348  0.2033
17023W        W33870   0.409   3.036  14.152 -0.0216 -0.0396  0.1563
17024W        W33871   5.968   1.684  13.201 -0.0964 -0.0030 -0.0541
17025W        W33872  15.935   4.300   3.083 -0.1107  0.0388  0.1668
17026W        W33873   3.837   5.337  16.315  0.0675 -0.1802  0.0649
17027W        W33874  13.664  11.525  13.341 -0.1027 -0.0833  0.4141
17028W        W33875  12.688   8.896  16.277  0.0518 -0.0704  0.0109
17029W        W33876  18.160   3.590   0.506 -0.0124 -0.0207  0.0579
17030W        W33877   8.438   8.795  15.900  0.1706 -0.2906 -0.2161
17031W        W33878   3.613   7.166   2.548 -0.1944  0.2818  0.2377
17032W        W33879  10.378  13.373   5.975 -0.3855 -0.0413 -0.2389
17033W        W33880   3.974   6.936   2.828  0.0225 -0.0086  0.1621
17034W        W33881  15.539  15.791  16.009 -0.0435 -0.0735 -0.0815
17035W        W33882  15.433  16.555   5.202  0.3244  0.2410 -0.1868
17036W        W33883   7.433   0.272   1.550 -0.3059  0.2832  0.1489
17037W        W33884  11.459   0.893   3.582  0.1388  0.1045  0.2703
17038W        W33885  10.018   1.092  14.758 -0.0619 -0.0078  0.1318
17039W        W33886   3.817  17.381  12.980  0.1275  0.3920 -0.1835
17040W        W33887  14.974   7.121  15.207 -0.0249 -0.2011 -0.0994
17041W        W33888   2.978  12.849   4.475  0.1321  0.1688  0.0879
17042W        W33889   4.672  17.151   5.759  0.1653 -0.1042 -0.0235
17043W        W33890  17.845   8.825  13.085  0.3155  0.3260 -0.1017
17044W        W33891   3.742   7.191  14.870 -0.0549  0.2506 -0.1005
17045W        W33892   5.928  12.717  14.213 -0.0202  0.1282 -0.1265
17046W        W33893  16.714  17.274  13.242  0.0842 -0.0699 -0.1243
17047W        W33894   3.986   5.270   1.761 -0.0051  0.0812  0.3294
17048W        W33895   6.689   1.557  12.045  0.1538  0.1635  0.2339
17049W        W33896   4.030  15.266   1.701 -0.3520  0.0526 -0.0071
17050W        W33897   6.785  17.919   2.204  0.0368 -0.1237 -0.0921
17051W        W33898   5.712   0.740  12.929 -0.1480 -0.0269  0.1072
17052W        W33899  17.889   1.721  11.348  0.1933 -0.0027  0.0043
17053W        W33900  11.380  15.313   5.042  0.0328  0.2401  0.2230
17054W        W33901  13.328   6.782   2.533 -0.0100  0.0506  0.2112
17055W        W33902   1.990   5.634  15.655 -0.0948 -0.0273  0.1788
17056W        W33903   6.410   1.691  11.140 -0.3098 -0.1716 -0.1445
17057W        W33904   8.702   2.896   1.507 -0.3764  0.1605  0.0890
17058W        W33905  16.614  15.042   3.607 -0.2757 -0.0165 -0.2620
17059W        W33906  16.325  14.314   2.509 -0.1729 -0.0196  0.0216
17060W        W33907  10.552   2.849   0.299 -0.2277 -0.1544  0.0002
17061W        W33908   1.113   0.001  13.484  0.3052  0.2857 -0.0420
17062W        W33909  14.446   0.002   5.655  0.0621 -0.3738 -0.1950
17063W        W33910   8.728   7.523  15.437 -0.1151 -0.2062  0.0919
17064W        W33911  14.395  12.814  12.096  0.0085  0.1374  0.1758
17065W        W33912   6.452  16.045  13.854 -0.2860 -0.1155  0.0201
17066W        W33913   9.520  14.722   0.301 -0.1284  0.0385 -0.0722
17067W        W33914  11.551  17.081   3.033 -0.1014  0.2074  0.0328
17068W        W33915  14.986  16.118  14.590  0.1469  0.0240 -0.2876
17069W        W33916  16.279   2.698   4.455 -0.0764 -0.1268 -0.0307
17070W        W33917  13.170   9.226  11.832  0.5529 -0.0103 -0.1809
17071W        W33918   1.704   5.410   0.195 -0.0043 -0.0522 -0.2077
17072W        W33919  16.117  15.213   1.458 -0.2123 -0.1066 -0.2748
17073W        W33920   3.629  17.366   5.305  0.0244 -0.2429  0.1827
17074W        W33921   8.474   4.614   2.899  0.0963 -0.2050  0.2228
17075W        W33922   3.561   6.740   2.876  0.0955 -0.2987  0.0044
17076W        W33923  11.843   0.409   1.044 -0.0411  0.1525  0.0666
17077W        W33924   5.188   1.929   0.303  0.1314  0.3697  0.1985
17078W        W33925   5.117   2.606   1.885  0.1833  0.1653  0.0217
17079W        W33926   7.213   1.857   3.603 -0.2055 -0.1995  0.0289
17080W        W33927   9.126  10.590  15.742 -0.0181  0.0796  0.1242
17081W        W33928  11.808   1.045   2.935  0.0991 -0.3671 -0.1583
17082W        W33929   2.881  17.551   4.520  0.1160  0.1808  0.3004
17083W        W33930  11.139  11.358  14.786 -0.2616 -0.0419 -0.3759
17084W        W33931   2.631  14.646   0.712  0.1460  0.2962 -0.0803
17085W        W33932   3.894   9.348   0.993  0.2531  0.2696 -0.1082
17086W        W33933  17.952  14.938   4.452 -0.1976 -0.0865  0.0744
17087W        W33934   6.985  17.409  15.340 -0.0375 -0.0862  0.0142
17088W        W33935  11.154  11.526   3.633  0.0228  0.2342 -0.0435
17089W        W33936  11.847  11.754  13.027  0.0611  0.4430 -0.0688
17090W        W33937   2.464   1.231   0.460  0.1606 -0.3868 -0.2057
17091W        W33938   9.511   2.922   4.268 -0.0912 -0.0434  0.2085
17092W        W33939  16.571  15.157   4.185  0.2530 -0.0474  0.0778
17093W        W33940  17.938  15.676   0.878 -0.1978  0.1574  0.2464
17094W        W33941  16.771  11.193   2.604 -0.0919 -0.0170  0.1853
17095W        W33942  12.279  11.776   3.506 -0.1179  0.3216  0.1066
17096W        W33943  12.842   8.104   2.639 -0.0690  0.2474 -0.2069
17097W        W33944  11.661  15.731   5.046 -0.2344  0.0446 -0.2218
17098W        W33945   6.126   9.256  12.787  0.0798  0.0257  0.0147
17099W        W33946   7.852  16.562   4.914  0.1955  0.1021  0.1010
17100W        W33947   1.522   6.414   0.553 -0.1338  0.1845 -0.1305
17101W        W33948  10.037  16.371   0.474 -0.0513  0.1718  0.0483
17102W        W33949  16.523   5.894   2.341  0.0478 -0.0318 -0.2154
17103W        W33950   8.276   5.846  15.927 -0.2417 -0.0158  0.0903
17104W        W33951   8.582  18.004   0.773 -0.1803 -0.1561  0.2255
17105W        W33952  13.948  15.564   1.627 -0.0606  0.0511 -0.0548
17106W        W33953   0.405  12.974  12.046  0.4933 -0.3918  0.0241
17107W        W33954   5.440   6.872  11.011  0.0909 -0.0448 -0.0900
17108W        W33955  17.750  11.408   1.142 -0.3233 -0.0709  0.2798
17109W        W33956  17.113  10.807  13.076 -0.0581 -0.0622  0.1650
17110W        W33957   6.813   6.630  13.557  0.1980 -0.0100  0.1614
17111W        W33958   5.332   1.043   2.295  0.0105  0.0637  0.2619
17112W        W33959  11.528   9.677   3.821 -0.1449  0.0810 -0.0783
17113W        W33960   6.744   0.403   4.243  0.0390  0.2137  0.0697
17114W        W33961  10.220  13.421   4.915  0.0279 -0.2608 -0.0597
17115W        W33962   4.656   9.071   5.189 -0.0557 -0.3911  0.1043
17116W        W33963  17.924   1.178   3.851  0.0938  0.0970 -0.2165
17117W        W33964  16.393   2.215   1.311  0.0589 -0.2841 -0.0015
17118W        W33965   6.622  17.632  15.973 -0.0519 -0.1916 -0.1395
17119W        W33966  16.195   4.492  12.458  0.3206 -0.1107 -0.0168
17120W        W33967  18.308   4.252   1.766 -0.3501  0.2306  0.0909
17121W        W33968   7.694  17.221  13.254  0.1317  0.0828 -0.1707
17122W        W33969  14.555  14.442   1.219  0.0219  0.0332 -0.1027
17123W        W33970   4.169  15.547  14.169  0.1893  0.2784 -0.4389
17124W        W33971  14.453  14.600   0.026  0.0681  0.2887 -0.3303
17125W        W33972  16.037   7.588  11.857  0.1252  0.0258 -0.0414
17126W        W33973   1.104  16.556   2.609  0.1339  0.2501  0.0002
17127W        W33974   4.312   0.483  13.402  0.1362 -0.0960 -0.1691
17128W        W33975  10.874  15.104   5.912  0.1244  0.0111 -0.2178
17129W        W33976   0.139   4.014   5.395 -0.2172 -0.2603 -0.2763
17130W        W33977   9.547   7.205   1.224  0.1897  0.0180 -0.2478
17131W        W33978   6.159   8.278   2.163  0.0248 -0.0974  0.0733
17132W        W33979   8.538   9.785   1.332 -0.1150  0.1274 -0.4156
17133W        W33980   5.411  15.483  14.316  0.2971  0.0545 -0.1256
17134W        W33981   5.475   2.220   3.879 -0.0115 -0.0316 -0.2791
17135W        W33982   3.919  13.128   1.218 -0.1243  0.3839 -0.1287
17136W        W33983   6.229  16.133  12.128 -0.1616  0.0628  0.0036
17137W        W33984   8.385   7.968  11.989 -0.0466  0.1582 -0.0193
17138W        W33985   3.734  18.354  13.644 -0.2573 -0.0655  0.0718
17139W        W33986   3.707  10.807   0.930 -0.0411 -0.2008 -0.1152
17140W        W33987  11.154  10.945  14.562  0.3174  0.3593  0.2347
17141W        W33988   5.446   1.261   1.818  0.1258 -0.0505 -0.0858
17142W        W33989   1.542  16.208   4.381  0.1378 -0.3754  0.1659
17143W        W33990  13.462  17.918   3.890 -0.0640  0.0115 -0.0418
17144W        W33991   3.834   6.045   2.100  0.1071 -0.0241  0.1518
17145W        W33992  10.819   2.858   4.182  0.1002 -0.1244  0.1252
17146W        W33993  14.579   3.203  12.587  0.1017  0.0483  0.1181
17147W        W33994   4.338   5.487  14.479 -0.1136 -0.2041  0.0735
17148W        W33995   0.456   7.296  12.929 -0.3160  0.2596 -0.3132
17149W        W33996   4.160  13.889   3.136  0.0084  0.2204  0.5854
17150W        W33997   1.934  12.952   4.455  0.0021 -0.2824  0.1524
17151W        W33998   1.244  14.632   0.457 -0.0896  0.2313 -0.3963
17152W        W33999   4.483   3.190  11.786 -0.1852 -0.0843 -0.3424
17153W        W34000  10.121   0.467   1.727 -0.0703 -0.3513  0.2674
17154W        W34001   3.546  17.823   1.174  0.0739  0.1863 -0.3224
17155W        W34002  15.984   6.788  15.444 -0.2533  0.1649 -0.0837
17156W        W34003   0.295  17.319   4.487  0.1150 -0.0925 -0.1593
17157W        W34004   2.032  10.930  13.217  0.2730 -0.0868  0.0614
17158W        W34005  13.083  11.554   2.460 -0.0593  0.1223 -0.0009
17159W        W34006  16.800   5.804   4.622 -0.1608 -0.2501  0.1089
17160W        W34007  14.546  13.236  11.890  0.0679  0.0991 -0.0707
17161W        W34008   6.041   9.743   1.567  0.0240 -0.0364 -0.2069
17162W        W34009   1.998   9.875   3.207 -0.0643  0.1464 -0.0364
17163W        W34010   9.830  14.162  14.622 -0.3453 -0.0424  0.0543
17164W        W34011   0.824   4.408   2.236  0.0884 -0.1286  0.0968
17165W        W34012   9.331   0.413   1.942 -0.1637  0.0113  0.1158
17166W        W34013  14.680  16.051  13.953 -0.2196 -0.1393  0.1778
17167W        W34014   7.367  16.272  14.080  0.0981 -0.2827  0.0365
17168W        W34015   9.322  17.411  16.269 -0.0877  0.0310 -0.0280
17169W        W34016  16.798   2.236   3.652  0.1478 -0.0251  0.1436
17170W        W34017   3.099  16.307  14.606 -0.0960  0.2466  0.2097
17171W        W34018   2.105  12.301   2.716  0.1939 -0.1284 -0.1334
17172W        W34019   3.638  18.368   4.949  0.1826 -0.0835  0.0580
17173W        W34020   5.039  15.319  13.402  0.2045 -0.2557 -0.0944
17174W        W34021   4.357   1.348   1.117 -0.0052 -0.1295 -0.3262
17175W        W34022   5.335  16.148   3.633 -0.4674  0.0691 -0.3897
17176W        W34023   4.300   3.860   1.415 -0.0176  0.1490  0.1755
17177W        W34024   7.133  14.306  15.015 -0.1548  0.2024  0.0058
17178W        W34025   4.034   1.319   2.984  0.2167  0.0557 -0.0086
17179W        W34026   8.211   7.253  14.132 -0.3775  0.1028  0.0819
17180W        W34027  12.884   4.828   2.773 -0.1342 -0.0289  0.1483
17181W        W34028   9.974   4.336  13.539  0.4177 -0.0378 -0.0748
17182W        W34029  12.983   4.719  13.851  0.1917  0.2312 -0.0874
17183W        W34030   3.363  17.111  12.780  0.1757 -0.3474  0.2386
17184W        W34031  16.820   5.028   0.948 -0.2238  0.0088  0.0447
17185W        W34032   5.132  13.100  13.780 -0.2429  0.0261 -0.4054
17186W        W34033   0.416   8.865   0.152 -0.1392 -0.4005  0.0495
17187W        W34034   9.894  10.432  16.298 -0.2012  0.4435  0.2192
17188W        W34035   7.347  12.857  14.218 -0.2144 -0.0938 -0.2328
17189W        W34036  18.276  18.180   3.571  0.2922 -0.0569  0.0975
17190W        W34037   8.458  13.467   1.511  0.1285 -0.1256  0.2620
17191W        W34038   7.156  15.884  11.739 -0.1153  0.1909 -0.0852
17192W        W34039   4.480   0.760  12.157 -0.1095 -0.3003  0.2828
17193W        W34040  17.032   1.497  11.565  0.1692  0.2120 -0.1705
17194W        W34041  13.960  15.685  15.533 -0.1601  0.0279  0.1507
17195W        W34042  11.922  15.303  11.365 -0.2666 -0.1102 -0.1790
17196W        W34043  14.754   2.598   1.831  0.1228 -0.0548 -0.3095
17197W        W34044   8.800   7.745  12.327 -0.2799 -0.2240 -0.0899
17198W        W34045   8.930   2.440   4.520  0.2069 -0.3282 -0.2647
17199W        W34046  11.531   6.784   0.955 -0.1413 -0.3477  0.5056
17200W        W34047  16.748   8.825  11.393  0.2887 -0.1137 -0.2010
17201W        W34048   4.482   2.126  13.026  0.0390  0.0531  0.0112
17202W        W34049  11.083  15.559  12.538 -0.0415  0.4008 -0.3191
17203W        W34050   8.019  10.779  13.189  0.1340 -0.1228 -0.0328
17204W        W34051   7.372   7.731  15.462 -0.0560  0.1382 -0.0931
17205W        W34052  16.737   0.563  13.847 -0.0270  0.1577 -0.2017
17206W        W34053   7.487   9.237  13.164 -0.1682 -0.3389 -0.0600
17207W        W34054  12.447   5.955   3.851  0.1154  0.0590 -0.2125
17208W        W34055  10.425  14.951   4.059  0.2542 -0.1134  0.1398
17209W        W34056  15.025  13.495   1.902  0.1937 -0.0280 -0.3698
17210W        W34057   7.761   3.469   4.525 -0.1416 -0.2811 -0.1503
17211W        W34058   8.303  10.764   3.752 -0.0657  0.0209 -0.4076
17212W        W34059  17.946   2.540  13.510 -0.5114 -0.0653  0.2880
17213W        W34060   6.028  16.509   5.232  0.3169  0.1512 -0.2318
17214W        W34061  14.281   4.545  12.467  0.0189 -0.1049  0.1190
17215W        W34062   4.533   7.427   3.730  0.1925  0.0315  0.0998
17216W        W34063   6.171   0.376   1.864 -0.3522  0.0980  0.3717
17217W        W34064   0.414   8.685  11.178 -0.2218  0.1995 -0.2293
17218W        W34065  16.646  12.329   1.516  0.4424  0.3864 -0.2065
17219W        W34066  11.675  14.527   3.077 -0.2001  0.2642  0.5017
17220W        W34067  12.161   4.990  12.661  0.1525 -0.1707 -0.1724
17221W        W34068  15.591   8.557   3.396  0.0562 -0.3156  0.1706
17222W        W34069   2.002   8.917  13.018 -0.0510  0.3476 -0.0286
17223W        W34070  14.592  15.841   0.132 -0.0475  0.1895 -0.1481
17224W        W34071  10.100  16.101   5.424  0.2794 -0.2460  0.0088
17225W        W34072   3.900   8.458  12.551  0.1225  0.1932 -0.1603
17226W        W34073  15.370   4.036   3.875  0.0401  0.4584  0.0018
17227W        W34074   1.737   8.395  13.018 -0.0073 -0.2612 -0.1619
17228W        W34075  14.736   1.667   5.629 -0.0325 -0.3976  0.0056
17229W        W34076   3.170  13.914  13.458 -0.0227 -0.0863  0.1219
17230W        W34077  10.036  12.660   1.996  0.0380  0.0404  0.0156
17231W        W34078  11.014  10.317   3.514  0.0217  0.0835 -0.1868
17232W        W34079  17.125   6.468   3.650 -0.4138  0.2712 -0.2714
17233W        W34080   5.031  17.694  12.530 -0.0545 -0.4324 -0.0821
17234W        W34081   4.785   5.786  13.762  0.0919 -0.3443 -0.0921
17235W        W34082   3.954   3.248   5.149  0.1913  0.0402 -0.3104
17236W        W34083  16.466  13.241   2.536 -0.0525  0.0113 -0.0366
17237W        W34084   4.675   4.915   1.783 -0.0446 -0.0940  0.0213
17238W        W34085   7.444   3.088   1.351 -0.2184  0.1437 -0.3407
17239W        W34086   2.998  12.531  13.856  0.1679 -0.1852  0.2047
17240W        W34087  10.543  10.040  13.454 -0.2014 -0.1011 -0.3250
17241W        W34088   2.710  16.285   3.249 -0.1976 -0.3695  0.0119
17242W        W34089  14.121   0.674  12.070 -0.1204 -0.3405  0.1059
17243W        W34090   5.750  15.619  13.698 -0.2540  0.0696  0.0355
17244W        W34091  13.607  16.115   0.774  0.0997 -0.0916 -0.0711
17245W        W34092   0.775   5.538  14.073 -0.1498  0.1560  0.0813
17246W        W34093   8.829   0.834   4.999 -0.1709  0.1884  0.2013
17247W        W34094  16.891  14.616  13.922 -0.2485 -0.1367 -0.0824
17248W        W34095   4.705  14.592  11.595  0.3276 -0.1687  0.4357
17249W        W34096   2.489  15.622   2.670  0.0891 -0.3970 -0.1148
17250W        W34097   0.434   9.732   3.954  0.1154 -0.1560 -0.0621
17251W        W34098   9.187   6.472   0.641  0.2685  0.2776  0.0102
17252W        W34099  10.540   9.862  11.821  0.3297 -0.2197  0.0969
17253W        W34100  18.381   4.825   1.507 -0.1701  0.0497  0.2212
17254W        W34101  12.630   7.704  14.359  0.3122  0.1658  0.0509
17255W        W34102   5.416  12.916   1.458  0.4775  0.4567 -0.2549
17256W        W34103   7.252   4.167   5.525  0.0881  0.0836 -0.0504
17257W        W34104  16.293  15.350  13.915 -0.1985  0.5354 -0.1363
17258W        W34105   3.064  16.494   1.781  0.0055  0.0392  0.1080
17259W        W34106   2.855   0.493  16.274 -0.2119  0.3047  0.3001
17260W        W34107   3.878  17.862  15.019  0.1767 -0.0740 -0.1198
17261W        W34108  13.734   2.785   0.262  0.0092  0.1254 -0.1369
17262W        W34109   4.778  11.524  15.737  0.0712  0.3468 -0.3438
17263W        W34110   8.216   2.532  12.575 -0.1480 -0.0396 -0.0827
17264W        W34111   8.164   9.794  15.245  0.5245 -0.0470 -0.3050
17265W        W34112  17.441   9.683   4.287 -0.0418  0.0809  0.4979
17266W        W34113   7.846   7.334  16.126 -0.2709  0.1898 -0.2489
17267W        W34114  12.814  12.084   4.172  0.2327 -0.1627  0.1438
17268W        W34115   2.346   4.422  13.789 -0.0898 -0.1996  0.0808
17269W        W34116  11.711   2.633  14.852  0.0541 -0.2286 -0.2096
17270W        W34117  11.459   2.590  11.325  0.0257  0.0408  0.0082
17271W        W34118  13.918   4.943   4.839 -0.0116 -0.1074  0.0758
17272W        W34119   4.073  14.402   2.235  0.1339 -0.0702 -0.3089
17273W        W34120   7.365   3.234  14.343 -0.0876 -0.0979  0.1053
17274W        W34121  11.067  10.153  12.844 -0.1822 -0.0802  0.2962
17275W        W34122   6.123  14.088  14.912 -0.4785  0.1279  0.0104
17276W        W34123  12.610  10.690  13.315  0.3084 -0.3152  0.2534
17277W        W34124   8.266  15.214  12.827 -0.0695 -0.1129 -0.1442
17278W        W34125  16.960   9.460  13.398 -0.0622  0.1063  0.0867
17279W        W34126   6.240   7.966  15.376  0.0462 -0.2002 -0.1775
17280W        W34127  15.643  14.236  14.731  0.3786 -0.2031 -0.1711
17281W        W34128   3.488   0.681   0.684  0.1204  0.0786 -0.1104
17282W        W34129   4.159   6.321  15.833  0.2470  0.0663 -0.1724
17283W        W34130   6.651   2.475   5.510  0.2255  0.2444  0.1130
17284W        W34131   4.000  13.609  15.257 -0.0830 -0.0436  0.0383
17285W        W34132   3.880   8.132   5.110 -0.0997 -0.1160 -0.1053
17286W        W34133  13.822  15.945   1.312  0.3305  0.1781  0.0510
17287W        W34134  14.207  15.098  13.306  0.1371  0.1119  0.1477
17288W        W34135  13.201  15.973   5.115 -0.0328  0.2211 -0.1418
17289W        W34136   7.807   6.276   6.056 -0.2384 -0.0302  0.3701
17290W        W34137   5.344   8.051  11.932  0.0217 -0.0151 -0.1724
17291W        W34138  14.669  12.149   3.078  0.0871 -0.0816 -0.2822
17292W        W34139   4.518   5.437  11.913  0.1023  0.3147  0.2381
17293W        W34140   9.971  12.547   0.472 -0.1952 -0.2070 -0.2446
17294W        W34141   6.470  16.423   2.993 -0.0879 -0.0151 -0.1769
17295W        W34142  15.595   0.948  12.664  0.0709 -0.2098  0.2446
17296W        W34143  15.184   6.953   2.960 -0.2075 -0.0771 -0.2417
17297W        W34144   0.872   1.384  12.193 -0.1391 -0.0051 -0.2144
17298W        W34145   5.158  17.513   4.662 -0.1518  0.0460 -0.1756
17299W        W34146   1.588   1.094  15.820 -0.0541 -0.1569  0.2078
17300W        W34147   3.512  11.271   0.956 -0.1032  0.0300  0.1380
17301W        W34148   5.869   8.934   3.967 -0.2468 -0.1782 -0.0427
17302W        W34149  15.669  13.203   2.153 -0.2033  0.2272  0.1156
17303W        W34150   6.374   5.457   0.668  0.4196  0.1895  0.1085
17304W        W34151   6.490   9.476   0.505 -0.0180 -0.0405  0.5128
17305W        W34152  13.795   1.379  13.160 -0.0609 -0.1674  0.1372
17306W        W34153  17.784   2.276   4.978 -0.3188  0.2107 -0.0023
17307W        W34154  11.706  12.581  15.880 -0.1348  0.1064 -0.1539
17308W        W34155   6.738  15.188   1.381 -0.0153  0.0595 -0.0153
17309W        W34156   1.780   3.746  11.236 -0.2883  0.0136 -0.1860
17310W        W34157  11.989  10.848   2.479  0.0674 -0.2998  0.0831
17311W        W34158  13.885   8.697  11.770 -0.0644  0.3230  0.0791
17312W        W34159   8.849   7.766   0.815  0.2206  0.1494 -0.2267
17313W        W34160  11.810  13.084   3.675  0.1734  0.2204 -0.0577
17314W        W34161  14.867  12.604   3.332 -0.1028  0.0093  0.1857
17315W        W34162   0.988   6.657   4.207  0.0722  0.0121 -0.0536
17316W        W34163   1.155  10.465   2.462  0.0375 -0.3083 -0.2359
17317W        W34164   0.298   2.331   3.208 -0.0248  0.1173 -0.1533
17318W        W34165  16.099  12.604  13.350  0.1688  0.3458  0.0398
17319W        W34166   7.479   9.319   4.230 -0.2705  0.1639  0.2082
17320W        W34167   0.007  17.993  12.944 -0.1678 -0.1512  0.0564
17321W        W34168   6.707  17.167  14.929 -0.0153 -0.2209  0.3063
17322W        W34169  12.825   6.336  15.295  0.0108 -0.1771 -0.2065
17323W        W34170  12.075   5.172   2.516  0.0715 -0.3438  0.1973
17324W        W34171   7.378   9.934   5.767 -0.4412  0.0832 -0.0846
17325W        W34172  15.157   5.763   3.419  0.2062  0.3728 -0.0700
17326W        W34173  13.458  15.531   1.296  0.1722  0.3117 -0.1355
17327W        W34174   8.172   2.245  11.667 -0.1764 -0.0165 -0.2367
17328W        W34175   8.846  15.903  15.630 -0.3062 -0.1794  0.0531
17329W        W34176   8.248  12.807   2.681  0.0071  0.1537 -0.2220
17330W        W34177  17.074  18.046   0.408 -0.1143  0.1229 -0.0618
17331W        W34178   1.871   1.374  12.913  0.2480  0.1361 -0.1204
17332W        W34179   1.303  10.887  13.100  0.0190  0.0865 -0.1766
17333W        W34180  12.425  15.816   3.316 -0.0015 -0.0637  0.1841
17334W        W34181   9.521   0.979  15.828  0.0609 -0.0225  0.1153
17335W        W34182  12.980   5.982  13.832 -0.1952  0.1527  0.0226
17336W        W34183  16.373   4.339   0.542 -0.2601 -0.1480  0.2357
17337W        W34184   2.731   3.100   4.661 -0.2092 -0.3837 -0.0975
17338W        W34185  18.367  17.217   5.779 -0.1893  0.0832  0.0704
17339W        W34186   9.843   0.359   4.108 -0.2601  0.0532 -0.2885
17340W        W34187   3.721  11.519   1.448  0.3306 -0.2178  0.1999
17341W        W34188   4.858   7.810  14.663 -0.2587 -0.0203  0.0577
17342W        W34189   9.933   1.435   1.793  0.2059  0.2318  0.0104
17343W        W34190  10.368  17.353   2.600  0.0897  0.3656 -0.1441
17344W        W34191   6.753   2.707  12.918  0.2466  0.2308 -0.1451
17345W        W34192   7.609  15.303   1.072 -0.0103 -0.0844  0.3962
17346W        W34193   2.462   8.614   4.442  0.0930 -0.0065  0.3501
17347W        W34194   1.877  17.707   1.918  0.0845  0.0560  0.0882
17348W        W34195   0.210   8.121  12.482  0.2884 -0.2238  0.0260
17349W        W34196  10.947  15.085  14.720 -0.0085 -0.1164 -0.0072
17350W        W34197  13.065   6.052  12.753 -0.0498 -0.2471 -0.0123
17351W        W34198   7.441   2.613   4.873  0.0579  0.0840 -0.0926
17352W        W34199  15.688   9.489   1.439 -0.0177  0.0643  0.2588
17353W        W34200   4.435   2.290   5.410  0.0255 -0.0229 -0.1461
17354W        W34201  15.873  17.064   4.890 -0.1432  0.1316 -0.0989
17355W        W34202   7.474  12.453  15.878 -0.4129 -0.3767  0.1651
17356W        W34203   4.570   1.999  15.195 -0.0649  0.5627 -0.0661
17357W        W34204   4.244   7.467  13.173  0.3851 -0.1486  0.0107
17358W        W34205  12.369   4.165  14.350  0.0177 -0.3087  0.0268
17359W        W34206   2.587   6.928   2.138 -0.1459  0.1782 -0.1158
17360W        W34207  15.151   9.708   1.120 -0.1254  0.4279 -0.2376
17361W        W34208   6.109   7.313  14.571  0.0842  0.1032  0.0575
17362W        W34209   8.054   5.815  13.779  0.2803 -0.1383 -0.1331
17363W        W34210  13.578   2.822   5.931  0.0231 -0.0104  0.0027
17364W        W34211   5.831  14.062   4.436  0.1206 -0.0599  0.1689
17365W        W34212   1.324   1.382  14.856  0.3530  0.0549  0.2466
17366W        W34213   3.985   0.621  16.036 -0.0411  0.2298 -0.0108
17367W        W34214  10.558  14.947  13.361 -0.0900 -0.0144  0.1380
17368W        W34215  14.134  15.140  14.816  0.1780  0.1211 -0.2271
17369W        W34216   3.785   2.983   2.010  0.0116  0.0129 -0.2480
17370W        W34217   9.261  10.489  13.172  0.1364  0.1288  0.0079
17371W        W34218  18.411  11.184  14.400  0.1722  0.0108  0.1485
17372W        W34219   9.735   6.262   1.680  0.2510  0.1023  0.0790
17373W        W34220   7.836   2.013  15.505  0.0322  0.0093  0.0142
17374W        W34221   9.038   1.223   4.721 -0.2596 -0.0502  0.1709
17375W        W34222   5.170   5.983  11.142  0.2679  0.0226 -0.2670
17376W        W34223   9.329  15.174  13.816  0.0126  0.2686  0.1814
17377W        W34224  11.289   7.153  11.918 -0.1547  0.3119  0.1166
17378W        W34225   5.791  15.871  11.937 -0.3091  0.2555  0.0307
17379W        W34226  15.446   5.403  12.473  0.1722  0.2105 -0.0500
17380W        W34227   6.503   1.423   4.398 -0.0970  0.2832 -0.0483
17381W        W34228  12.369   5.765  12.158  0.0665 -0.1582  0.1022
17382W        W34229   5.765   1.370  16.070  0.0637 -0.0334 -0.0611
17383W        W34230  10.113   2.317   2.190 -0.0757 -0.0275  0.3391
17384W        W34231   3.750  13.791   5.816 -0.0017  0.0591  0.0664
17385W        W34232   9.247   7.963   3.637  0.4049 -0.0588 -0.1585
17386W        W34233   1.252  15.188  12.582 -0.2654 -0.0870 -0.0723
17387W        W34234   4.226   0.173  15.691 -0.2076  0.2094  0.3333
17388W        W34235   5.282  16.217   2.091 -0.2368  0.0898 -0.0430
17389W        W34236  16.666  14.742   1.623  0.0465  0.1226 -0.2337
17390W        W34237  15.524  15.118  14.726 -0.0354  0.0692  0.0701
17391W        W34238   0.861   6.664   4.767  0.1105  0.1650 -0.0637
17392W        W34239   1.054  16.075  16.263  0.2531 -0.1309 -0.1807
17393W        W34240   1.202  13.735  15.283  0.2662  0.0663 -0.1785
17394W        W34241   5.318  15.235   3.773  0.2958  0.1357 -0.1329
17395W        W34242  12.377   7.121  16.188 -0.0436 -0.3361  0.0197
17396W        W34243   3.378   6.626   1.637 -0.3788  0.0987 -0.1852
17397W        W34244  11.793  11.045   6.461  0.2256  0.0598 -0.2197
17398W        W34245   6.927  11.835  12.570 -0.2357  0.0634  0.3564
17399W        W34246   8.056  12.417  16.049  0.0772  0.2476  0.0217
17400W        W34247   5.231   9.987  14.596 -0.3605  0.0589  0.1678
17401W        W34248  14.413  14.770  12.935  0.2774  0.2654  0.2458
17402W        W34249   6.372  15.448   3.801  0.0436 -0.1882  0.1841
17403W        W34250  17.899   1.288   0.779 -0.1544 -0.0869 -0.0440
17404W        W34251  18.299  11.249  14.972 -0.0087 -0.0981  0.2255
17405W        W34252  14.595  16.276   3.255 -0.2086  0.0267 -0.0116
17406W        W34253   8.253   6.467  14.677 -0.3486 -0.0433  0.1507
17407W        W34254   5.309  17.819   4.347 -0.1732 -0.0460 -0.2498
17408W        W34255   4.672  13.874   4.359  0.1406 -0.2660 -0.3627
17409W        W34256   7.049  17.201  11.880  0.0215 -0.2328  0.3600
17410W        W34257   0.502   2.379   0.790  0.0641  0.1753  0.0953
17411W        W34258   6.313   6.670   3.617  0.3298 -0.1801  0.0368
17412W        W34259   6.620   9.145  13.115 -0.1127 -0.0483 -0.0232
17413W        W34260  10.579   9.598   5.033  0.2842 -0.1031  0.0969
17414W        W34261  12.326  16.469   5.100  0.2030 -0.0684 -0.0448
17415W        W34262   6.488  12.578  14.199 -0.0721  0.0690 -0.0291
17416W        W34263   0.533   9.642  16.087  0.0907  0.0495 -0.0509
17417W        W34264  18.340  15.323   0.694 -0.0796  0.1892 -0.3935
17418W        W34265  12.081  17.584  13.672  0.0548  0.0168 -0.0473
17419W        W34266   3.993   4.085  13.215  0.0909  0.0696 -0.0879
17420W        W34267   8.637  12.658   0.822 -0.0911 -0.1521 -0.1389
17421W        W34268  11.750   3.619  13.382 -0.0295 -0.1007  0.0172
17422W        W34269  11.385   8.847   4.884 -0.1298  0.0067  0.1251
17423W        W34270   4.769   1.703   0.095  0.0071  0.0115  0.3506
17424W        W34271  15.778  15.154  14.035  0.0230  0.0416 -0.0364
17425W        W34272  16.410   0.441  13.449  0.2805  0.0759 -0.1201
17426W        W34273  11.026   8.292   1.816 -0.2369 -0.2649 -0.4364
17427W        W34274   6.623   0.423   2.089  0.0222  0.0753  0.2621
17428W        W34275  13.194   0.220  13.638  0.3165 -0.0601 -0.2302
17429W        W34276   8.622  10.280   2.975 -0.1572 -0.0909 -0.0127
17430W        W34277   7.322   6.549   6.258 -0.0598 -0.0480  0.0250
17431W        W34278  14.741   1.208  13.424  0.0508  0.1972  0.0117
17432W        W34279   3.307  13.075   4.166 -0.3190  0.1263 -0.1791
17433W        W34280   8.467   5.107  14.831  0.3497  0.1761  0.0979
17434W        W34281   1.969  11.697   4.238  0.0791 -0.2838 -0.1317
17435W        W34282  11.349   4.484  13.683 -0.0457 -0.1165 -0.1255
17436W        W34283   6.277  12.768   1.525  0.2607 -0.0734 -0.0509
17437W        W34284  15.641  15.154   4.549  0.0170  0.1088 -0.3620
17438W        W34285   3.573  16.945  12.097 -0.1443  0.1997 -0.1912
17439W        W34286   5.260   2.753  14.872 -0.3189  0.0799 -0.0506
17440W        W34287  14.876   2.560  14.725 -0.0875 -0.0305  0.1965
17441W        W34288   4.823   0.911   2.395 -0.2184  0.2898 -0.1247
17442W        W34289  16.956   6.335  12.426 -0.1562 -0.2310 -0.1586
17443W        W34290   0.612  17.207   2.017  0.3468 -0.1112  0.0980
17444W        W34291   3.973  11.965   2.277  0.0627 -0.4824  0.1467
17445W        W34292  10.769  16.394  12.233  0.1670  0.3668 -0.0439
17446W        W34293   2.917   2.586  10.833 -0.0115 -0.0091 -0.3062
17447W        W34294   5.374  12.424  15.275  0.0058 -0.3107  0.2056
17448W        W34295   8.969   5.548   0.805  0.2584 -0.3760 -0.1286
17449W        W34296  16.094  11.246   0.802 -0.2265  0.2696  0.1703
17450W        W34297  10.794   3.164   5.396  0.0972 -0.0690  0.0699
17451W        W34298  13.106  12.533   0.020  0.0192  0.0179  0.0311
17452W        W34299   0.337  17.889  13.989  0.1005 -0.0851  0.3933
17453W        W34300   2.939  13.700  15.905 -0.1938  0.1568 -0.0723
17454W        W34301   4.240  12.385   5.449 -0.0796  0.1801 -0.0886
17455W        W34302   9.111   3.228  11.503 -0.2096  0.1271 -0.0862
17456W        W34303  13.629  13.941  12.289  0.1578  0.2034  0.0203
17457W        W34304  16.770   6.664   0.473  0.0246 -0.4223  0.2875
17458W        W34305  16.154   4.652   1.295  0.1290 -0.1487 -0.0162
17459W        W34306  11.825   1.168   3.511  0.0286  0.2622 -0.1408
17460W        W34307  16.538  14.852  15.108 -0.0618  0.0199 -0.0862
17461W        W34308  11.458  14.044   1.775  0.1629  0.0250  0.1762
17462W        W34309   3.892   1.359   5.389  0.0149  0.0392 -0.0983
17463W        W34310  10.636  12.714  13.330 -0.0645 -0.1422 -0.1017
17464W        W34311  11.127  15.459  15.221  0.0171  0.0524 -0.0486
17465W        W34312   8.254  11.084   4.143 -0.3635 -0.0096 -0.0171
17466W        W34313   5.979   6.975  12.818 -0.2339  0.1065 -0.2772
17467W        W34314  12.106  12.715   2.355 -0.0271 -0.1162  0.1254
17468W        W34315  15.837   0.820   1.535  0.0553 -0.0132 -0.0686
17469W        W34316   7.089  13.957   4.011 -0.0478 -0.0267 -0.2373
17470W        W34317  16.737   5.670  11.128 -0.3335  0.0282  0.1504
17471W        W34318   1.222  13.232  13.092 -0.1941  0.3509 -0.0282
17472W        W34319  13.160   8.479   1.824 -0.1001  0.1075  0.0578
17473W        W34320  15.683  15.983   3.965 -0.0307 -0.4387  0.1755
17474W        W34321  17.901  15.226  12.256 -0.2470  0.2469 -0.0052
17475W        W34322   1.153  16.305   2.100  0.0299 -0.0803  0.0966
17476W        W34323   8.963   3.070   5.097 -0.2201  0.0325 -0.0903
17477W        W34324   0.265   2.195  14.754  0.2395 -0.3896 -0.0251
17478W        W34325   6.772  12.771   1.342  0.2074  0.0008 -0.1428
17479W        W34326  10.145   6.174   5.017 -0.1140  0.0362 -0.1681
17480W        W34327   2.086  15.480   0.827 -0.0381  0.1943 -0.0955
17481W        W34328   6.945   3.223  12.727  0.0477  0.0422 -0.0009
17482W        W34329  11.467   5.581  11.368 -0.0780 -0.1178  0.1546
17483W        W34330   9.916   7.075  13.687 -0.1445  0.3098 -0.0275
17484W        W34331   8.839   4.647   0.575 -0.1563 -0.0338 -0.3016
17485W        W34332  16.349   9.529  12.475  0.3651  0.0426 -0.1002
17486W        W34333  13.902   4.926   5.335 -0.0374 -0.0274 -0.1176
17487W        W34334  14.862  12.690  11.859 -0.1631  0.1548  0.1585
17488W        W34335   3.878  14.242  12.212  0.2682  0.1327 -0.1689
17489W        W34336  14.151  12.968   2.091  0.0682 -0.1963  0.1723
17490W        W34337   2.763  13.557   5.602  0.0172  0.0822 -0.4630
17491W        W34338  16.360  12.496   3.354 -0.1834  0.2116 -0.1491
17492W        W34339   2.293   1.222   2.343  0.0000 -0.1936  0.0757
17493W        W34340  17.979  14.439  14.615  0.2050 -0.2803  0.0506
17494W        W34341   3.834   2.636   3.314  0.0759  0.0152 -0.1673
17495W        W34342  13.012   6.622   1.722 -0.3004  0.0613 -0.1678
17496W        W34343   4.677   2.676  13.438  0.0208  0.0382  0.0048
17497W        W34344  13.540   9.070   0.573  0.3194 -0.0526  0.1184
17498W        W34345  12.033   4.451   5.055 -0.2807 -0.0136 -0.2357
17499W        W34346   7.276   0.825   2.743 -0.1787 -0.0832 -0.1240
17500W        W34347  16.569   5.120   4.066  0.0209 -0.2326 -0.0547
17501W        W34348  13.138  12.794   3.343 -0.2380  0.2068  0.0206
17502W        W34349   7.987  10.422  15.213 -0.1912 -0.0204 -0.6245
17503W        W34350   5.317  15.241  15.184 -0.0563 -0.1527  0.2568
17504W        W34351  17.434  16.551   2.142 -0.2621 -0.0539  0.2289
17505W        W34352   0.107   0.045   2.816 -0.1530 -0.0279 -0.3884
17506W        W34353   5.497  12.823  12.748 -0.4043 -0.0107 -0.1620
17507W        W34354   3.454   2.029   3.163 -0.0677 -0.3687 -0.1840
17508W        W34355   7.393   5.962   0.885 -0.0633  0.1206  0.4225
17509W        W34356   3.056   3.733  10.905  0.0191  0.0805 -0.3271
17510W        W34357  11.995   8.294   1.111 -0.0915 -0.1162 -0.0400
17511W        W34358  10.101   1.156  12.405 -0.3178  0.1346  0.3013
17512W        W34359   7.348   8.557   4.615 -0.0741 -0.4584 -0.2336
17513W        W34360   1.271   6.937  10.246 -0.1539 -0.0886  0.0521
17514W        W34361   9.910  14.977   6.184  0.0059 -0.5289 -0.1323
17515W        W34362  11.681   8.815   1.866  0.4450 -0.2936 -0.0121
17516W        W34363   7.693   2.881  16.100  0.0309 -0.0433 -0.2294
17517W        W34364  16.545   5.973  16.177  0.2015 -0.0830 -0.0389
17518W        W34365  17.304  10.444  12.049 -0.0825  0.0421 -0.2282
17519W        W34366  11.497  11.952   1.273 -0.0537 -0.0915 -0.0777
17520W        W34367  16.165  15.843   4.061  0.0592 -0.0165  0.0118
17521W        W34368  15.371  15.432   0.778 -0.0532 -0.0623  0.2419
17522W        W34369  17.649   0.231   2.083 -0.3992 -0.1524  0.0753
17523W        W34370  13.013  12.738  11.736  0.0462  0.1960 -0.3634
17524W        W34371   5.651  11.849   6.237  0.3344 -0.1080  0.0592
17525W        W34372   9.307  18.330  11.750 -0.2906 -0.1813  0.1294
17526W        W34373  12.146  18.335  15.282 -0.1735 -0.1051 -0.1187
17527W        W34374   2.642  16.706  15.899 -0.1999  0.1403  0.2632
17528W        W34375   2.248  14.383  16.320  0.0463  0.0125  0.1081
17529W        W34376  15.876  12.338  15.113  0.4906  0.2612 -0.0620
17530W        W34377   7.917   6.300   5.524 -0.3321  0.0727 -0.0215
17531W        W34378   4.559  10.742   1.950 -0.0663  0.2588  0.0708
17532W        W34379  18.388   1.480  14.058 -0.2110 -0.3366  0.0864
17533W        W34380  13.296   6.679  15.324  0.0499  0.4490 -0.1709
17534W        W34381   2.486   0.996  15.137  0.1824  0.1168 -0.1205
17535W        W34382   8.252  15.751   4.928 -0.1277  0.1764  0.1727
17536W        W34383  14.147   9.388  11.436  0.0689  0.0937 -0.0011
17537W        W34384  12.066  15.275   0.073  0.0716 -0.3877  0.0196
17538W        W34385   6.721  17.578   5.106 -0.0441  0.1167  0.0932
17539W        W34386   4.333   7.729  14.628  0.0034  0.2266 -0.1027
17540W        W34387   1.344  14.071   3.195  0.0496 -0.0365 -0.1198
17541W        W34388   4.553  16.711  13.384 -0.0339 -0.1703  0.0398
17542W        W34389   0.457  14.268  15.058  0.2080 -0.0655  0.2521
17543W        W34390  18.319   8.907  14.565  0.1422  0.1170 -0.0951
17544W        W34391  17.784  14.726   3.993  0.0384 -0.1971 -0.4111
17545W        W34392   0.608  16.544   1.526  0.3201 -0.2785  0.0911
17546W        W34393   1.310  10.078   4.016  0.1478 -0.1019  0.2985
17547W        W34394   1.147   0.630   3.905 -0.0507 -0.0209 -0.2597
17548W        W34395  16.905   8.263   1.960  0.0304 -0.0562 -0.2717
17549W        W34396  15.352   3.302  15.980 -0.0455 -0.0522 -0.0155
17550W        W34397  10.960   5.480  12.831  0.0752  0.2868  0.1403
17551W        W34398   7.300   8.318   2.744 -0.2004  0.0231  0.0036
17552W        W34399   6.748  14.731  16.378 -0.0746 -0.2377  0.2694
17553W        W34400   4.048   2.192  15.215  0.1790 -0.4367  0.0020
17554W        W34401   2.088   1.304  13.681 -0.1876  0.1156 -0.5292
17555W        W34402  10.504   2.921   1.783  0.2009  0.1517 -0.3171
17556W        W34403  14.128   9.281   2.089 -0.2219 -0.1440  0.2245
17557W        W34404   7.820   8.206  14.064 -0.1869 -0.2418 -0.0218
17558W        W34405   2.699   0.238  15.548  0.0446  0.0094 -0.0911
17559W        W34406  15.161  12.584  12.770  0.1712  0.2516  0.4235
17560W        W34407   1.203  16.030   3.042 -0.2891 -0.0324  0.1825
17561W        W34408  12.548   6.216  14.105 -0.0998  0.3577 -0.1013
17562W        W34409   0.941  15.578  11.928  0.1394  0.0997 -0.1784
17563W        W34410  10.808   9.539   1.187  0.2699 -0.0755 -0.3739
17564W        W34411   4.091  13.859  13.805  0.1318  0.0359 -0.0978
17565W        W34412  12.234   0.171  14.857 -0.0619  0.0167 -0.0762
17566W        W34413  15.005  10.038  11.492  0.1537  0.1226  0.0944
17567W        W34414   3.236   7.467   3.896  0.0850  0.0185 -0.3426
17568W        W34415  17.565  10.787   0.805  0.0720  0.0551 -0.0056
17569W        W34416  12.319   6.696  10.943 -0.2403 -0.0412 -0.2181
17570W        W34417   2.092   4.086  16.277 -0.3685 -0.4175  0.2059
17571W        W34418  14.865  13.626   5.584 -0.4211  0.0822  0.1237
17572W        W34419  16.619  10.380   3.274 -0.5199 -0.0412 -0.2581
17573W        W34420   3.934   3.339  12.614 -0.2052  0.0168  0.0435
17574W        W34421  11.500  10.186   3.795  0.0550 -0.2679  0.1765
17575W        W34422  14.226  17.232   5.083  0.0082 -0.1573  0.2275
17576W        W34423  14.097  11.749  14.589  0.1162 -0.2939  0.3152
17577W        W34424   5.513  15.462  13.226  0.1311 -0.0017 -0.3013
17578W        W34425   8.607  17.272   4.535 -0.1360  0.0230  0.2931
17579W        W34426  17.456   6.774  11.577 -0.1144  0.0266  0.0039
17580W        W34427   9.008  15.426   0.556  0.0922 -0.1857  0.0788
17581W        W34428   1.880   3.032   1.272 -0.2215 -0.0995 -0.1247
17582W        W34429   8.220   6.536  12.834 -0.0800 -0.3006  0.2145
17583W        W34430   9.963  16.068  14.780 -0.0768  0.1693 -0.0196
17584W        W34431   5.385  12.996   0.156  0.1111  0.2109 -0.2556
17585W        W34432  16.127  13.428   0.389  0.1532 -0.3832  0.2965
17586W        W34433  15.069   6.622  14.688 -0.0222 -0.1619  0.1398
17587W        W34434   5.408   8.378  16.342 -0.0927  0.1905  0.1965
17588W        W34435  15.739   4.223   4.838  0.4089  0.0182  0.2754
17589W        W34436   0.716   2.170  15.821 -0.3312  0.1005 -0.0092
17590W        W34437   4.336   4.076   3.111 -0.2265 -0.0768  0.0755
17591W        W34438   4.780   5.606   4.736  0.1167 -0.2405  0.0396
17592W        W34439   2.757   7.336  11.646 -0.4082  0.2047  0.1391
17593W        W34440  17.524   7.073  14.231  0.3151 -0.0848 -0.0650
17594W        W34441   2.674  10.722  11.977  0.3282  0.3551  0.1029
17595W        W34442  17.146  10.674   4.012 -0.0634  0.0301  0.0865
17596W        W34443   1.231  10.270  12.927 -0.0379  0.1632 -0.1306
17597W        W34444   6.769   9.112  15.865  0.0192 -0.4005  0.1499
17598W        W34445  17.140   2.484   0.428 -0.2484  0.1910 -0.0995
17599W        W34446  10.622   1.326   5.181 -0.1226  0.3462  0.1445
17600W        W34447  13.157   2.761   1.481 -0.0145  0.3357 -0.1676
17601W        W34448   5.744   0.844  15.427 -0.0577  0.0676  0.3051
17602W        W34449   6.114  11.008   5.271 -0.1480 -0.0666 -0.0264
17603W        W34450   6.125  12.887   4.590 -0.3033 -0.1519  0.0140
17604W        W34451   9.779  17.707  12.422 -0.1792  0.0913  0.2528
17605W        W34452  12.962  18.106   3.767  0.1362 -0.0398  0.0188
17606W        W34453   3.277   2.646   0.433  0.2093 -0.1855  0.1444
17607W        W34454   8.414   3.813  11.254  0.1915  0.0441 -0.1845
17608W        W34455   0.040   0.320  12.301  0.0565  0.0172 -0.0543
17609W        W34456  10.210   2.724   4.879 -0.0787  0.1723 -0.2223
17610W        W34457   4.846   0.383   2.628 -0.0164  0.0364 -0.0833
17611W        W34458  14.405   3.474  15.072  0.2079  0.0592 -0.1004
17612W        W34459   0.040  10.751  15.056 -0.0853 -0.0173  0.3168
17613W        W34460  12.156  14.899   3.096 -0.1016  0.0969  0.0334
17614W        W34461   4.819  11.736  14.373  0.1319 -0.2594 -0.2151
17615W        W34462   6.563   7.355  14.825  0.1847  0.3659  0.0708
17616W        W34463  13.288   3.330  11.422  0.2077  0.1963 -0.1525
17617W        W34464   5.871   2.706  16.247 -0.1215  0.1586 -0.0496
17618W        W34465   7.693  11.339  14.831 -0.1388 -0.1719 -0.2496
17619W        W34466  12.146  12.764  13.889  0.1274  0.2957  0.0268
17620W        W34467   0.926   0.262   0.799  0.2323  0.3489 -0.0163
17621W        W34468   4.757  17.700   4.969  0.0263  0.0722 -0.0130
17622W        W34469  16.543  12.186  15.161  0.1028  0.2473  0.1243
17623W        W34470  13.334   4.488   0.789  0.1569 -0.0241 -0.2023
17624W        W34471  11.707  16.512   0.686 -0.1471 -0.1030  0.0577
17625W        W34472  15.539   4.822  11.467  0.0531  0.3975  0.0919
17626W        W34473  15.350  17.939  13.937 -0.1680 -0.1126  0.0346
17627W        W34474   9.999  16.969  12.502  0.0190 -0.0940  0.1297
17628W        W34475  14.229   8.166   5.623  0.0650  0.0895  0.0148
17629W        W34476   7.964  12.318  12.346 -0.1978  0.1909 -0.0271
17630W        W34477  10.027   4.156   4.089  0.0098 -0.0383 -0.0668
17631W        W34478   5.981   2.866   2.961 -0.1938 -0.2873 -0.1864
17632W        W34479   1.570  15.152   6.314 -0.1581  0.4937  0.0461
17633W        W34480   7.685   8.934   1.195  0.4474  0.0125 -0.3612
17634W        W34481   5.006  13.432  15.303 -0.3058 -0.0608  0.0494
17635W        W34482   1.970   4.925  14.358  0.0832  0.1966 -0.0602
17636W        W34483   7.953  17.104   4.900 -0.4355  0.1536 -0.3651
17637W        W34484   0.551   5.529   0.270  0.2272  0.3208 -0.0940
17638W        W34485   3.445  16.162  12.690 -0.1280  0.0440 -0.1542
17639W        W34486  16.501   1.472  12.368 -0.0909 -0.0105 -0.0205
17640W        W34487  14.850  14.297   0.354  0.1400 -0.1862 -0.1214
17641W        W34488   8.556   4.029   4.048  0.1102 -0.3527 -0.4122
17642W        W34489   0.114   0.771   0.535 -0.1061 -0.0536 -0.0239
17643W        W34490  11.353   4.195   0.562 -0.1938  0.1382  0.1151
17644W        W34491  12.607   3.769   2.607  0.1484 -0.1582  0.0732
17645W        W34492  10.926   4.428  15.701 -0.2208  0.1183 -0.1923
17646W        W34493  13.615  12.312   4.859 -0.0619  0.2518 -0.0239
17647W        W34494   1.644   6.653   5.097 -0.1487  0.0001 -0.1658
17648W        W34495   7.515   1.744  11.736 -0.1804 -0.0210 -0.0269
17649W        W34496  12.614   4.577  12.702 -0.0451 -0.1303  0.2219
17650W        W34497  17.207  13.709  16.199  0.0650  0.0591  0.1039
17651W        W34498   3.428  13.989   4.992 -0.0606  0.0191 -0.0830
17652W        W34499  14.738   7.130  13.461 -0.3560  0.1411  0.3106
17653W        W34500  13.708  10.493  15.429 -0.1155  0.0464  0.0331
17654W        W34501   6.336  16.830  15.444 -0.2733  0.2450  0.1312
17655W        W34502  11.295   5.411  14.074 -0.4522  0.0736  0.2239
17656W        W34503  14.365   8.241  14.977  0.0281 -0.2095  0.1430
17657W        W34504   0.077   0.139   2.278 -0.2268  0.2128 -0.1362
17658W        W34505  17.607  10.770  12.351  0.0419  0.0625  0.0300
17659W        W34506  14.688  10.279  12.270  0.1250  0.2373 -0.5022
17660W        W34507   0.902   7.512   3.362  0.0005  0.0529 -0.0386
17661W        W34508  17.234  14.086  12.563  0.0404 -0.1175  0.4835
17662W        W34509  13.105   6.397  14.108 -0.1814  0.1792  0.2240
17663W        W34510  17.634  13.737  13.981  0.1763  0.0082 -0.1685
17664W        W34511   3.995   1.586   4.979 -0.2508 -0.0775 -0.0947
17665W        W34512   4.138  13.379   2.970  0.3148  0.2141 -0.4592
17666W        W34513  10.947  15.630   3.544  0.2268 -0.3702 -0.0776
17667W        W34514  15.812  18.091   1.573  0.1494  0.1152 -0.2366
17668W        W34515  12.773  11.278   3.385  0.1828 -0.2290  0.1169
17669W        W34516  17.004  15.409  12.782  0.3045  0.2149  0.3529
17670W        W34517   0.252  18.356  13.773  0.1974  0.0592  0.1213
17671W        W34518  10.471   4.670   5.193  0.0145 -0.0904  0.0173
17672W        W34519   4.754   7.685   4.241 -0.2546 -0.1560  0.0866
17673W        W34520  12.975   3.836  16.143  0.3621 -0.0190  0.0005
17674W        W34521   4.149   5.873  15.442 -0.2286  0.2152 -0.0922
17675W        W34522  12.717  14.636  15.000  0.1429 -0.0181 -0.0369
17676W        W34523  14.056   4.993   3.420  0.0518  0.0237  0.2900
17677W        W34524   1.430  13.304   1.403  0.0069 -0.2859  0.1670
17678W        W34525  13.126  10.924  15.983 -0.2679 -0.1618  0.0867
17679W        W34526  11.864   6.354  15.221  0.0171 -0.0193  0.0249
17680W        W34527  15.033   2.494   0.780 -0.1378  0.0047 -0.0115
17681W        W34528   7.084  12.523   4.575 -0.1044 -0.1394 -0.1882
17682W        W34529  17.062   2.477  11.059 -0.2970  0.1685  0.1526
17683W        W34530   6.757  12.525   5.915 -0.2852  0.1938 -0.3746
17684W        W34531   1.100   2.151  14.426 -0.0543 -0.1497  0.2772
17685W        W34532   9.092   1.541   0.780 -0.0499  0.0595  0.1635
17686W        W34533  10.538   3.060   3.435 -0.1608  0.0852  0.1820
17687W        W34534  12.907   1.298  14.579 -0.0078  0.2057  0.0997
17688W        W34535  16.562  15.312   2.149  0.1075  0.0289  0.0037
17689W        W34536  13.994   7.257   0.253 -0.2472 -0.1211 -0.1502
17690W        W34537   2.877   1.633  14.725 -0.3207  0.3532  0.1107
17691W        W34538   0.314   5.558  13.737  0.0260 -0.1416 -0.2067
17692W        W34539   2.274   4.657  11.918 -0.0155 -0.3278 -0.0680
17693W        W34540   1.233  17.961   4.654  0.1311  0.0394 -0.0963
17694W        W34541   4.276   4.517   3.389  0.0853  0.1410  0.2371
17695W        W34542  11.464  11.061   4.800  0.2826 -0.1754  0.0564
17696W        W34543   3.954   4.307  11.111  0.2720  0.0353 -0.0427
17697W        W34544   5.575   0.607   3.186 -0.0602  0.1739 -0.0832
17698W        W34545  15.959   7.444  10.931 -0.1151  0.1563 -0.3647
17699W        W34546   3.277  15.509  15.057  0.2864  0.2899 -0.2936
17700W        W34547   3.622  11.775  15.828 -0.0506  0.2845 -0.0746
17701W        W34548   5.099   5.107   0.754 -0.2859  0.0830  0.1322
17702W        W34549   3.801  12.175  11.724  0.1936 -0.0540  0.2726
17703W        W34550   0.741  13.393   5.221  0.0649 -0.1724 -0.3197
17704W        W34551  15.869  13.701  12.211  0.2052 -0.0382  0.1082
17705W        W34552  17.877  10.824  15.068  0.4579 -0.0559  0.1688
17706W        W34553   2.051   0.055  15.220  0.2013 -0.1202  0.4062
17707W        W34554  10.349  14.644   2.435  0.0170  0.0268 -0.0896
17708W        W34555   2.408   2.532  14.788 -0.1179 -0.2682  0.1732
17709W        W34556   0.151   9.430   2.069  0.1031  0.3055  0.2156
17710W        W34557   2.278   9.476  13.860 -0.4059 -0.0360  0.0943
17711W        W34558  18.025   1.733  13.800 -0.1848 -0.3139 -0.3699
17712W        W34559  14.646  11.633   3.040  0.1068  0.0641  0.0692
17713W        W34560  12.475   8.400   2.654 -0.1818 -0.0646  0.0582
17714W        W34561   3.229  14.292   2.864  0.3160 -0.1176  0.0056
17715W        W34562   8.783  15.239   3.647  0.0013  0.0287 -0.2920
17716W        W34563   0.121  12.428  13.471 -0.3021  0.2478 -0.0977
17717W        W34564   8.859  15.177  14.215 -0.0929  0.0467 -0.0839
17718W        W34565   2.091   4.106  15.601  0.0112  0.2598  0.0808
17719W        W34566  15.830  18.332  15.484  0.2226 -0.0561  0.1861
17720W        W34567  15.694  16.566   1.493  0.5677  0.3333 -0.0327
17721W        W34568  10.728  12.943   0.688  0.1354 -0.3927 -0.4610
17722W        W34569  13.942   0.013  12.828  0.3956 -0.0013  0.0281
17723W        W34570   8.825   5.463  11.839  0.1477  0.1516  0.2794
17724W        W34571  15.114   0.806  16.193  0.2002 -0.0167  0.2192
17725W        W34572   2.506  10.533   0.020 -0.0884 -0.2180 -0.2640
17726W        W34573  14.782   5.057  16.138  0.0566 -0.0101  0.1355
17727W        W34574  17.215   9.720   0.455 -0.0089  0.1043  0.0918
17728W        W34575  18.137   6.794   1.404  0.2529 -0.4128 -0.0131
17729W        W34576   7.515  17.514   2.137  0.1445 -0.2552 -0.2723
17730W        W34577   0.032  14.060   0.546 -0.0664 -0.1183 -0.2310
17731W        W34578   8.896  16.765  13.208 -0.0257 -0.0112  0.0521
17732W        W34579   4.257   8.123   1.996  0.0520 -0.2064 -0.0911
17733W        W34580   0.548   6.639  10.689  0.1051  0.0942 -0.1730
17734W        W34581   9.780   6.493   3.280  0.2666  0.0359  0.1933
17735W        W34582   6.980  10.560   4.632  0.0547  0.1644 -0.1469
17736W        W34583   0.484   8.638  13.994 -0.4010  0.0696  0.1196
17737W        W34584   3.670   9.280   5.970  0.0589  0.2622 -0.2152
17738W        W34585   9.799   1.976  12.859 -0.0753  0.1537  0.1658
17739W        W34586   1.744   9.454  11.219 -0.0661 -0.0212 -0.2323
17740W        W34587   0.388  12.800   1.157  0.0352  0.3010  0.2114
17741W        W34588   0.548  17.402  14.013 -0.0469 -0.0019  0.0659
17742W        W34589   1.850  14.461   2.421  0.1277 -0.1389  0.1774
17743W        W34590   6.749  14.618  14.967  0.2898 -0.0215  0.0447
17744W        W34591  17.706  14.025  14.632  0.0321  0.2846  0.0676
17745W        W34592  16.181  12.041   0.370 -0.0189  0.2629  0.1929
17746W        W34593   1.460   1.085   3.359 -0.0347 -0.5080 -0.1219
17747W        W34594  12.654  11.059   2.919  0.2514  0.1300 -0.0606
17748W        W34595   3.171  18.249   3.801  0.0799 -0.1244 -0.0609
17749W        W34596  10.338   7.118  12.414 -0.1678  0.0481 -0.1454
17750W        W34597   3.550   8.647  11.672  0.0817  0.0018 -0.0128
17751W        W34598  18.411  16.008   5.168  0.1814 -0.1630  0.0587
17752W        W34599  13.237  17.123  15.464 -0.0626 -0.1396 -0.0186
17753W        W34600  16.711   2.682   0.652 -0.1794 -0.2579 -0.1791
17754W        W34601  16.904  17.576  15.937 -0.0577 -0.2160  0.2590
17755W        W34602   1.490  13.164  11.725 -0.1229  0.0569 -0.0789
17756W        W34603   9.785  10.976   3.754 -0.0876 -0.0713 -0.1022
17757W        W34604  10.701   4.183  16.183  0.0438  0.1268  0.0646
17758W        W34605   8.870  18.258   5.121 -0.0404  0.0015  0.0653
17759W        W34606  15.224  15.809  14.189 -0.1769 -0.0696 -0.0291
17760W        W34607  12.283   9.416  12.208 -0.1429 -0.0720  0.2495
17761W        W34608   3.388   4.424  12.125  0.3616  0.0034 -0.0413
17762W        W34609  16.861  15.997   3.396  0.1699  0.2891 -0.0625
17763W        W34610  13.088  13.976  14.258 -0.0652  0.0800 -0.2618
17764W        W34611  14.108   2.562  16.024  0.1421  0.2989 -0.0106
17765W        W34612  16.285  12.532   3.852 -0.0009 -0.2274  0.2401
17766W        W34613  16.738  14.585  14.425  0.0419 -0.2493  0.1961
17767W        W34614   9.882   3.626   1.763 -0.1255  0.2815 -0.1281
17768W        W34615   2.425   5.688   4.516  0.2121 -0.0694 -0.2043
17769W        W34616  13.469   3.043  14.369 -0.1278 -0.0062  0.0478
17770W        W34617   2.982   0.039  15.922 -0.0112 -0.1720 -0.0896
17771W        W34618  16.313   1.953  15.996  0.0742  0.0225 -0.2893
17772W        W34619   2.348  10.432  13.398 -0.1228 -0.0059 -0.1651
17773W        W34620  15.088  13.546  12.380 -0.0764  0.2201 -0.1462
17774W        W34621   5.222  11.096   2.413  0.0713 -0.0060 -0.1623
17775W        W34622   1.497   8.496   1.987  0.1220 -0.1572 -0.2911
17776W        W34623   4.145   0.316   5.655  0.1097 -0.0543  0.3436
17777W        W34624  12.499   7.645  11.981 -0.0847 -0.2812  0.0959
17778W        W34625  13.037  13.283   5.891 -0.2955  0.1868 -0.2624
17779W        W34626  10.826   2.109  11.581 -0.1000  0.1426  0.0819
17780W        W34627   2.342  14.500   1.666 -0.0147 -0.0696  0.0996
17781W        W34628  11.481   4.363   4.883  0.3168 -0.4152 -0.3992
17782W        W34629   7.273  14.056  14.458  0.2166 -0.1455  0.3347
17783W        W34630   2.687   3.259  13.618 -0.1282  0.0563 -0.3899
17784W        W34631   5.356   1.340   0.421 -0.1574 -0.1076 -0.1121
17785W        W34632  14.376   0.700   0.140  0.4105 -0.1239 -0.0603
17786W        W34633  13.244  14.095   0.668 -0.3203 -0.0453  0.1237
17787W        W34634   2.241   2.747   1.346  0.1114  0.1139 -0.0807
17788W        W34635  13.256  14.058  14.713 -0.3369  0.0996 -0.2273
17789W        W34636  16.351  15.329   3.389 -0.0064 -0.1098  0.3405
17790W        W34637  10.965   5.351   4.886 -0.4912 -0.0280  0.0796
17791W        W34638   4.042   2.922   4.726 -0.2679 -0.1314 -0.2314
17792W        W34639  16.764   7.944   0.833 -0.2552 -0.0514  0.0806
17793W        W34640  13.184   5.498  13.789  0.3104 -0.1091  0.0969
17794W        W34641   6.566  15.298   2.753  0.2185 -0.2053 -0.0346
17795W        W34642   0.481  11.819   2.767  0.1499 -0.1975 -0.1745
17796W        W34643   8.495  12.173  16.285 -0.0706 -0.2774  0.2238
17797W        W34644   9.737  16.545   0.858  0.3558  0.1032  0.1515
17798W        W34645  15.906  14.437   2.253 -0.2197  0.0232  0.0264
17799W        W34646  16.845   2.978  11.606 -0.1538  0.2713  0.1245
17800W        W34647  17.298   3.799   2.501 -0.2208 -0.0772  0.0703
17801W        W34648  16.835  16.734   0.877 -0.1655 -0.1881  0.0872
17802W        W34649  10.478  11.771  15.235  0.0604  0.0549 -0.1946
17803W        W34650   0.754   7.119   4.126 -0.1183 -0.0415  0.5491
17804W        W34651  15.197  10.254   4.423  0.1296  0.0540 -0.0391
17805W        W34652   2.370  16.928  12.882 -0.2357  0.3247  0.4508
17806W        W34653   0.117  14.601  13.735  0.2475 -0.2690 -0.2287
17807W        W34654   1.560   0.361  11.399  0.2991 -0.1401 -0.1713
17808W        W34655  11.848  15.349   3.251 -0.0682 -0.1082 -0.1479
17809W        W34656  10.996   2.916  15.533 -0.1930  0.0826 -0.0400
17810W        W34657  14.746  15.892  13.522  0.4247  0.0385 -0.0620
17811W        W34658  12.178   4.737   4.050 -0.1665  0.1128  0.2675
17812W        W34659   1.862   6.818   5.629  0.1569  0.1087 -0.3133
17813W        W34660  13.197   4.596  15.848  0.0554  0.3397  0.0404
17814W        W34661   0.911  11.722  11.748 -0.0163  0.0902 -0.0795
17815W        W34662   2.894   9.381  13.219 -0.1939 -0.0799 -0.1280
17816W        W34663  12.152   5.652   1.104 -0.0657 -0.0507  0.3629
17817W        W34664   3.743  14.968   2.926  0.6168  0.2194 -0.3140
17818W        W34665  12.546  17.049   2.007 -0.1800  0.0055 -0.1224
17819W        W34666   5.038  11.007  12.474 -0.0098 -0.0724 -0.2285
17820W        W34667  18.040  17.416   0.249 -0.2751  0.1979  0.1452
17821W        W34668   9.196  14.374  12.214  0.0192 -0.1728  0.0612
17822W        W34669  14.949  11.635  14.783  0.0552  0.1822 -0.4027
17823W        W34670  10.910  11.933  15.595 -0.1361  0.1194  0.1623
17824W        W34671   6.455  15.578   5.018 -0.0208 -0.1857  0.0290
17825W        W34672  11.338   2.282   3.916  0.0092  0.0063 -0.0664
17826W        W34673   8.164  11.686  14.604  0.0601  0.2018 -0.1257
17827W        W34674  10.882   2.405   4.147  0.1331 -0.3926 -0.3394
17828W        W34675  14.268   8.679   4.750  0.2050 -0.1159 -0.0586
17829W        W34676  16.308  12.705   2.878  0.1681  0.0359 -0.0511
17830W        W34677   0.701  12.079  16.320 -0.2216  0.0775 -0.2896
17831W        W34678  10.378   6.555  15.065 -0.2234 -0.0593  0.1793
17832W        W34679   1.049   0.098   1.885 -0.1133  0.1154  0.5904
17833W        W34680   1.397  11.469   3.824 -0.1406 -0.0424  0.0774
17834W        W34681  12.312   0.133   3.587  0.1507  0.0965 -0.1043
17835W        W34682  15.837   4.193  12.752 -0.0230 -0.0015  0.1403
17836W        W34683   5.036  10.105   1.363  0.1061 -0.0846 -0.0991
17837W        W34684  18.288  11.468  16.030 -0.0529  0.4152  0.2911
17838W        W34685  16.221  17.043   5.419 -0.1755 -0.2075 -0.0577
17839W        W34686  14.699  12.140  16.037  0.0763 -0.2164 -0.1542
17840W        W34687  15.977   1.290   0.350  0.0391  0.1873  0.3434
17841W        W34688  17.253  11.126   3.748  0.0069 -0.0165 -0.1287
17842W        W34689   9.603   6.671   5.323  0.0203  0.3753 -0.2190
17843W        W34690  12.010  10.751   0.377  0.0354 -0.0555  0.0396
17844W        W34691  10.366  11.181   3.996 -0.1215 -0.1590 -0.0027
17845W        W34692  11.510  15.007   5.852  0.0503 -0.0286 -0.1566
17846W        W34693  12.400   8.281   4.939  0.2459 -0.2777 -0.0671
17847W        W34694  13.738   6.293   4.027 -0.0147  0.1027  0.0162
17848W        W34695   3.902   3.570   1.160  0.1264 -0.0000  0.1839
17849W        W34696   6.733  15.090  16.011  0.5459 -0.0229  0.1169
17850W        W34697   3.775   6.440   5.542  0.1160 -0.2417 -0.1801
17851W        W34698   2.742   8.158  13.943 -0.2251 -0.0984 -0.0422
17852W        W34699  13.780   0.922  12.350 -0.1225  0.5604 -0.0433
17853W        W34700  13.118  11.217  12.625  0.0867 -0.0024  0.0776
17854W        W34701   2.102   6.757   3.813  0.0384 -0.6087 -0.1884
17855W        W34702  15.607   4.814   3.655  0.1438 -0.0609 -0.1623
17856W        W34703  14.663   1.419  12.455 -0.1377  0.0524 -0.1794
17857W        W34704   6.157   9.537   4.312  0.0776 -0.1750 -0.0950
17858W        W34705  12.038  14.105   4.813 -0.0215 -0.0097 -0.1475
17859W        W34706  14.898  14.555  16.257 -0.1638 -0.2636  0.1015
17860W        W34707  13.745  17.835  11.499  0.1423  0.0462 -0.1272
17861W        W34708   3.204   1.880   0.759  0.2920  0.1697  0.1867
17862W        W34709   6.683  12.846   0.848 -0.3245 -0.0135 -0.1647
17863W        W34710   9.193  18.197   3.641 -0.1098 -0.2111 -0.0503
17864W        W34711   4.121  12.836  13.823  0.3909  0.2375 -0.3210
17865W        W34712   7.428   0.784   2.285  0.2137  0.3165 -0.0367
17866W        W34713  11.791   7.811  13.909 -0.1356 -0.0220  0.1975
17867W        W34714  15.985   2.303   0.244  0.0666 -0.1292  0.0991
17868W        W34715   9.960  11.269  13.869 -0.2927 -0.0665 -0.5915
17869W        W34716   4.799   1.451   0.903  0.3204 -0.5471  0.0809
17870W        W34717   1.144   3.252  12.538 -0.1145  0.1722  0.2627
17871W        W34718   0.482  11.141   0.084  0.0616 -0.4107 -0.0654
17872W        W34719  14.414   5.110  13.563 -0.0714 -0.0240  0.0402
17873W        W34720   1.510  11.723  13.556  0.0322  0.0439  0.0247
17874W        W34721  13.483   6.898  13.542 -0.0630 -0.1386 -0.0185
17875W        W34722  14.110   7.976  15.352  0.3972 -0.2274  0.0554
17876W        W34723   1.255  16.193  14.791 -0.2539  0.1077 -0.1801
17877W        W34724   0.305  12.651   3.101  0.3331 -0.1276  0.0688
17878W        W34725  11.134  17.943   3.322 -0.0120 -0.2429 -0.0587
17879W        W34726  12.163   8.478  12.259 -0.2570  0.2263 -0.1521
17880W        W34727   3.717  17.224   0.955  0.0404  0.3975 -0.1424
17881W        W34728  11.379  15.480  15.749  0.4457  0.2239  0.1183
17882W        W34729   1.384   5.643   4.283  0.1589 -0.1835  0.2005
17883W        W34730   7.780   0.525   4.097  0.0891 -0.0773  0.1197
17884W        W34731  14.167  16.465   4.734 -0.3061 -0.2491  0.0606
17885W        W34732   4.342  13.663   0.683 -0.1915  0.0610 -0.0483
17886W        W34733   8.462   0.750   0.708  0.2229 -0.0809 -0.0362
17887W        W34734   7.294  14.930  16.273  0.0714 -0.1179  0.0008
17888W        W34735  11.158  11.499   4.119  0.3144 -0.0391 -0.1248
17889W        W34736   0.870   6.128   3.568 -0.0384  0.1235  0.3429
17890W        W34737   8.321  18.288   3.442 -0.0005 -0.2610 -0.0837
17891W        W34738   8.395   8.929  12.657  0.0752  0.2072 -0.2411
17892W        W34739  10.468   8.390   5.159 -0.0438  0.1067 -0.1215
17893W        W34740  12.761   1.059  14.168 -0.2752 -0.2835  0.1090
17894W        W34741   6.996   5.950   4.719  0.0039  0.2239 -0.3043
17895W        W34742  11.418  13.644  15.541 -0.2704  0.0600  0.0761
17896W        W34743  14.996  11.588  11.801 -0.1940 -0.1194  0.1720
17897W        W34744  11.146  11.289   5.183  0.2871  0.1672 -0.1134
17898W        W34745   8.281  14.650  15.357 -0.0421 -0.2106 -0.1604
17899W        W34746   7.894   8.489   1.109  0.0799 -0.4069  0.1967
17900W        W34747  14.540  12.092   4.351  0.3998 -0.2498  0.2013
17901W        W34748   0.627   5.254  12.848 -0.0663  0.0014  0.3402
17902W        W34749  10.564   1.270  12.050 -0.2787  0.0415  0.0625
17903W        W34750   3.324   8.328   0.388  0.3738  0.0762  0.1056
17904W        W34751   0.532   0.209  16.324  0.3745 -0.0008 -0.4329
17905W        W34752   9.601   4.704  13.140 -0.3680 -0.1932 -0.2335
17906W        W34753   6.014   8.448   3.946  0.1144 -0.1517  0.1951
17907W        W34754   0.810  15.347  12.325  0.0014 -0.2832  0.1907
17908W        W34755   6.153   0.620  11.732  0.2577 -0.2259 -0.0349
17909W        W34756  17.500  12.170  14.796  0.1838 -0.1597 -0.2131
17910W        W34757   6.963  14.592  15.892  0.0296  0.0788 -0.3246
17911W        W34758   4.138   7.299  12.679 -0.0910 -0.1912 -0.1184
17912W        W34759   3.536  10.592  11.959  0.2286 -0.2383 -0.3096
17913W        W34760   4.107   4.392  11.601 -0.0530  0.1281 -0.2172
17914W        W34761   1.657  12.403   3.149 -0.1309  0.1174  0.1997
17915W        W34762   1.724  13.883   4.048 -0.1280  0.0157  0.0547
17916W        W34763  13.101   8.411  13.894 -0.2488  0.3027 -0.2230
17917W        W34764   4.510  17.915  14.763  0.0965 -0.0377  0.0551
17918W        W34765   4.302   8.267   5.387  0.1364 -0.1640  0.4899
17919W        W34766  16.585   1.386   2.807 -0.2171 -0.0141 -0.0386
17920W        W34767   2.941   0.288  14.021 -0.0528 -0.1517 -0.1554
17921W        W34768   1.379  14.422   2.089 -0.1471 -0.2462 -0.0165
17922W        W34769   3.004  11.381   3.149  0.0543 -0.0875  0.3824
17923W        W34770   2.775  15.422   4.994  0.1413 -0.0055  0.2164
17924W        W34771   3.980   6.804  14.457 -0.1443 -0.0736 -0.2586
17925W        W34772  17.677  12.365   4.489 -0.3773 -0.1762  0.2500
17926W        W34773   1.185   1.006  12.338 -0.1416  0.0812 -0.0551
17927W        W34774   4.392  12.380  13.753  0.0423 -0.0776  0.0905
17928W        W34775  12.530  12.965  13.697 -0.2454 -0.0039  0.4896
17929W        W34776  15.493  12.073   1.256  0.0093 -0.0383  0.1346
17930W        W34777  14.971  13.121   5.608 -0.3526  0.1292  0.3523
17931W        W34778   4.707  10.004  11.651  0.0985 -0.1689  0.1358
17932W        W34779  13.610  17.260  14.549  0.1342  0.0650 -0.1083
17933W        W34780  12.117  15.909   2.193 -0.2353 -0.4379 -0.0095
17934W        W34781  16.328  16.320   0.137 -0.1612 -0.0085  0.1679
17935W        W34782  10.013   4.233   4.595  0.1543  0.3159 -0.2509
17936W        W34783  15.981   3.625  11.115 -0.1345 -0.0605 -0.1660
17937W        W34784   9.009  16.531   4.725 -0.1400 -0.1748  0.2126
17938W        W34785  12.524  14.197  15.448  0.0729  0.0102 -0.1072
17939W        W34786  17.935   0.875  14.562  0.0520  0.0749 -0.3527
17940W        W34787  17.566   2.893  14.941  0.0928  0.5507  0.2317
17941W        W34788  14.929   6.198  11.663 -0.2033  0.1914 -0.1379
17942W        W34789  11.918  11.717   3.158 -0.1186 -0.1139 -0.0445
17943W        W34790  13.289  13.529  14.496 -0.1354 -0.0352  0.1439
17944W        W34791   1.816  11.895  12.736 -0.1061  0.1432 -0.0688
17945W        W34792  17.212  15.338  16.318  0.2332 -0.3769  0.1789
17946W        W34793   2.113  18.257   4.685 -0.0954  0.0409 -0.0025
17947W        W34794  15.692   6.737   0.377 -0.2397  0.2140  0.2305
17948W        W34795  16.026   6.534   4.450  0.2256  0.4300 -0.0501
17949W        W34796   5.381  11.128  13.675 -0.4096 -0.4177  0.2059
17950W        W34797   5.608   6.306  11.929  0.2880 -0.1245  0.2757
17951W        W34798  10.195  15.790   0.594 -0.1882 -0.1516  0.0826
17952W        W34799  15.629   2.153   3.386  0.2190 -0.0002 -0.0133
17953W        W34800  10.754   3.803  15.789 -0.1227 -0.0745  0.0723
17954W        W34801   9.780  12.201  12.056 -0.0924  0.0765  0.0634
17955W        W34802  15.628  13.117   0.228  0.3620 -0.0475 -0.0335
17956W        W34803  15.701  14.651  11.866  0.1191 -0.1422 -0.0659
17957W        W34804  12.679   3.833  10.361 -0.1148 -0.0305 -0.0895
17958W        W34805   1.230   6.747  11.821  0.1266 -0.0207  0.1767
17959W        W34806   1.338  11.113   0.764  0.2791 -0.0729 -0.0465
17960W        W34807   9.382  17.575   4.182  0.0480  0.1284 -0.0003
17961W        W34808   0.137   8.786   4.645  0.2102  0.1445 -0.3467
17962W        W34809  13.606   8.197  13.929  0.0999  0.1672  0.0214
17963W        W34810  16.129   8.340  13.079  0.3469 -0.4273 -0.0142
17964W        W34811   0.650   4.321  10.146 -0.1149  0.2198 -0.1448
17965W        W34812  17.928   4.189  15.723 -0.0131 -0.0311 -0.1974
17966W        W34813   2.581  16.518  14.363 -0.2468  0.1096 -0.1850
17967W        W34814  11.620  16.194   3.387 -0.0455 -0.2396 -0.2727
17968W        W34815  11.732   3.457   0.535 -0.2837 -0.1804  0.0780
17969W        W34816   3.320  14.508  16.190  0.1491  0.1216 -0.5696
17970W        W34817   1.110  13.843  12.274  0.0655 -0.1058 -0.5715
17971W        W34818  10.526  14.763  12.292  0.0551 -0.0244  0.0173
17972W        W34819   8.106   8.386  12.166  0.0306 -0.3817 -0.1767
17973W        W34820  14.456  18.230   1.994 -0.0628  0.2371 -0.2596
17974W        W34821   6.430   8.046   3.194 -0.1471  0.2188  0.2705
17975W        W34822   5.047   1.915   2.438 -0.0606  0.0017  0.0444
17976W        W34823  13.934   8.526  14.828  0.1406  0.5081 -0.1642
17977W        W34824   3.446   9.677   3.473 -0.0426 -0.2093  0.2571
17978W        W34825   4.487   8.368  15.943 -0.1570  0.0420  0.0102
17979W        W34826  13.782   1.311   0.173 -0.1915  0.3147  0.1350
17980W        W34827   0.750   9.500  14.086  0.0203  0.0277 -0.1700
17981W        W34828   9.496   9.187   1.730 -0.0678  0.1241 -0.0729
17982W        W34829   7.250  16.851  13.966  0.1152 -0.4139  0.0246
17983W        W34830  15.046   4.283  14.911 -0.1190 -0.0920  0.1208
17984W        W34831   4.532  18.409  12.045  0.1198 -0.3489 -0.0671
17985W        W34832   0.257   9.630  13.190 -0.1570 -0.0423 -0.0189
17986W        W34833  17.562   9.462  12.138 -0.0460  0.3282  0.2641
17987W        W34834  17.351   0.729   4.264 -0.0835 -0.1942  0.1075
17988W        W34835  10.142   6.707  11.617  0.0933  0.2237  0.1199
17989W        W34836   5.590  12.750   0.996  0.2177  0.2495 -0.1876
17990W        W34837  16.254   2.061   3.547 -0.0201 -0.0018 -0.2887
17991W        W34838  12.237   4.441   1.337 -0.1078  0.2262 -0.3730
17992W        W34839  14.460   5.558  13.365  0.2836 -0.3189 -0.4620
17993W        W34840  14.084  17.024  12.170 -0.0884 -0.0108  0.4361
17994W        W34841  16.140   7.818  13.201 -0.3054  0.1298 -0.0203
17995W        W34842   6.674  16.004   5.332  0.1642  0.0962 -0.0915
17996W        W34843  17.968   5.133  10.674 -0.0138  0.1430  0.2041
17997W        W34844  10.377  14.453  14.528 -0.3299 -0.2912 -0.1690
17998W        W34845  12.770   9.867  11.448  0.0051 -0.0464 -0.2215
17999W        W34846  14.034   9.625   4.871 -0.0442 -0.0009  0.0194
18000W        W34847   0.531   3.817   3.069  0.0036 -0.0906  0.0309
18001W        W34848   2.579   3.741   0.336  0.2417 -0.0668  0.0512
18002W        W34849   4.320  13.133   0.903 -0.0047  0.1325 -0.2454
18003W        W34850   9.876   6.511   3.898 -0.2457  0.0556  0.0572
18004W        W34851  10.900  12.741   1.305  0.0172  0.0950  0.1039
18005W        W34852  15.044  16.671  14.585 -0.3825  0.1106 -0.1004
18006W        W34853   3.772   7.131   0.168 -0.0095  0.0350 -0.0590
18007W        W34854  18.131   6.742   4.787 -0.0917 -0.3274  0.0570
18008W        W34855  12.491  10.138   0.514 -0.0724 -0.1176 -0.2593
18009W        W34856   1.807   1.569  13.360  0.1196  0.0822  0.0126
18010W        W34857   5.032   6.521   2.744  0.1872  0.0267 -0.0386
18011W        W34858  11.256  10.484   3.095  0.1004  0.1565 -0.1832
18012W        W34859   7.199  11.127   0.699 -0.1740 -0.2009  0.2091
18013W        W34860   1.148  12.942  12.245 -0.2116  0.1067  0.1872
18014W        W34861  13.440   8.916  14.922  0.1682 -0.1888  0.1098
18015W        W34862   6.299   4.730  14.717 -0.0663  0.1237 -0.0127
18016W        W34863  17.448  11.607   1.579 -0.0569  0.0014  0.1537
18017W        W34864  12.678   9.151  14.531  0.0764 -0.2352 -0.1476
18018W        W34865   4.652   4.274   4.672 -0.0533 -0.1546  0.1747
18019W        W34866   9.533   6.082   1.287 -0.2271 -0.2869 -0.1671
18020W        W34867   4.797  13.050   2.328  0.0119  0.2094 -0.3602
18021W        W34868   7.736  11.078   2.696  0.1805 -0.0598 -0.1070
18022W        W34869   0.876   2.392   5.199  0.2969 -0.1318  0.1517
18023W        W34870   8.403   5.098  11.729  0.0409 -0.0431  0.1061
18024W        W34871   5.071   3.479  12.866 -0.2893 -0.1950  0.0748
18025W        W34872   3.435   5.140   1.812  0.0960 -0.3112  0.0344
18026W        W34873  12.648   3.873  10.914 -0.0409  0.0454 -0.3396
18027W        W34874  11.492   5.137  15.414  0.0796  0.4651 -0.0649
18028W        W34875   9.654  15.411   5.288 -0.3998  0.0315 -0.2423
18029W        W34876  14.460   8.353  16.192 -0.2505  0.0728 -0.2052
18030W        W34877  13.367   1.677   5.042  0.2829  0.1213  0.1766
18031W        W34878   7.674   9.014   2.208  0.1769 -0.0242 -0.2122
18032W        W34879   0.237  10.297  15.024  0.2174 -0.0559 -0.0376
18033W        W34880   8.956   3.784   4.380 -0.3337  0.0096  0.2187
18034W        W34881   6.400   6.853   1.753  0.0537 -0.1447 -0.0051
18035W        W34882   1.048   7.924  13.436 -0.3368 -0.0376  0.1166
18036W        W34883   3.554  12.678  16.252 -0.0731 -0.2029  0.1420
18037W        W34884   6.168  15.313   0.417  0.1713  0.1327 -0.1350
18038W        W34885   3.295  15.609   3.821 -0.1622 -0.1703 -0.3030
18039W        W34886  10.117   8.137  13.233  0.2559  0.1062 -0.0756
18040W        W34887  15.138   8.824  14.784 -0.2001  0.0795  0.4120
18041W        W34888  14.023   0.336   1.620  0.0398  0.1545  0.0585
18042W        W34889  15.092   2.829   3.170 -0.2593  0.0060 -0.0216
18043W        W34890  12.640  16.491  14.817 -0.3481 -0.0645 -0.2481
18044W        W34891  12.258  10.926  12.906  0.4418 -0.0835 -0.0279
18045W        W34892  11.780   9.952   3.403 -0.0020  0.2700 -0.1674
18046W        W34893  10.503  16.269  11.096  0.0363  0.0092 -0.3432
18047W        W34894   7.878   6.332   1.378  0.2237  0.2698 -0.0580
18048W        W34895   2.785   2.543  13.675  0.3309  0.0373  0.0225
18049W        W34896   9.431  15.376   1.112 -0.0834 -0.0103 -0.1844
18050W        W34897  17.865   7.632   1.990  0.1660 -0.0239 -0.2613
18051W        W34898   3.912   2.466   4.777  0.1543 -0.1687 -0.1503
18052W        W34899   2.764  12.921   0.541 -0.1614  0.0533  0.1189
18053W        W34900  12.562   3.523  16.187 -0.1610 -0.0365 -0.0091
18054W        W34901   3.815   7.841   1.949 -0.0767 -0.2611  0.0579
18055W        W34902   6.571   0.068  13.861 -0.2430 -0.1567  0.1049
18056W        W34903   6.117  16.274   1.559  0.0033 -0.0626  0.3642
18057W        W34904   8.481  10.033  12.532 -0.0310 -0.0877  0.0934
18058W        W34905   9.515  12.167   2.555  0.0148  0.2501  0.0894
18059W        W34906  10.059  13.653  12.863  0.0701  0.1826 -0.1017
18060W        W34907  17.575   1.166   4.283  0.0882  0.2212 -0.0523
18061W        W34908   9.798  13.203   2.666 -0.0702 -0.0487 -0.0260
18062W        W34909   0.957  15.225   0.187  0.1072  0.0845  0.0861
18063W        W34910   9.851   9.347   5.410 -0.2269  0.0579  0.0269
18064W        W34911   2.147   1.987  14.160 -0.0011  0.3497  0.1037
18065W        W34912   2.001   6.000   5.282 -0.0937 -0.2341  0.1566
18066W        W34913   1.204   1.647   0.615 -0.2534 -0.1137  0.0313
18067W        W34914   5.900   9.271   5.950 -0.3923  0.0796 -0.0045
18068W        W34915  11.159  13.739   2.352  0.1235 -0.1715 -0.0425
18069W        W34916   3.195  16.641  13.578 -0.0223 -0.0223 -0.1282
18070W        W34917   1.768   5.531   3.344  0.0251 -0.2826 -0.0311
18071W        W34918  11.654   9.176   2.490  0.1932 -0.1245 -0.2827
18072W        W34919   3.328   4.876   0.865  0.1646 -0.2923 -0.0743
18073W        W34920   6.504   3.993   1.224  0.2771 -0.0088 -0.2216
18074W        W34921   3.118   9.725   1.719  0.4808  0.0186  0.2875
18075W        W34922  16.728  11.442   0.800  0.2077 -0.0729  0.1581
18076W        W34923   6.378   2.700  16.374 -0.0789 -0.1967 -0.1705
18077W        W34924  14.946   7.938   5.078  0.0742  0.0775 -0.1437
18078W        W34925   1.140  10.746  11.529 -0.0153 -0.3279 -0.0161
18079W        W34926   6.739   8.187  13.901 -0.0359  0.1631 -0.2341
18080W        W34927  12.191  12.863   0.798 -0.2369  0.0357  0.0895
18081W        W34928   8.072  14.875   3.773  0.0087  0.1361 -0.0294
18082W        W34929  15.497   2.500   4.603 -0.0863 -0.1370  0.1100
18083W        W34930  13.292   5.082  15.876  0.0596  0.2464 -0.0848
18084W        W34931   7.884   2.321   0.314 -0.2214 -0.0271  0.0875
18085W        W34932   7.262  10.204   3.013  0.0203 -0.1671 -0.1028
18086W        W34933   2.120   9.813  13.049  0.0057 -0.1634 -0.0813
18087W        W34934   6.521   5.043   1.975 -0.0053  0.0485 -0.3444
18088W        W34935  10.765   0.265   5.586  0.2801 -0.2409  0.1513
18089W        W34936  14.469  18.318  15.437 -0.2296 -0.3086  0.0034
18090W        W34937  13.577  14.541  15.342 -0.0397 -0.1070  0.4220
18091W        W34938   4.346   6.021  14.674 -0.2182 -0.0856  0.0923
18092W        W34939  16.249  13.721   2.993 -0.1378  0.0317 -0.2531
18093W        W34940   5.205  17.978   1.902  0.3122  0.1282 -0.3194
18094W        W34941  16.900   7.242   0.713  0.2027 -0.0586  0.1067
18095W        W34942  15.020   6.406  11.191 -0.0296  0.0703 -0.2868
18096W        W34943   5.010   8.267  16.022  0.4297 -0.0816  0.1268
18097W        W34944  11.121   9.817   4.320 -0.2708  0.4133 -0.2508
18098W        W34945  17.657  14.727   5.378  0.1510 -0.1346  0.0284
18099W        W34946   7.074  14.817   0.352  0.4035  0.1480  0.1155
18100W        W34947  13.896   7.521   2.404 -0.0436  0.1167 -0.0603
18101W        W34948  16.894   9.734   5.942  0.0598 -0.3090  0.0909
18102W        W34949  12.567  11.515   0.470 -0.0367 -0.3187  0.3462
18103W        W34950  17.344   8.683   4.184  0.0585  0.1114  0.2973
18104W        W34951   9.470   1.172  11.625 -0.1027  0.0802 -0.0622
18105W        W34952  18.383   6.481   5.198 -0.1049 -0.2015 -0.0624
18106W        W34953  12.976   8.047  12.070 -0.1383  0.0007 -0.2629
18107W        W34954   0.213  11.332  10.054 -0.0283  0.2894 -0.0105
18108W        W34955   3.978   0.134   0.810 -0.2312 -0.1392 -0.0863
18109W        W34956   1.137  11.330  16.334 -0.3348  0.0121 -0.4797
18110W        W34957   4.124   6.002  12.808 -0.2126  0.1446 -0.1243
18111W        W34958   0.955   4.775  11.480  0.0270  0.2395 -0.1777
18112W        W34959   2.378   3.560   3.453  0.0741  0.4041 -0.2862
18113W        W34960   8.042   3.636   2.515  0.1849 -0.0361 -0.1679
18114W        W34961   0.581   4.705   3.374 -0.2130 -0.2893 -0.1692
18115W        W34962  16.094  16.120  15.373  0.0754  0.1145 -0.1801
18116W        W34963  17.671  16.439  15.170  0.2452  0.1561 -0.4602
18117W        W34964  15.879  12.353   4.169  0.0920 -0.0746  0.1786
18118W        W34965  16.254   4.382   4.640  0.1495 -0.1722 -0.1785
18119W        W34966   8.128   6.381  11.554 -0.1758 -0.0849 -0.2573
18120W        W34967   3.506   4.452  14.529 -0.2505  0.0176 -0.4015
18121W        W34968   5.304  11.925   5.868 -0.0638  0.1037  0.2593
18122W        W34969   1.652  12.808  12.028 -0.0391 -0.1532  0.1237
18123W        W34970  17.297   4.657   0.302  0.0730  0.2478 -0.0315
18124W        W34971   9.393   6.554   3.002 -0.3034  0.0548  0.0756
18125W        W34972   2.896  10.423   1.159  0.1436 -0.3566 -0.1684
18126W        W34973  18.070  11.753  11.793 -0.1084 -0.1658 -0.0747
18127W        W34974   0.826   2.166   1.851  0.1569 -0.0861  0.0144
18128W        W34975  15.222  12.481  13.251 -0.1175  0.2560  0.1208
18129W        W34976   4.919   9.664  13.643  0.0303  0.0065  0.1297
18130W        W34977   3.629  12.703   3.870 -0.0264  0.1463 -0.0447
18131W        W34978   6.641   0.087  12.432  0.2244  0.1766 -0.0531
18132W        W34979   3.885   0.634  11.360 -0.0619  0.1748 -0.0380
18133W        W34980   7.203  14.873  15.288  0.0135  0.1983  0.1313
18134W        W34981   8.983   8.674  16.116 -0.4057  0.3036 -0.1889
18135W        W34982   5.540   4.779  11.481 -0.1393  0.0093  0.2350
18136W        W34983  15.757   7.167   3.598  0.2209 -0.0284 -0.1018
18137W        W34984  12.933   9.378  12.699 -0.0611 -0.0405  0.1381
18138W        W34985  17.231  13.967  14.696 -0.1201 -0.3805 -0.0176
18139W        W34986  13.062  16.284  11.583 -0.1903 -0.0981  0.2134
18140W        W34987   5.652  17.926   2.192 -0.0574  0.2209  0.0526
18141W        W34988   2.050   2.903  12.283  0.2133  0.2149 -0.0666
18142W        W34989  13.259   5.487   2.343 -0.0100 -0.0206 -0.2982
18143W        W34990   8.488   1.385  15.869  0.0163  0.1018  0.0627
18144W        W34991  12.783   5.410  12.217  0.1331  0.0606 -0.0170
18145W        W34992   0.195   6.317  10.629  0.1862 -0.0592  0.1774
18146W        W34993   5.116   0.159  16.064 -0.0035 -0.0624 -0.0303
18147W        W34994   9.308   6.517  15.327  0.2900 -0.0980 -0.2083
18148W        W34995   7.092   2.771  12.149  0.0602 -0.2450  0.5395
18149W        W34996   6.688   7.824  11.219 -0.4849 -0.0732  0.2568
18150W        W34997   2.980   8.901  10.912 -0.0578  0.2779 -0.0537
18151W        W34998   4.104  12.295   5.926  0.1862 -0.0726 -0.3591
18152W        W34999   7.943   0.477  12.374  0.3370 -0.1726  0.0833
18153W        W35000  10.186   3.999   6.047  0.2064  0.0665  0.2664
18154W        W35001   6.318   2.564   1.055 -0.0773  0.0702  0.2916
18155W        W35002   0.798   1.282  16.311  0.2242  0.1527  0.1175
18156W        W35003   6.837   5.662   1.514  0.1965 -0.1330  0.1824
18157W        W35004   0.949  10.406  14.326  0.1497 -0.3349 -0.1009
18158W        W35005   3.153   0.193   5.265 -0.2633  0.0605  0.2328
18159W        W35006   3.194   1.511   3.044 -0.1832 -0.1633 -0.0005
18160W        W35007  16.516  16.755  14.280 -0.1587  0.0857 -0.0136
18161W        W35008   8.321  18.266  14.447 -0.0324  0.0937 -0.0305
18162W        W35009  10.129  16.606   4.633  0.1126  0.2570  0.0807
18163W        W35010  14.812   2.322   5.499  0.1421 -0.4062  0.1045
18164W        W35011  16.621   3.021  14.970 -0.2401 -0.3086 -0.0386
18165W        W35012   7.434   4.487   0.503  0.0138 -0.0491 -0.0152
18166W        W35013   6.575   4.721  13.693  0.2480 -0.1915 -0.1196
18167W        W35014  12.539  14.465   3.395  0.1668 -0.2461 -0.0607
18168W        W35015  13.468  12.284   2.541 -0.0503 -0.3281  0.1597
18169W        W35016   4.617  10.113  11.142  0.1742  0.1389 -0.0646
18170W        W35017  12.046  12.064   3.903 -0.1275 -0.0759 -0.0349
18171W        W35018   8.233   8.596   3.498  0.1780  0.0988  0.0839
18172W        W35019   0.012  12.975  13.265 -0.3587  0.0246  0.1079
18173W        W35020   7.601   3.042  12.925  0.1037 -0.3193 -0.0046
18174W        W35021  15.796   9.483  15.195 -0.1464 -0.1095 -0.0275
18175W        W35022   2.643  11.706   1.656  0.0995 -0.0336  0.2503
18176W        W35023   9.099  14.861  12.573 -0.1482  0.0033 -0.1804
18177W        W35024   1.303  16.688  14.719 -0.1499 -0.2274  0.2837
18178W        W35025  18.108  10.382   3.926 -0.0076 -0.1355 -0.1785
18179W        W35026   4.379  17.487   4.169 -0.3722  0.1028 -0.2862
18180W        W35027   5.391   3.069   1.188 -0.0482  0.2162  0.0066
18181W        W35028   0.394  14.666   4.475  0.1135 -0.1707  0.1631
18182W        W35029  13.499  11.410   1.938 -0.0245  0.0187  0.1039
18183W        W35030   7.340   9.552   4.620 -0.1496 -0.3174  0.0389
18184W        W35031  13.364  17.594   1.197  0.3064  0.1277 -0.1065
18185W        W35032   4.789  14.465   1.115 -0.2982  0.2358  0.2909
18186W        W35033   4.901   6.086   1.336  0.1077 -0.2210  0.0568
18187W        W35034  10.763  12.673  15.915  0.0380 -0.1784  0.0682
18188W        W35035   4.894  13.733   0.879 -0.1847  0.2520  0.1607
18189W        W35036   5.364   5.143  13.125  0.0019 -0.2101  0.1074
18190W        W35037  10.255  14.585  13.085  0.1139  0.2483  0.0517
18191W        W35038   3.748   4.481  13.874  0.2582 -0.2568 -0.2123
18192W        W35039   4.984  11.605  13.427  0.0354 -0.1236 -0.3516
18193W        W35040   7.379   6.401   1.388 -0.2946 -0.0628 -0.1925
18194W        W35041  18.339   3.907  15.716 -0.2003  0.0896  0.1034
18195W        W35042   1.616   1.790  16.286  0.1067 -0.3078  0.1900
18196W        W35043  12.404  12.607  15.034 -0.0899  0.0164  0.2453
18197W        W35044  18.034  15.206   3.979 -0.0715 -0.1403  0.1898
18198W        W35045  16.594   0.546   4.039  0.1177  0.0781 -0.1277
18199W        W35046   0.092   1.016  15.090  0.2243  0.0300  0.1015
18200W        W35047  13.217   8.983   1.608  0.2234 -0.1318  0.1234
18201W        W35048   9.561   9.238  15.756  0.0691 -0.2556  0.3233
18202W        W35049  13.036   4.330   4.403  0.0907 -0.0726 -0.3107
18203W        W35050  14.093   2.632  11.079  0.0147 -0.1096 -0.1007
18204W        W35051   8.361  12.347  15.296  0.0441 -0.3481 -0.0418
18205W        W35052  15.287  16.155  12.661  0.1722 -0.2505 -0.2556
18206W        W35053  10.768   4.696  16.102  0.0422  0.1255 -0.0301
18207W        W35054   0.692   0.111  13.819  0.1248  0.0106  0.0357
18208W        W35055   3.954  16.834  15.439  0.0817  0.0787 -0.3049
18209W        W35056  11.976   3.507  12.040  0.1260  0.0793  0.1182
18210W        W35057  10.139   6.280   3.534  0.0748  0.4903  0.0523
18211W        W35058   4.737   7.063   3.461  0.0203 -0.0520  0.0403
18212W        W35059   5.517  18.322   1.156  0.0551 -0.2734  0.2765
18213W        W35060   0.101   9.229  11.437 -0.0719 -0.4101 -0.0576
18214W        W35061  18.042   9.484   1.987  0.0836 -0.1804 -0.0913
18215W        W35062   9.486   9.397   1.163  0.2367 -0.2977  0.0867
18216W        W35063   1.951   4.461   4.312 -0.2928  0.1938  0.1369
18217W        W35064   6.327   9.876  11.959  0.0437 -0.1001  0.0822
18218W        W35065   6.615  15.142   3.304  0.5745  0.0106  0.1274
18219W        W35066  16.266   6.110   4.216  0.1981 -0.1196 -0.2240
18220W        W35067   3.570   6.269   3.020  0.0260 -0.2935  0.1317
18221W        W35068  15.701   1.986  14.093  0.0583 -0.0157  0.0890
18222W        W35069   8.294   4.036   5.759  0.1447  0.1100  0.1851
18223W        W35070   6.158   5.314   4.353  0.0125 -0.2130  0.2795
18224W        W35071  16.038  13.102  14.950  0.3790 -0.1059  0.0417
18225W        W35072  17.360   2.776   3.282  0.1200  0.2049 -0.1512
18226W        W35073   9.201   7.120  13.081  0.0378  0.2355 -0.0788
18227W        W35074  16.010   4.457   0.822  0.0081  0.2589  0.1712
18228W        W35075  17.641   9.203  10.174 -0.1227  0.2452 -0.0282
18229W        W35076  17.258   7.262  13.288  0.4419 -0.0451 -0.2375
18230W        W35077  18.230  18.191  16.311 -0.3379 -0.1369  0.2312
18231W        W35078  10.606   0.326   4.202 -0.0903 -0.1896  0.2043
18232W        W35079  15.454  15.247   0.266 -0.0881 -0.0941  0.2150
18233W        W35080  11.105   7.877   0.874 -0.1761  0.0539  0.3263
18234W        W35081   2.301   9.926   2.800 -0.0865 -0.0194 -0.2280
18235W        W35082   6.184  14.989  14.761  0.1992  0.2127  0.0841
18236W        W35083   8.636  10.968   2.276  0.1285 -0.0186  0.2046
18237W        W35084   5.205   7.230  12.139  0.3798  0.3527 -0.0162
18238W        W35085   9.197   9.562   1.550 -0.2313 -0.0076 -0.1516
18239W        W35086  13.543  14.698   4.713  0.0498 -0.0598  0.0099
18240W        W35087  15.902   4.675  16.207  0.1199  0.1252  0.1254
18241W        W35088  12.541   6.898  11.404 -0.0980  0.0337  0.0445
18242W        W35089   0.374   0.538   1.377 -0.0330 -0.0652 -0.1419
18243W        W35090   5.901   5.635  13.411 -0.1123  0.0014 -0.2926
18244W        W35091   9.884   1.197  11.911 -0.0944 -0.2014  0.0985
18245W        W35092  14.935   2.490  13.832  0.1461  0.1974 -0.0559
18246W        W35093  16.371  11.312  11.884  0.0323 -0.1001  0.1274
18247W        W35094   3.447  11.251  15.821  0.1038 -0.1325 -0.2664
18248W        W35095   8.983  11.754   1.646 -0.0676 -0.0870 -0.2267
18249W        W35096  14.174  12.100   0.206  0.2095  0.2115 -0.3129
18250W        W35097   4.244  15.779   1.746  0.0953 -0.1556 -0.0195
18251W        W35098   0.728   6.827  13.951 -0.1027 -0.2085 -0.1854
18252W        W35099  11.024   9.123  11.590 -0.2046 -0.1445 -0.1934
18253W        W35100   6.383  18.397  14.667 -0.0407 -0.0493 -0.0896
18254W        W35101  14.004  15.473  12.278  0.2502 -0.0300 -0.0071
18255W        W35102  15.723   1.526   1.821 -0.0142 -0.2231  0.0888
18256W        W35103  16.635   7.465  13.283 -0.0747  0.0839  0.0700
18257W        W35104  15.178   0.345  12.534 -0.0386 -0.0313  0.1106
18258W        W35105   9.946   0.947  11.457 -0.0246 -0.2762 -0.2491
18259W        W35106   7.081   8.348   4.181 -0.0523  0.0826 -0.1408
18260W        W35107   5.088   5.037  12.560 -0.3606  0.1771 -0.1120
18261W        W35108   4.470   6.705   4.320  0.1100 -0.1032  0.1531
18262W        W35109  13.602   4.250  12.515  0.1687 -0.0167  0.1624
18263W        W35110  14.538  13.232   0.906 -0.1421 -0.0212 -0.2170
18264W        W35111  13.259  17.100   2.084 -0.1225  0.1953  0.1349
18265W        W35112   3.155  12.453   2.283 -0.1326  0.2237 -0.0736
18266W        W35113   8.565  11.174  16.029  0.0833 -0.1714 -0.0016
18267W        W35114   6.801   8.816  15.207  0.0699  0.1567 -0.3286
18268W        W35115  16.220  12.301   5.808  0.0925  0.1285  0.1282
18269W        W35116   9.925  16.909   3.030  0.1111 -0.1258 -0.1500
18270W        W35117   1.529  15.158   2.726 -0.0031  0.0217  0.1193
18271W        W35118  10.171  15.601  14.518 -0.1652 -0.1558  0.1482
18272W        W35119   0.306   0.391  13.522 -0.3935 -0.0216  0.0268
18273W        W35120   9.919   9.868  14.043 -0.0857 -0.0655 -0.1544
18274W        W35121   4.784   1.801  13.840  0.3567  0.1131  0.2644
18275W        W35122   1.274   9.221  15.740 -0.1881 -0.2278 -0.2333
18276W        W35123   4.647  12.602   4.679  0.2556 -0.1715 -0.1032
18277W        W35124   8.586   2.846   0.084 -0.0417  0.1275 -0.0955
18278W        W35125   5.414   3.607   4.800  0.0805  0.3225  0.2343
18279W        W35126   2.431  10.394  11.288 -0.1090  0.3357 -0.0226
18280W        W35127  12.617  15.970  11.718  0.1967 -0.2222  0.0655
18281W        W35128   1.109  18.046  12.023  0.1394 -0.0051 -0.3604
18282W        W35129   1.014   7.864   4.057 -0.2337 -0.2309 -0.0604
18283W        W35130  13.333  11.454  11.580  0.2662  0.1915 -0.2007
18284W        W35131   0.578  16.896  12.770  0.0607 -0.2617  0.1730
18285W        W35132  15.841  13.635  15.848  0.1083  0.2324 -0.0920
18286W        W35133  14.773  12.768   4.168 -0.1258  0.0697 -0.1118
18287W        W35134   6.697   5.193  11.381  0.2182 -0.1417 -0.0403
18288W        W35135  13.098  13.615  12.224 -0.1624 -0.0588  0.2769
18289W        W35136  10.932  16.155   5.466 -0.0156  0.1149  0.0024
18290W        W35137  14.520   0.387   1.032 -0.2068 -0.1550 -0.0676
18291W        W35138   4.251   4.846  14.511  0.2125  0.0714 -0.0020
18292W        W35139   0.371  10.145  11.806 -0.3793 -0.1530  0.1539
18293W        W35140  17.550  13.964  11.604  0.0429 -0.0087 -0.0778
18294W        W35141  12.814  16.782   4.315  0.3104 -0.2446 -0.3801
18295W        W35142  10.009   8.393   0.969 -0.1475  0.1717  0.4139
18296W        W35143  13.838  14.176  12.694 -0.3174 -0.0494  0.1120
18297W        W35144  10.086   3.136   1.802  0.0885  0.1046  0.0755
18298W        W35145  11.417   9.319  12.510  0.1133 -0.0769 -0.5271
18299W        W35146  16.959   9.447   4.724 -0.0113  0.4156 -0.1784
18300W        W35147   2.104  11.002  14.752  0.2285  0.2153 -0.1932
18301W        W35148   4.402   4.002   0.916 -0.0223  0.3770  0.0223
18302W        W35149  15.626   8.008   1.691 -0.1497  0.0945 -0.3802
18303W        W35150   8.798   2.539  15.718 -0.1303  0.0030 -0.1896
18304W        W35151   5.914  10.848  13.812  0.1632  0.0897 -0.2174
18305W        W35152  17.682   6.118   4.205  0.1312 -0.0986  0.1711
18306W        W35153  13.697   8.594   0.806  0.1128  0.0115  0.0097
18307W        W35154  17.066   4.415  12.935 -0.0308 -0.0208 -0.1929
18308W        W35155   9.918   5.822   5.290  0.0247 -0.1363 -0.0428
18309W        W35156   2.786   4.567  12.183  0.2002 -0.1641 -0.1493
18310W        W35157  14.338   5.214   4.830 -0.1144  0.0367  0.0447
18311W        W35158   6.709  11.041  14.845  0.2608 -0.0690 -0.0704
18312W        W35159   8.648  16.525  12.853  0.0611  0.3665  0.3222
18313W        W35160  17.412   3.020   5.193 -0.0242  0.1139  0.1913
18314W        W35161   1.405  14.353   3.937 -0.2734  0.1132  0.2791
18315W        W35162   7.063   0.329  11.798 -0.2536  0.1921 -0.2157
18316W        W35163   0.346   0.259   5.265 -0.2130 -0.2062 -0.4113
18317W        W35164  10.030  10.949   0.407  0.2806  0.0685  0.1949
18318W        W35165  17.607  13.193  14.249  0.2634 -0.3100  0.1985
18319W        W35166   5.843  17.389  12.128  0.1870  0.1014 -0.3082
18320W        W35167  10.830   3.876  13.079 -0.1625 -0.0337  0.4361
18321W        W35168   8.327   8.321  11.591  0.4603 -0.0159 -0.2052
18322W        W35169  14.867  15.378   4.879 -0.0164  0.2409 -0.1203
18323W        W35170  13.339  14.250   1.246  0.1021  0.0542  0.0698
18324W        W35171   6.700  12.284   1.618 -0.1552  0.1487 -0.1345
18325W        W35172   3.444  16.063   3.745  0.0920 -0.2701 -0.1842
18326W        W35173  17.254   5.529  16.173 -0.0438 -0.4837 -0.1881
18327W        W35174   8.159   4.211   3.771  0.1130  0.0741  0.2260
18328W        W35175   8.628  18.308   4.640 -0.3198  0.0660 -0.2307
18329W        W35176   3.445  14.324   3.732  0.1059  0.1021  0.1161
18330W        W35177  15.505   2.033  13.518 -0.2204 -0.1913 -0.0382
18331W        W35178   6.994   5.217  13.115 -0.2076  0.0835  0.0446
18332W        W35179   2.309   2.450   0.866 -0.3530 -0.0664 -0.0618
18333W        W35180  17.048  17.234  11.763  0.5464  0.2002 -0.0637
18334W        W35181   4.088   4.355   0.536 -0.2182 -0.0684 -0.3665
18335W        W35182   7.328  15.766  14.256 -0.2054 -0.1413  0.0361
18336W        W35183  13.771  14.564  14.030 -0.2312  0.0971 -0.1323
18337W        W35184  17.072  15.043   1.768 -0.0979  0.2432  0.1924
18338W        W35185  16.207   9.322   4.622  0.0123  0.1533  0.1011
18339W        W35186  13.762  12.183   4.099  0.0491 -0.5923 -0.0602
18340W        W35187  11.306   0.535  15.287  0.0099 -0.1267 -0.4211
18341W        W35188   4.260   1.200  15.703  0.2128 -0.0625  0.2437
18342W        W35189   7.794  10.503  16.161 -0.0298 -0.0502  0.4198
18343W        W35190   9.475   9.281  15.121 -0.0174  0.0626 -0.1680
18344W        W35191   6.590  18.360  15.106  0.1361 -0.2471  0.0476
18345W        W35192   9.396   3.989   0.095 -0.0833  0.0888  0.1805
18346W        W35193   4.592  12.134  15.281  0.1607  0.2596 -0.0685
18347W        W35194  17.098  13.911   4.247 -0.1419  0.3005 -0.4393
18348W        W35195   0.705  17.177   5.635 -0.0078 -0.0625  0.3255
18349W        W35196   7.946  12.932   4.912 -0.0935  0.0291  0.0369
18350W        W35197   9.420   1.902  15.355 -0.0067 -0.0065 -0.1249
18351W        W35198   5.145   6.415   0.723 -0.1047 -0.0262 -0.2022
18352W        W35199   4.464  15.396   0.146 -0.1092 -0.0734  0.1373
18353W        W35200   5.358  18.060  10.697  0.0349  0.2005  0.1764
18354W        W35201  17.706   4.934  11.752  0.1864 -0.0491  0.3292
18355W        W35202   1.578   4.096   1.931  0.0365 -0.1144  0.0699
18356W        W35203  12.837   6.771   3.064 -0.2579 -0.2686  0.0736
18357W        W35204  13.065  12.887  14.020  0.0241 -0.2146  0.1117
18358W        W35205  18.020   5.366   0.422 -0.2181 -0.0929 -0.0913
18359W        W35206   0.510   6.279   2.598 -0.1969  0.1979 -0.2868
18360W        W35207   7.066   1.944   2.232 -0.0003 -0.0668  0.0162
18361W        W35208   4.155  14.412  15.628  0.0056  0.3471 -0.1818
18362W        W35209   9.899   8.047  11.476 -0.0412  0.0959 -0.1794
18363W        W35210  17.597  11.474   5.694 -0.1017 -0.3407  0.0986
18364W        W35211  12.881  10.372   4.687  0.1272  0.3328 -0.0142
18365W        W35212  12.195  18.015  11.931 -0.0678  0.0654 -0.1611
18366W        W35213  17.813   9.490  12.775 -0.3083  0.0933 -0.0767
18367W        W35214   0.963  17.547   2.162  0.1150 -0.0470  0.1553
18368W        W35215  16.290  14.740  16.178 -0.0280  0.1271  0.1637
18369W        W35216  15.890  18.028  13.439  0.1555  0.1406 -0.3982
18370W        W35217   4.460   7.367   5.115 -0.0524 -0.4013  0.0524
18371W        W35218   4.828   3.498   1.486  0.2228  0.1165 -0.0982
18372W        W35219  17.958  13.257   1.515  0.0292 -0.0714  0.0381
18373W        W35220  18.370   9.080  12.377  0.0349  0.1946 -0.1418
18374W        W35221   7.777   8.672   0.431 -0.1432 -0.1307  0.1902
18375W        W35222  14.121   4.889   4.045 -0.1059  0.1186  0.0143
18376W        W35223  13.111   3.506   0.101 -0.1567  0.1776 -0.1081
18377W        W35224  17.801  10.853   1.252 -0.1212 -0.0887 -0.0089
18378W        W35225   5.327   2.827  13.312  0.2129 -0.4523 -0.1142
18379W        W35226   1.892  12.876   1.720  0.2681  0.2014 -0.0862
18380W        W35227   1.512  11.662   2.326 -0.0490  0.0036  0.3214
18381W        W35228   2.613  13.153   5.147 -0.2344 -0.1640  0.0754
18382W        W35229  13.093   4.011  10.699  0.0618  0.0046  0.0209
18383W        W35230  15.302  15.446   1.818  0.0578  0.0367 -0.2726
18384W        W35231  14.192   2.669   0.503 -0.3735 -0.1063  0.0525
18385W        W35232   4.572  10.011   1.614 -0.1901  0.2480  0.2897
18386W        W35233   1.631  10.193   3.380  0.2113  0.0349 -0.2061
18387W        W35234   4.673  15.289   6.136  0.1551 -0.2286  0.0527
18388W        W35235  17.636   4.746  12.469  0.0495 -0.1763 -0.0595
18389W        W35236   1.872  15.889   4.158 -0.0251  0.0820 -0.3834
18390W        W35237  14.898   7.643  10.465 -0.1837 -0.2339  0.1952
18391W        W35238  16.459   6.428   2.410 -0.0501 -0.0761  0.0278
18392W        W35239  18.190  12.431   4.290 -0.0210 -0.1844 -0.2295
18393W        W35240   7.949   6.753  16.204 -0.1328 -0.0149  0.0718
18394W        W35241   4.902   9.051  14.804 -0.3322 -0.0912  0.0073
18395W        W35242   5.753  12.726  11.946  0.0642  0.2563 -0.1830
18396W        W35243   5.137  10.128  13.761  0.2601  0.1544  0.0729
18397W        W35244  15.784   6.908   4.620 -0.3303  0.1775 -0.0611
18398W        W35245  10.042   9.398  16.109  0.1782 -0.0315 -0.2164
18399W        W35246  16.512  17.691  15.687 -0.0860 -0.0879 -0.0609
18400W        W35247  18.128   4.103   0.309  0.0858 -0.1375 -0.2433
18401W        W35248   4.212   2.750  12.033 -0.0185 -0.5790 -0.3873
18402W        W35249  12.674  16.866   1.490 -0.1677  0.4760  0.2459
18403W        W35250  17.832   1.775  15.865 -0.0483  0.0530 -0.1756
18404W        W35251   1.200   7.874  14.658  0.0885 -0.0242  0.0666
18405W        W35252  14.728   4.933   5.012 -0.0269 -0.0744 -0.0927
18406W        W35253   2.308   5.157   4.657  0.0348 -0.1182 -0.1150
18407W        W35254   0.082   2.030   0.272  0.1032  0.2185 -0.1494
18408W        W35255  17.491   3.904   1.978 -0.1398 -0.0262  0.2284
18409W        W35256   3.445   7.349  11.181  0.0526 -0.1891 -0.0715
18410W        W35257   4.757   8.839   4.745 -0.0980 -0.1175  0.0195
18411W        W35258   3.343   0.670   5.046 -0.0326  0.1663  0.2265
18412W        W35259   8.140   4.255   0.094 -0.0816  0.0627  0.1175
18413W        W35260  14.836  13.230   6.435 -0.2098 -0.1119 -0.1758
18414W        W35261   7.900  13.884  12.258  0.0871  0.2745 -0.0052
18415W        W35262  18.019  12.606  13.183 -0.0673  0.4416 -0.1656
18416W        W35263   0.145   6.651   1.160  0.1181 -0.3468  0.2321
18417W        W35264  13.988  14.141   0.732 -0.2611 -0.1022  0.0380
18418W        W35265   6.941   4.228  12.402  0.0050  0.1253 -0.0659
18419W        W35266  15.232   3.774   0.823  0.3497  0.2102 -0.1468
18420W        W35267   2.702   9.124  12.811 -0.0846  0.0617 -0.1657
18421W        W35268   1.094   7.398   3.815  0.1843 -0.1263 -0.4175
18422W        W35269   0.599   3.058  11.210 -0.1285  0.2271  0.0992
18423W        W35270   0.135  11.742   4.950 -0.1921  0.2468  0.2133
18424W        W35271   2.665  16.691   1.542  0.1866  0.1073  0.0674
18425W        W35272  15.670   2.109   1.415 -0.1781  0.0507  0.0568
18426W        W35273   0.759  17.554   4.443  0.1164  0.1852  0.0533
18427W        W35274  12.532   8.785   2.322  0.1371  0.0915 -0.0379
18428W        W35275  15.375   1.673   1.484 -0.3795 -0.1499 -0.0012
18429W        W35276   8.831   3.991  12.213 -0.1420  0.0803 -0.0970
18430W        W35277  17.346   7.078   0.113 -0.2041 -0.0158  0.1266
18431W        W35278  18.252   0.940  11.451  0.2751  0.1339 -0.1546
18432W        W35279  15.407  16.647  11.322 -0.3071 -0.2581 -0.2252
18433W        W35280  17.865   3.969  14.211  0.3012  0.0163 -0.1246
18434W        W35281  15.136  14.845   3.113  0.1279  0.1261  0.0186
18435W        W35282   2.046  12.452  13.891 -0.1202  0.5147 -0.2263
18436W        W35283  12.491  10.811  14.107  0.1495 -0.0286 -0.1588
18437W        W35284   0.721  14.471  11.680 -0.1881  0.3167  0.2086
18438W        W35285  10.655  13.637  15.030  0.2768  0.0256 -0.2136
18439W        W35286   2.164   5.384   4.225 -0.0459  0.2385 -0.1866
18440W        W35287   4.942   6.999  11.165 -0.1825 -0.0204 -0.4583
18441W        W35288  18.400  17.222  15.325 -0.0097  0.0822 -0.2287
18442W        W35289  11.967  18.304  15.801 -0.2147 -0.1453 -0.1376
18443W        W35290   8.315   2.866   1.912  0.2255 -0.3324 -0.0530
18444W        W35291   6.450  17.441  13.526 -0.1774  0.1448 -0.1556
18445W        W35292  12.455  17.914   1.546 -0.2401 -0.3351 -0.0091
18446W        W35293   3.209  12.922   0.216  0.1546 -0.1694  0.2516
18447W        W35294  10.437   0.307   3.356  0.2765  0.1170 -0.1556
18448W        W35295   1.304   9.100   4.853  0.1763  0.2289 -0.0941
18449W        W35296   5.970  14.481  11.307 -0.2597 -0.1314  0.0429
18450W        W35297   2.666  12.333  14.709  0.0193  0.2441  0.0943
18451W        W35298   0.624   4.465  11.741 -0.0330  0.0853  0.0412
18452W        W35299   9.690  11.314   0.197 -0.0520  0.3499  0.2290
18453W        W35300   5.845  14.412   4.025  0.0099  0.0266 -0.3114
18454W        W35301   6.305   1.973  16.174 -0.1514  0.0876  0.1519
18455W        W35302  16.580  12.388  13.514 -0.0762  0.1609  0.2218
18456W        W35303   9.525   3.527   0.248  0.0045  0.1806 -0.0981
18457W        W35304   1.845   5.022  10.497 -0.0738 -0.0646  0.2949
18458W        W35305  15.387   7.278   3.869 -0.3782  0.1209  0.1068
18459W        W35306  15.087   7.088   2.497  0.0960 -0.2307 -0.0705
18460W        W35307  13.405   4.303   1.709  0.0998  0.1958  0.2448
18461W        W35308   0.059   2.318   1.390 -0.0736 -0.1949 -0.0312
18462W        W35309   4.312   4.176  15.485 -0.1523  0.3121  0.0516
18463W        W35310  18.114   0.081  10.888 -0.0623  0.2362 -0.1810
18464W        W35311   4.135   0.935  10.741  0.0715  0.0118 -0.3533
18465W        W35312  15.640   6.112   2.418 -0.1905  0.0288  0.4811
18466W        W35313  12.783   9.315  12.164 -0.2680  0.0701  0.2877
18467W        W35314   5.188  17.949   5.852 -0.2905 -0.3613  0.1459
18468W        W35315   2.414  11.250  11.545  0.0175 -0.1239 -0.4406
18469W        W35316   6.964  17.281   3.916 -0.2653  0.0183  0.2369
18470W        W35317   0.265   8.951  15.668 -0.3340  0.2929 -0.0489
18471W        W35318   8.177  15.424  16.086  0.3059  0.1790  0.1942
18472W        W35319  13.869   7.993  13.489  0.3527 -0.3418 -0.0955
18473W        W35320   9.293   2.860  15.820 -0.2706 -0.0188  0.3369
18474W        W35321   6.261  18.155   1.273  0.1736  0.0950 -0.4875
18475W        W35322  17.472   1.428   5.368  0.1783 -0.4509 -0.3939
18476W        W35323   3.893  17.299   2.537 -0.1158 -0.1667 -0.0380
18477W        W35324  18.046   5.543   3.088  0.1561 -0.0024  0.3078
18478W        W35325   1.510   1.436   1.961 -0.0093  0.0635  0.0174
18479W        W35326  10.892   9.054   4.212  0.0369  0.0319  0.3644
18480W        W35327   3.985   5.870  15.967  0.1694  0.4322  0.0521
18481W        W35328  11.035   0.369  12.041 -0.0886 -0.3538 -0.2124
18482W        W35329   2.875  17.063  12.939 -0.1963 -0.1643 -0.0118
18483W        W35330   7.127  11.299  12.357 -0.2363 -0.0799  0.2689
18484W        W35331  12.759   7.166   4.263 -0.3262 -0.0364  0.1986
18485W        W35332  12.305   0.997  12.178 -0.2860  0.0926 -0.2673
18486W        W35333   6.957   2.038   0.341 -0.1159 -0.0598 -0.1239
18487W        W35334  12.589   5.294  15.046  0.1311 -0.5272  0.2086
18488W        W35335   9.850  17.699   1.577 -0.0337 -0.0142  0.1046
18489W        W35336   3.028  16.934   1.358  0.2092 -0.2318  0.3319
18490W        W35337  14.853   3.342  15.111  0.1269 -0.3443  0.1340
18491W        W35338  13.235   6.525  11.420  0.4375 -0.2585 -0.1898
18492W        W35339   7.097  10.171  13.118  0.3131  0.0579 -0.1020
18493W        W35340   7.431  10.585  13.172  0.0371 -0.2515 -0.1843
18494W        W35341   3.621  18.269  14.797 -0.1026  0.1867  0.0686
18495W        W35342   4.379  17.826  12.936 -0.0115  0.3140  0.1011
18496W        W35343  12.427  10.043   2.400  0.1362  0.0267 -0.1037
18497W        W35344   5.463   7.253  15.111  0.2062  0.1210  0.1351
18498W        W35345   9.141  11.014   4.027 -0.1245 -0.0601 -0.2332
18499W        W35346  11.580   2.273   3.474 -0.2419  0.0915 -0.5738
18500W        W35347  17.611   1.247   0.357  0.2162  0.1277 -0.0600
18501W        W35348   1.080  18.221  12.888  0.0932  0.3073 -0.3744
18502W        W35349  13.378  10.807  14.071 -0.1764  0.1479 -0.1052
18503W        W35350  14.277   5.651   2.288 -0.1364 -0.0209 -0.4676
18504W        W35351  12.247  10.801  15.267 -0.1133 -0.0984 -0.0736
18505W        W35352   2.476   6.832   4.197  0.0007  0.1621  0.4713
18506W        W35353   6.539   6.145   4.128 -0.0017  0.2291  0.0849
18507W        W35354   8.317  15.202   3.464 -0.5266  0.1631 -0.4905
18508W        W35355  14.662   4.735   1.528 -0.0233  0.1678  0.1255
18509W        W35356   6.389   2.260   2.310  0.0492 -0.2414  0.0501
18510W        W35357  15.194  12.899   2.560  0.0316  0.2688 -0.1501
18511W        W35358   2.899  10.580   0.641 -0.2129  0.0593  0.0428
18512W        W35359  12.260   9.022   4.759 -0.1287  0.2720  0.0322
18513W        W35360   0.582   4.941  15.903  0.1625  0.0197 -0.1141
18514W        W35361   0.578   0.723   0.843  0.2207  0.0381 -0.0068
18515W        W35362   9.595   7.673  16.275  0.1386  0.0730 -0.2226
18516W        W35363  12.909  18.387   1.147 -0.0450  0.1421 -0.1396
18517W        W35364   7.305   0.322   4.001 -0.1053 -0.2818 -0.0374
18518W        W35365   9.020   7.013  15.464  0.5120 -0.0708 -0.1738
18519W        W35366   1.770   8.679   5.043 -0.1519  0.2571 -0.1751
18520W        W35367   2.184   0.797   0.426 -0.1413 -0.1224  0.0213
18521W        W35368  15.913  12.439   4.668  0.0389 -0.2127 -0.1379
18522W        W35369  14.106   1.267   4.376 -0.1498  0.0642  0.0424
18523W        W35370   2.483  11.870  12.251  0.0335 -0.1972 -0.1281
18524W        W35371  17.314   3.550  13.906  0.0117 -0.0850  0.0946
18525W        W35372  15.425  16.902   0.878 -0.3152  0.1062 -0.2998
18526W        W35373   8.616  10.389   4.917  0.1146 -0.0309 -0.1827
18527W        W35374  17.346  17.213  12.661  0.2993  0.0769 -0.2496
18528W        W35375  15.004   4.631  14.479  0.0406  0.0954  0.0062
18529W        W35376  13.775  12.352  14.969 -0.0614  0.0294 -0.0116
18530W        W35377  11.495   9.569  13.287 -0.3583 -0.2135 -0.0289
18531W        W35378  10.670   4.289   4.951 -0.0146 -0.3324 -0.1406
18532W        W35379  16.774   9.613   2.266 -0.1724  0.0445 -0.2244
18533W        W35380  16.673  18.419   5.899 -0.0449  0.0202 -0.3351
18534W        W35381  18.094  11.469   2.016  0.0431 -0.0969  0.1198
18535W        W35382  17.721  13.287   2.796 -0.0465  0.2487  0.1515
18536W        W35383   2.891  11.955   2.963 -0.0233  0.2815 -0.0663
18537W        W35384   0.045  10.873   3.726  0.0769  0.2436 -0.3240
18538W        W35385   3.063   3.104   0.142 -0.0437 -0.0709  0.1051
18539W        W35386   1.192  16.347   3.693  0.0851 -0.3306  0.1925
18540W        W35387  12.947   6.995   2.140 -0.1999  0.0907 -0.2898
18541W        W35388  17.579   4.827   2.936  0.0127  0.1588  0.0869
18542W        W35389   8.701   6.616   2.858  0.1040 -0.0549 -0.0743
18543W        W35390   0.134   0.805   2.999  0.1701 -0.2343  0.0305
18544W        W35391  13.904   0.590   2.069 -0.1465 -0.2782  0.1112
18545W        W35392   8.067  18.369  15.417  0.2240  0.0156 -0.6245
18546W        W35393  12.137  13.238  14.151 -0.0461  0.1212 -0.1400
18547W        W35394  14.990  13.436  13.239 -0.0577  0.1501  0.0632
18548W        W35395   8.994  16.326   3.998  0.0415 -0.0310  0.3745
18549W        W35396  17.369   2.551  12.809  0.0266 -0.2522 -0.0801
18550W        W35397   4.629  18.386   5.276  0.2658  0.3989 -0.1878
18551W        W35398   2.356   8.196   4.211  0.0243 -0.1677 -0.0158
18552W        W35399  12.173  13.988   5.738 -0.3594  0.2832  0.0240
18553W        W35400   1.668   8.077   1.815 -0.0066  0.1117  0.3276
18554W        W35401   7.908  11.188   0.529 -0.1287  0.0839 -0.0754
18555W        W35402   8.827  17.569  11.923 -0.2174 -0.0255  0.2029
18556W        W35403   0.954   4.968  13.920  0.1563  0.3773 -0.2060
18557W        W35404   9.158  17.193  15.419  0.1591  0.1431 -0.2486
18558W        W35405   5.270  16.471  14.110  0.0205  0.1123  0.2399
18559W        W35406   8.534  12.915  15.146  0.1529  0.0263 -0.0312
18560W        W35407   8.398  13.489  14.989 -0.2079  0.2183  0.2169
18561W        W35408   5.349  11.720   0.757 -0.0394 -0.0542 -0.3474
18562W        W35409  12.946   3.208   1.239  0.1232  0.1277 -0.0645
18563W        W35410  18.306  16.166  12.642  0.1187 -0.1957 -0.1253
18564W        W35411   0.978   2.330   4.470  0.2381 -0.0840  0.0392
18565W        W35412  15.471  12.439   2.740 -0.0396  0.0157  0.0666
18566W        W35413  16.979  10.596  14.447  0.0515 -0.0844  0.1439
18567W        W35414   0.931   2.601  15.956  0.0066  0.1987  0.0614
18568W        W35415  12.119   8.389  15.810 -0.3341  0.3192  0.1630
18569W        W35416   8.195  17.813   3.435 -0.2755 -0.0490 -0.1063
18570W        W35417  12.508   7.183  12.217  0.0833 -0.0602  0.2612
18571W        W35418  15.531   2.469   0.279  0.1204 -0.0808  0.2000
18572W        W35419   7.471   5.467  12.636 -0.1544 -0.3391  0.2900
18573W        W35420   0.817  17.947  12.437 -0.2320 -0.1695 -0.0392
18574W        W35421  14.632  16.062  15.973 -0.0841  0.0390  0.1795
18575W        W35422  10.255  14.053   0.302 -0.0634 -0.0760 -0.1571
18576W        W35423   1.233   7.444  13.406 -0.1253 -0.0154 -0.2628
18577W        W35424   5.891  18.165  11.461  0.1166  0.0115  0.2013
18578W        W35425   1.241  16.266  14.021  0.3782 -0.5504  0.1762
18579W        W35426  12.273   5.312  16.133 -0.1346  0.1130  0.1773
18580W        W35427  11.259  17.775  13.813  0.5552 -0.2243  0.0770
18581W        W35428   7.318  15.924   4.484 -0.0640  0.3174  0.2619
18582W        W35429  16.836   2.576   2.401 -0.2164  0.0715  0.0713
18583W        W35430  12.144   0.649   2.302 -0.1894  0.0840  0.1524
18584W        W35431   0.505   3.495  14.990  0.1034 -0.0700 -0.0205
18585W        W35432  14.672  17.181   5.301  0.2295 -0.0217  0.0465
18586W        W35433   1.772   7.752   0.506  0.1033 -0.0345 -0.0274
18587W        W35434  16.155  15.453   4.555 -0.0658  0.3131  0.1524
18588W        W35435  10.072   7.830   2.121  0.0697  0.2295 -0.0770
18589W        W35436   1.445   9.571  16.078  0.2111 -0.0630 -0.0083
18590W        W35437   7.477  12.334   3.332 -0.4855 -0.1430 -0.1627
18591W        W35438   9.225  14.216   2.317  0.1243  0.1831  0.1607
18592W        W35439   4.585   9.006   0.865  0.2738 -0.0568 -0.1099
18593W        W35440   9.651  18.095   0.794  0.2509 -0.1217 -0.1786
18594W        W35441  17.502   6.483   5.119  0.1078  0.0966 -0.0591
18595W        W35442   8.832   6.475  16.177  0.0185  0.0973  0.1335
18596W        W35443   5.334   9.892   4.940  0.3349  0.0269  0.1603
18597W        W35444   8.739   9.165  13.621 -0.0386  0.0261  0.3002
18598W        W35445  14.832   4.026  15.867 -0.0236 -0.1355  0.1475
18599W        W35446  11.929   3.086   0.818 -0.1141 -0.0132  0.2011
18600W        W35447   4.115  16.273   5.298 -0.3883  0.2600  0.2541
18601W        W35448   6.413  14.315   1.438  0.0426  0.0765 -0.0070
18602W        W35449   3.849   3.209  16.169  0.1140  0.2688  0.0414
18603W        W35450   7.339   8.652   2.397  0.0949  0.0933 -0.2271
18604W        W35451  11.549   5.668  10.862 -0.0472  0.0494 -0.0553
18605W        W35452  10.354   4.066  13.384  0.5375 -0.2765  0.1086
18606W        W35453  17.474  16.013   2.069  0.1106  0.1137  0.1039
18607W        W35454   7.341   6.898   3.544  0.1297 -0.2592 -0.2276
18608W        W35455  16.901   5.698  11.922  0.1430 -0.1620 -0.1683
18609W        W35456   1.021  14.430   2.623 -0.0885  0.0958  0.2741
18610W        W35457  15.373  13.646  12.029  0.0410 -0.3333  0.0409
18611W        W35458   1.301   7.440   1.293 -0.0599 -0.1195  0.0162
18612W        W35459  17.039   1.012   2.054 -0.3403  0.3065  0.0049
18613W        W35460   7.287  13.766  14.035 -0.0786 -0.0308 -0.1230
18614W        W35461  11.197  10.859  13.270  0.2313 -0.2268  0.0145
18615W        W35462  17.591   7.247   2.150 -0.0469  0.1684  0.3084
18616W        W35463   6.289   8.997  14.434  0.0058 -0.0699 -0.3096
18617W        W35464   4.939   7.868  14.151 -0.1165  0.2655 -0.0698
18618W        W35465  17.444  11.924   2.540 -0.0531  0.1088 -0.0371
18619W        W35466  12.614   5.840   4.342  0.1937 -0.0013  0.0267
18620W        W35467  11.073   5.642  11.664 -0.1570  0.1635 -0.0861
18621W        W35468   3.701  18.291  14.195  0.0687 -0.0946  0.1881
18622W        W35469   1.719   1.335   2.422 -0.2780  0.1951 -0.1346
18623W        W35470   7.251  16.820   6.170  0.0374  0.0349 -0.2639
18624W        W35471   0.251   7.274   3.466  0.1483 -0.0744  0.3060
18625W        W35472  11.434   2.936   2.830 -0.0589  0.0190  0.4164
18626W        W35473   5.983   7.484  15.366 -0.0265 -0.1648 -0.0862
18627W        W35474   4.262  10.954   0.033 -0.0114  0.2908 -0.2995
18628W        W35475  12.773   0.860  12.072  0.0464 -0.0635  0.0466
18629W        W35476   7.523   2.825   3.644  0.2943  0.2206  0.2308
18630W        W35477   5.677   0.438  11.975 -0.1244  0.1484  0.0845
18631W        W35478   4.917   2.981  13.030  0.0101 -0.1688  0.2650
18632W        W35479  16.089   1.349   4.012  0.2126 -0.3283 -0.0825
18633W        W35480   5.214   0.474  11.798 -0.0082  0.0594  0.1560
18634W        W35481   8.463   2.080   2.314  0.1754  0.0484  0.1241
18635W        W35482   0.719   5.289  13.601  0.2318 -0.0733 -0.0175
18636W        W35483  13.391   4.303  14.552 -0.0922 -0.0132  0.0584
18637W        W35484   1.606   8.648   3.730 -0.0968 -0.0010 -0.1986
18638W        W35485   5.659  10.015  13.562  0.3013  0.1708 -0.1188
18639W        W35486   2.014   3.968  13.615  0.2033 -0.2196  0.0149
18640W        W35487  16.875   0.198   3.361 -0.0781 -0.0282  0.0800
18641W        W35488   2.155  15.030   1.187 -0.1047  0.0201  0.0385
18642W        W35489  13.486  15.836  15.106  0.0651  0.2423  0.0705
18643W        W35490  14.653  17.101   0.975  0.0769  0.1386 -0.0312
18644W        W35491   0.312  14.164   5.042  0.1208  0.3026 -0.0177
18645W        W35492  15.173   3.400  13.692 -0.0635  0.0594 -0.0903
18646W        W35493  15.424   4.897  14.601  0.1126  0.3264  0.4415
18647W        W35494   6.885   9.713  14.824 -0.1592  0.0553 -0.3130
18648W        W35495  13.476   2.153   4.274 -0.2644  0.3210 -0.3473
18649W        W35496   0.361   6.055  13.465 -0.1281 -0.0916  0.1263
18650W        W35497  12.072  15.274   2.695 -0.1805  0.2243 -0.3123
18651W        W35498  12.165  17.085   3.349 -0.3348  0.1342 -0.6186
18652W        W35499  15.871   6.460   1.579 -0.0122  0.0478 -0.0198
18653W        W35500  17.263  14.694   3.069 -0.4755  0.0411 -0.0941
18654W        W35501  13.271   2.381   2.332  0.2199  0.1674 -0.0914
18655W        W35502  14.157  14.317   3.752 -0.1747 -0.1012 -0.0723
18656W        W35503   4.330   9.538   0.871 -0.2058 -0.1645 -0.3601
18657W        W35504   7.147  16.899  14.544 -0.0472  0.1447 -0.1104
18658W        W35505   4.265   4.686   4.750 -0.0487 -0.1181  0.0108
18659W        W35506   8.952  16.381  15.396 -0.2642  0.0996 -0.4267
18660W        W35507   4.252   0.281   4.712  0.1223  0.0185 -0.0419
18661W        W35508   3.814  10.441   4.781  0.1465 -0.3785  0.3137
18662W        W35509   8.308   3.943  15.537  0.0068 -0.1863 -0.0402
18663W        W35510  11.813  16.115  11.970 -0.1846 -0.5108  0.2214
18664W        W35511  14.755   0.091   3.740  0.0577 -0.1884  0.0127
18665W        W35512   7.496  16.175   4.976 -0.0620 -0.1369  0.3015
18666W        W35513  14.525   0.902  13.026 -0.0430  0.2748 -0.0124
18667W        W35514   0.924   9.888   1.051 -0.2631 -0.0276 -0.1360
18668W        W35515   9.491  15.569  13.502  0.0162  0.0120 -0.0585
18669W        W35516   7.721   4.686   4.187  0.0308  0.0036  0.1223
18670W        W35517   2.999   1.295  16.357  0.3447  0.1657 -0.0960
18671W        W35518  14.696   0.574   1.425 -0.1692 -0.2270  0.3806
18672W        W35519  17.570   8.801   0.902  0.0948 -0.0873  0.2515
18673W        W35520   7.528   4.411   1.116  0.2544 -0.3332 -0.2569
18674W        W35521   5.794   0.728   4.672 -0.0886 -0.1610  0.0583
18675W        W35522  18.333  17.055  15.809 -0.0360  0.3291  0.4331
18676W        W35523   7.664  15.095   3.910  0.1297  0.0610 -0.0397
18677W        W35524  15.419  18.355   4.966  0.2640  0.3208 -0.0696
18678W        W35525   9.371   5.203   0.916  0.2827  0.3658 -0.3141
18679W        W35526   5.846   6.190   1.283 -0.4354  0.0926  0.0516
18680W        W35527   5.062   1.975  11.754 -0.1765  0.0559  0.1215
18681W        W35528  14.521   7.595   4.951  0.0691  0.0834  0.1504
18682W        W35529   3.101  12.625  14.936  0.0207 -0.2452  0.2060
18683W        W35530  11.072   2.312   3.504 -0.1312  0.0657 -0.1306
18684W        W35531   6.440   7.286  14.094 -0.3147 -0.0910  0.3131
18685W        W35532   6.976  16.392  16.290  0.0441 -0.0011 -0.0614
18686W        W35533  11.503   4.208   3.922 -0.5258 -0.1305 -0.3195
18687W        W35534   7.423  11.892   2.043  0.0243  0.2818 -0.1398
18688W        W35535   8.933  13.443  13.555  0.2799 -0.0583  0.0677
18689W        W35536  10.606   4.413  11.972  0.1316 -0.1094  0.4400
18690W        W35537  12.012   3.751   5.715 -0.1998  0.1799  0.1005
18691W        W35538  10.536   2.321  12.291  0.1729 -0.4312 -0.1646
18692W        W35539  16.745  17.567  14.846 -0.0445 -0.0832 -0.1448
18693W        W35540   7.971   0.231   1.762  0.2764 -0.1046 -0.0313
18694W        W35541   2.014  15.902  14.610 -0.2017  0.2166  0.1605
18695W        W35542  15.437  12.543   5.506  0.0275  0.5084  0.2957
18696W        W35543   9.065   4.118   3.924 -0.2788  0.1823 -0.3301
18697W        W35544   2.604   3.397  15.271  0.1732  0.2861  0.2443
18698W        W35545   0.214   6.962   4.839 -0.1374 -0.2425  0.0902
18699W        W35546  11.573  17.626   5.617 -0.1096 -0.2503  0.1130
18700W        W35547  15.910  13.649  14.073  0.2040  0.0215 -0.2067
18701W        W35548   4.518   8.474   0.841 -0.2185 -0.1003  0.1411
18702W        W35549   4.635  18.022  13.795 -0.2615  0.1945 -0.1829
18703W        W35550  14.859   4.267  14.122 -0.2599 -0.0992  0.1505
18704W        W35551   2.642   5.175   4.276  0.1954  0.0856 -0.2311
18705W        W35552   8.284   0.454   1.124 -0.1713  0.1621  0.1215
18706W        W35553   9.714  13.379   1.568 -0.1750  0.1608  0.1840
18707W        W35554   5.515   2.057  11.503 -0.2439  0.1915  0.4719
18708W        W35555   8.142   8.471   1.712 -0.1152 -0.2574 -0.0604
18709W        W35556  14.372   1.984  14.379  0.1926 -0.0933 -0.1453
18710W        W35557   4.180   6.392   2.249 -0.1008 -0.1813 -0.1076
18711W        W35558  15.220  10.546   5.326  0.1647 -0.1250 -0.1909
18712W        W35559  14.223  10.959   3.255 -0.0020  0.0471  0.2827
18713W        W35560  10.550  17.049  13.758  0.1095 -0.1534 -0.2191
18714W        W35561  17.427  15.037   0.922  0.0487 -0.4101 -0.1463
18715W        W35562   0.936  13.398   1.300  0.2754 -0.2760 -0.0905
18716W        W35563   0.385   2.463   1.761 -0.0020 -0.3279  0.0396
18717W        W35564   0.489   6.209  11.165  0.1128 -0.0739 -0.0808
18718W        W35565   8.146  16.167   4.388 -0.1635  0.0511 -0.0493
18719W        W35566  12.358  14.530   1.555 -0.0534  0.0383  0.3555
18720W        W35567   0.844  15.951   0.794  0.1374  0.1791  0.2282
18721W        W35568   4.429   4.315   1.719  0.3081  0.2584  0.1090
18722W        W35569  11.590   9.561   1.214 -0.2296 -0.1256 -0.1141
18723W        W35570   7.684  16.191   1.551 -0.1205  0.1113 -0.1844
18724W        W35571  15.351  11.029  13.054 -0.2097 -0.1521  0.1024
18725W        W35572  17.383  13.324   4.024  0.1356 -0.1864  0.1716
18726W        W35573   7.286  17.723   3.811  0.2140 -0.0423  0.1725
18727W        W35574   5.543   4.177   3.115 -0.3271  0.1394  0.1161
18728W        W35575  17.780  10.970  11.305 -0.0248 -0.0528 -0.0459
18729W        W35576   9.334   4.741  15.089 -0.1363  0.0119 -0.1790
18730W        W35577   5.072  10.674   4.588 -0.1363 -0.4215 -0.3651
18731W        W35578  17.588   3.041   2.871 -0.1878 -0.1865 -0.1290
18732W        W35579  11.610  12.733  12.206  0.0950  0.1158  0.3054
18733W        W35580  18.127  15.186  11.655 -0.1962  0.2688 -0.1210
18734W        W35581   7.623   1.345  13.168  0.1189 -0.0224  0.0413
18735W        W35582   9.347  12.181  14.735  0.5237 -0.3828  0.3434
18736W        W35583  16.849  17.220   0.541  0.1850 -0.1656  0.1038
18737W        W35584   1.719  15.830   6.304 -0.1043 -0.0942  0.0715
18738W        W35585   3.807   1.402  15.258  0.0861 -0.3483  0.0839
18739W        W35586   6.088  13.536  14.007 -0.0160 -0.0747  0.4112
18740W        W35587   4.731   8.475   3.109  0.0261 -0.0881 -0.0979
18741W        W35588   6.230   4.740  13.402 -0.0450 -0.1174  0.1146
18742W        W35589   9.914  13.834  12.089  0.1356 -0.1131 -0.3809
18743W        W35590   3.720  10.336   2.113 -0.0384  0.2740  0.4395
18744W        W35591   2.478   8.337   3.256 -0.0157 -0.1823  0.4116
18745W        W35592  12.462   4.520   2.903 -0.1147  0.0735 -0.2996
18746W        W35593   2.050   0.738   2.223  0.1476 -0.1003 -0.2028
18747W        W35594   8.637   5.746   3.133  0.1075 -0.0359  0.0351
18748W        W35595   1.950   9.417  14.738  0.1622  0.0509  0.0316
18749W        W35596  16.864   3.955  12.247 -0.4067 -0.1357  0.0806
18750W        W35597   4.797   8.570   3.589  0.3151  0.3345 -0.0252
18751W        W35598   9.086  16.719   0.554  0.1759  0.1929  0.2140
18752W        W35599   2.823   6.749  11.331 -0.3444  0.1512 -0.3364
18753W        W35600   8.170  14.618   2.581 -0.1062 -0.0590  0.0367
18754W        W35601   9.210  11.649  15.639 -0.0492  0.1370 -0.1985
18755W        W35602  16.337   7.108   3.347 -0.1323 -0.0613 -0.0207
18756W        W35603   5.681  11.408  15.474  0.1650 -0.0773 -0.0466
18757W        W35604  10.970   8.314   1.049 -0.2035  0.1624 -0.0041
18758W        W35605   3.015   3.990  13.754  0.1725 -0.0017 -0.5632
18759W        W35606  12.478   5.947  13.608  0.2973 -0.1054 -0.2596
18760W        W35607   7.376  12.291   4.964  0.2080  0.3082 -0.0280
18761W        W35608  17.846  16.594   2.765 -0.1725 -0.0031  0.2596
18762W        W35609  11.269  17.139   0.344  0.0295 -0.1341  0.0553
18763W        W35610   3.118   6.799  13.326  0.0596 -0.0439 -0.2938
18764W        W35611  10.824   4.960   0.162  0.0844 -0.5052  0.0411
18765W        W35612  12.624   3.307   0.261  0.0365 -0.2977 -0.2457
18766W        W35613   0.816  11.329   5.639 -0.3139  0.0128  0.1145
18767W        W35614   9.517  12.307   0.441 -0.2651 -0.0182  0.0052
18768W        W35615   5.854   2.212   2.033 -0.1424 -0.1452  0.0461
18769W        W35616   6.803   6.935   2.148  0.1277  0.0053  0.1280
18770W        W35617   2.759  14.286   2.722  0.1959  0.0544 -0.3764
18771W        W35618   5.685   4.368  15.488 -0.1332 -0.3493  0.1120
18772W        W35619  17.741   4.582  16.033 -0.2564  0.1290  0.1255
18773W        W35620   1.379   5.168  12.217 -0.0296  0.2529 -0.1321
18774W        W35621   6.997  14.997   0.835 -0.2143 -0.1218  0.2981
18775W        W35622   9.722  13.611   1.116 -0.0403 -0.3727  0.1207
18776W        W35623   3.556  11.304   0.251  0.5292 -0.0116  0.0567
18777W        W35624  10.697   5.892   2.107  0.1480 -0.1636  0.2911
18778W        W35625   9.358   5.621  16.251  0.0801  0.0495  0.0250
18779W        W35626  16.652   9.102  13.253 -0.2497 -0.1474 -0.0638
18780W        W35627  13.303   0.345   5.876 -0.0544  0.2084  0.0339
18781W        W35628   6.133  14.892   6.496 -0.1024 -0.1855 -0.1475
18782W        W35629  12.697   3.495   3.494 -0.1571 -0.0056 -0.1476
18783W        W35630  15.262  11.579  15.172 -0.2285 -0.0018  0.0485
18784W        W35631   5.474  18.362  13.626  0.0451 -0.1327  0.2690
18785W        W35632   7.954   8.560  15.772  0.1413 -0.1539  0.0997
18786W        W35633  11.601   0.734  10.926  0.1914 -0.1632 -0.0421
18787W        W35634  15.779  17.483   5.197 -0.1280 -0.0540 -0.3267
18788W        W35635   8.127   8.048   2.246  0.0777 -0.0126  0.0178
18789W        W35636   3.027   4.926   3.977 -0.2580 -0.1842  0.2380
18790W        W35637  13.200   6.170   0.116 -0.1004 -0.3328 -0.0117
18791W        W35638   2.356   8.572  14.783 -0.0013  0.0149 -0.1626
18792W        W35639  11.257   7.047   1.343 -0.1502  0.0533 -0.1096
18793W        W35640  17.546  13.951   5.559  0.2734 -0.0757 -0.1387
18794W        W35641   4.914   7.800   4.699 -0.0591  0.0791 -0.2488
18795W        W35642  11.211  16.490   0.604 -0.0509 -0.0577  0.0017
18796W        W35643   9.700   9.510  12.262 -0.1522 -0.3532 -0.3039
18797W        W35644   2.037   7.767  11.533  0.3311 -0.0563 -0.4582
18798W        W35645  15.905  12.654   5.606  0.3168  0.0693 -0.1929
18799W        W35646  10.394  18.055   2.213 -0.1643 -0.0124  0.2088
18800W        W35647   9.443  17.631  14.410  0.0261 -0.1852  0.0830
18801W        W35648  15.521   9.275  11.283  0.1215 -0.0050 -0.2156
18802W        W35649   2.290  13.021  12.168  0.2129 -0.0009  0.1146
18803W        W35650  14.664   3.615  13.778  0.2716  0.0553  0.0439
18804W        W35651  11.339  13.187  16.043  0.2005  0.1150 -0.0600
18805W        W35652  13.477  17.246  13.281 -0.0323 -0.1441 -0.2965
18806W        W35653   9.586   0.722  14.154  0.0405 -0.2615 -0.1531
18807W        W35654  11.993  12.988  14.987  0.0903 -0.0080  0.0780
18808W        W35655  10.512   0.091  12.314 -0.0325 -0.1838  0.1427
18809W        W35656  18.356  11.343   3.981  0.1232 -0.2251  0.0723
18810W        W35657   1.768  12.168  11.809 -0.1925 -0.1030  0.5242
18811W        W35658   4.606  18.244   3.968  0.1634 -0.1229 -0.0112
18812W        W35659   3.737  12.179   5.553  0.1463 -0.0177 -0.1303
18813W        W35660  14.880   6.332   2.222  0.0267  0.0016 -0.4458
18814W        W35661  16.211  14.385  12.787 -0.3847  0.1526 -0.1206
18815W        W35662  11.391   6.681  11.205  0.0491 -0.0484 -0.0019
18816W        W35663   2.707  12.807  15.721 -0.1336 -0.4875 -0.0527
18817W        W35664  15.957  17.554   1.447  0.2472  0.2906  0.0643
18818W        W35665  12.896   4.270   2.794 -0.0362 -0.0474 -0.0659
18819W        W35666  14.718  17.592   3.712  0.2589 -0.1430  0.1702
18820W        W35667   9.417  11.588   0.643 -0.1370 -0.3226 -0.1601
18821W        W35668   6.807   8.642  13.016 -0.0396 -0.3013 -0.1151
18822W        W35669   8.813  17.730  12.403  0.0828 -0.0539 -0.1096
18823W        W35670   8.812   5.599   4.974  0.2561 -0.0128  0.4373
18824W        W35671  16.971   3.930  12.767 -0.2316 -0.0737  0.2472
18825W        W35672  18.315   2.127  12.338  0.3052  0.0439 -0.1880
18826W        W35673  16.791   4.454   3.638 -0.1957 -0.1963  0.1780
18827W        W35674   4.326  11.656  14.319  0.1878 -0.2764  0.0329
18828W        W35675   2.247  16.610   1.293 -0.0846  0.1101  0.2968
18829W        W35676   3.249  11.000   3.433  0.0964  0.0272  0.2156
18830W        W35677  10.396  15.952  13.671  0.1561  0.5304 -0.3051
18831W        W35678  15.230   0.745  11.395 -0.2692  0.2259  0.2776
18832W        W35679  12.951  17.558  15.630 -0.0507 -0.1243 -0.1462
18833W        W35680  10.540  16.518  13.601  0.1726  0.0871  0.1173
18834W        W35681  13.324  13.306   4.150  0.1356  0.0715 -0.1067
18835W        W35682   2.302   4.907   3.970 -0.0450 -0.3381 -0.2989
18836W        W35683   4.354  11.559  11.971  0.0479 -0.1884 -0.1497
18837W        W35684  13.198   2.993  14.880 -0.1693  0.1833 -0.1948
18838W        W35685   1.117   6.176  15.903  0.2279  0.1375 -0.3558
18839W        W35686   4.390   2.907   2.931 -0.0424 -0.0466  0.4201
18840W        W35687   0.476   4.948  11.271  0.1756 -0.0353  0.2668
18841W        W35688   7.145   3.015  15.186  0.1866 -0.0487 -0.1310
18842W        W35689  14.965   9.677   0.272 -0.0394 -0.4289  0.3570
18843W        W35690   9.952   5.375  12.898  0.0250 -0.0237 -0.0802
18844W        W35691  12.421   2.389   1.363 -0.0481 -0.1196 -0.1659
18845W        W35692   8.206  14.340  12.338  0.0400 -0.1720 -0.2808
18846W        W35693  11.783   4.741  15.327 -0.0027  0.0509 -0.0925
18847W        W35694  16.585  16.422   1.499 -0.0343 -0.3209  0.1369
18848W        W35695   7.762  14.446  12.640  0.0681  0.0403  0.1171
18849W        W35696  10.748   1.999   0.177 -0.1771  0.1021 -0.3098
18850W        W35697   1.662   0.587   5.071  0.0420 -0.0239  0.0899
18851W        W35698  15.665  15.243   3.895 -0.2672 -0.0649 -0.3765
18852W        W35699   9.422  17.107  11.395 -0.0510  0.0457  0.2770
18853W        W35700   6.027  17.219   5.598  0.2339  0.0705  0.3183
18854W        W35701   4.971  16.886   6.062  0.0718  0.2985  0.2319
18855W        W35702   5.522   6.835  12.615 -0.1593  0.3019  0.0175
18856W        W35703  16.721  11.348   4.619  0.1709  0.1342 -0.4384
18857W        W35704   9.850   5.786   4.758  0.2506 -0.0250  0.0225
18858W        W35705  12.533   8.368   1.133 -0.3469 -0.1363  0.0846
18859W        W35706  11.583  14.713   1.012  0.1133  0.0459  0.0274
18860W        W35707  17.207   8.482  16.146 -0.0008 -0.2155 -0.2384
18861W        W35708  17.563  15.196  11.851 -0.1199 -0.2526  0.0589
18862W        W35709  12.786  10.964   5.881 -0.1785 -0.2606  0.1784
18863W        W35710   2.264  14.920   0.053 -0.1821  0.3016  0.4121
18864W        W35711   4.975   9.512   5.053 -0.1033  0.0598  0.3557
18865W        W35712   5.205  10.275   0.034 -0.3908  0.1119  0.1207
18866W        W35713   2.582   4.543   3.373  0.0762 -0.2569 -0.1194
18867W        W35714   9.246   9.775   0.164  0.3729  0.0347 -0.0997
18868W        W35715   2.695   6.431  15.142  0.1817 -0.0551  0.2100
18869W        W35716   7.877   4.590  15.684  0.0379  0.1777  0.3889
18870W        W35717  11.695   3.620   3.526  0.0277  0.0766 -0.2808
18871W        W35718   8.207  14.791   0.216  0.1060  0.1051  0.0333
18872W        W35719  14.709  17.226  14.170 -0.2854  0.1018  0.1020
18873W        W35720   7.832   5.601  15.869 -0.0775 -0.3134  0.4238
18874W        W35721   4.946  16.804  15.539  0.0595 -0.3456  0.1123
18875W        W35722   5.995  14.582   1.672  0.0079 -0.2791  0.4247
18876W        W35723   1.237   1.960   3.332 -0.0249  0.2504 -0.0104
18877W        W35724  15.450   1.419  12.780 -0.2100  0.1954 -0.0699
18878W        W35725   8.350  17.487   3.745 -0.4115  0.4340 -0.0734
18879W        W35726   0.006   7.305  11.372  0.1138 -0.0707 -0.0757
18880W        W35727  10.757   5.778   3.637  0.1427  0.0033 -0.0579
18881W        W35728   1.329   0.113  12.155 -0.0844  0.1542  0.0467
18882W        W35729   6.404  10.507  13.235  0.5930 -0.0248 -0.3436
18883W        W35730  10.546  16.629  16.118 -0.1873 -0.3414  0.1794
18884W        W35731  12.520  16.682  16.011 -0.0759  0.2765  0.0905
18885W        W35732  16.794  10.124   2.575 -0.0523 -0.1347  0.2374
18886W        W35733   5.841  13.838   5.190  0.2024 -0.5567 -0.0393
18887W        W35734   0.077  10.157  13.684  0.1074 -0.1054 -0.1245
18888W        W35735  10.060   8.519  12.971  0.0668 -0.1868  0.2446
18889W        W35736   5.626  12.363  12.980  0.0033  0.1947 -0.0144
18890W        W35737   5.525   8.894  13.568 -0.0959 -0.1033  0.1081
18891W        W35738  14.973   3.666   3.720 -0.1848 -0.1472 -0.3943
18892W        W35739  14.778   2.802  12.788 -0.1086  0.0401  0.2056
18893W        W35740  10.517  14.626   1.119 -0.1736  0.2202 -0.0281
18894W        W35741   0.949  12.978  12.741 -0.0995 -0.1445  0.1551
18895W        W35742   1.211   5.381  13.334  0.3630  0.0308  0.0244
18896W        W35743  10.799  10.479  15.967 -0.2922 -0.0415 -0.3140
18897W        W35744   9.713   5.284   2.364 -0.0651 -0.0613  0.0342
18898W        W35745  10.867  12.701  14.415  0.0508 -0.0725  0.1073
18899W        W35746   0.065   9.586   3.622  0.3421  0.2630 -0.1200
18900W        W35747  12.810   3.803   3.081  0.2970 -0.2110 -0.1128
18901W        W35748  12.102  14.760  14.824  0.0150  0.2627 -0.0181
18902W        W35749   8.414   2.692  11.902 -0.3178  0.1267  0.0623
18903W        W35750   1.440  17.233   2.266 -0.1846  0.0051 -0.0622
18904W        W35751   3.279   4.106  11.717 -0.0457  0.0037 -0.0660
18905W        W35752   1.341  12.227   4.686  0.0296  0.1356  0.1394
18906W        W35753  14.316   6.426   0.531  0.3831  0.1944  0.0627
18907W        W35754   2.266  10.419   4.065  0.1846  0.4614  0.0626
18908W        W35755  18.076  10.694   3.128  0.3428  0.0898 -0.0573
18909W        W35756   5.899   7.109  11.042  0.2615 -0.0022 -0.1122
18910W        W35757  11.928  16.405   4.152  0.2283 -0.1900  0.0886
18911W        W35758   2.396   1.906   1.485  0.0755  0.3996  0.1463
18912W        W35759  12.114  18.413  13.025  0.1465 -0.0452  0.0450
18913W        W35760  15.628  13.671   2.332 -0.1564 -0.3630  0.3480
18914W        W35761   0.907  12.423  15.522 -0.1803 -0.0210 -0.0071
18915W        W35762  17.347   9.179  11.686  0.4972 -0.1382 -0.0216
18916W        W35763  12.128   4.443  13.573  0.4381 -0.1091  0.0237
18917W        W35764  18.067  15.755   3.953  0.2080 -0.1418 -0.2333
18918W        W35765   9.834  14.551  13.841  0.0507 -0.1698 -0.2341
18919W        W35766   9.829  10.559  15.021 -0.2123 -0.0532 -0.0129
18920W        W35767   2.926   1.117  14.764  0.0479 -0.2511  0.1308
18921W        W35768   5.860   2.481  13.226 -0.0531  0.1388 -0.1898
18922W        W35769   8.630   1.269   5.334 -0.0094  0.6305  0.1982
18923W        W35770  10.455   2.780   0.833 -0.1021  0.0083 -0.0423
18924W        W35771   1.879  12.780  12.962  0.1290 -0.0975 -0.0662
18925W        W35772  14.859   8.331   2.922  0.1537  0.2556  0.0586
18926W        W35773  11.360  14.791   0.213 -0.0866 -0.1668  0.0118
18927W        W35774  16.143   8.939  14.903  0.2681 -0.0862 -0.1085
18928W        W35775  15.570   0.107   1.650  0.1146  0.1208  0.1990
18929W        W35776   2.903   1.793  12.388  0.0195 -0.0798 -0.0303
18930W        W35777   6.059  11.670   1.498  0.2808  0.4571  0.3113
18931W        W35778   5.828   0.117  14.008  0.0756 -0.0480 -0.0253
18932W        W35779   9.424   9.677  15.421  0.1601 -0.0441 -0.1558
18933W        W35780   3.198   6.559   0.783  0.2232  0.0614 -0.1748
18934W        W35781   7.829   5.299   1.159  0.1386  0.2066 -0.1643
18935W        W35782   0.254   6.788  14.880  0.2326 -0.0420  0.1737
18936W        W35783  14.542   4.977   1.125  0.0077 -0.0612 -0.1476
18937W        W35784  13.451  13.598  12.604  0.2259 -0.0150 -0.4339
18938W        W35785   5.688   9.657   3.876 -0.0900 -0.1979  0.0579
18939W        W35786   4.733  10.811   4.975  0.0128 -0.0406 -0.4079
18940W        W35787   4.517  12.618  15.532  0.0800  0.0962  0.0468
18941W        W35788  16.647  13.290  12.598 -0.1153 -0.2530  0.2623
18942W        W35789  10.842   9.026   3.084 -0.0007 -0.0295 -0.3805
18943W        W35790   3.175  17.735   3.772 -0.2097  0.0730 -0.0091
18944W        W35791   8.827  13.792  15.173 -0.0876 -0.0090 -0.3845
18945W        W35792  11.667   5.587  12.655  0.0459 -0.2466 -0.1229
18946W        W35793   9.140   1.397  16.111  0.1776  0.1819  0.0562
18947W        W35794   6.239   2.825  11.829  0.0510 -0.2386 -0.1064
18948W        W35795  17.786   1.114  13.330  0.0618 -0.0459 -0.1469
18949W        W35796  10.218   6.741   2.928  0.1717  0.0543 -0.0158
18950W        W35797   5.461   5.027   3.664  0.1364 -0.0613  0.0786
18951W        W35798  18.136  12.249  15.213  0.1076  0.2100  0.0123
18952W        W35799   2.508  18.062   2.645  0.2747 -0.2724  0.1752
18953W        W35800   1.551  14.388   0.015 -0.3196 -0.1342  0.0571
18954W        W35801   5.219   9.932  15.497 -0.0276 -0.2649 -0.0271
18955W        W35802  15.766   4.284   1.203  0.1849  0.0839 -0.0968
18956W        W35803  11.459  11.786  14.855 -0.1804  0.0484 -0.2232
18957W        W35804  17.193  14.120   2.772 -0.0716 -0.0900 -0.1012
18958W        W35805   4.198   3.750  15.285 -0.0299  0.2906 -0.2602
18959W        W35806   6.065   8.935  13.921  0.0777 -0.0179  0.1459
18960W        W35807   4.476  16.715  14.342  0.0257  0.1782 -0.2451
18961W        W35808   9.004   0.968   3.248 -0.0306 -0.3298 -0.1227
18962W        W35809   6.690   6.900   5.752 -0.1498 -0.3996  0.0742
18963W        W35810   9.737   2.552   4.917 -0.0928  0.0982 -0.0165
18964W        W35811   7.474   3.682   4.872  0.2345 -0.0816 -0.1037
18965W        W35812  16.334   8.262  11.093 -0.0453  0.2779  0.1506
18966W        W35813   7.273   1.066  16.289 -0.0847  0.2857  0.0082
18967W        W35814   3.609  13.059  13.980  0.1040  0.2122 -0.2367
18968W        W35815   8.231   8.042  15.991 -0.1688 -0.0423  0.0322
18969W        W35816  12.304   2.068   4.085  0.0879 -0.0300  0.2027
18970W        W35817  16.065   3.929  15.053 -0.0786  0.1965 -0.0157
18971W        W35818  15.760   1.137   5.133  0.0447  0.1877  0.0049
18972W        W35819  10.362   3.585   0.905  0.1029  0.0608  0.1129
18973W        W35820  15.457  10.218  11.505  0.1581 -0.0544 -0.0647
18974W        W35821   5.499  16.180  14.519 -0.4837 -0.0324 -0.1521
18975W        W35822   1.127   7.970   1.552  0.4535 -0.2108 -0.0951
18976W        W35823  15.895   8.077   4.829  0.1629 -0.0132  0.3978
18977W        W35824  12.132   7.539   1.590  0.1178 -0.0019 -0.3759
18978W        W35825   8.009   8.977  16.143  0.0213  0.0426 -0.1439
18979W        W35826   3.303  15.081  15.438  0.2030  0.0190  0.1350
18980W        W35827   0.135  10.662  15.650  0.2707 -0.0390 -0.2709
18981W        W35828  13.183   0.283   4.327  0.1024 -0.0014  0.0682
18982W        W35829   9.276   6.363   0.180  0.2576  0.0443 -0.3978
18983W        W35830  15.514  17.605  15.877 -0.0702  0.2101 -0.0147
18984W        W35831  16.885  12.368   0.570 -0.2241 -0.2731 -0.1867
18985W        W35832  12.770   7.315  11.589 -0.0323  0.1408 -0.3029
18986W        W35833   9.870   3.650   3.928 -0.0913 -0.1132  0.1635
18987W        W35834  16.188   6.736  11.544  0.0256  0.1138  0.0861
18988W        W35835   3.137   8.927  13.032  0.1224  0.1193 -0.0401
18989W        W35836   6.224  11.120  12.043  0.0673 -0.0331  0.1988
18990W        W35837   9.445   8.649   0.005 -0.3336  0.0273  0.0873
18991W        W35838  13.033  15.769  15.001  0.0791 -0.2287 -0.1011
18992W        W35839   7.963   7.310  12.478  0.1122  0.3026 -0.0837
18993W        W35840   1.969   5.139   5.733  0.1766 -0.0638 -0.0425
18994W        W35841   4.050   1.689   2.623 -0.0647  0.0570  0.2234
18995W        W35842   3.754   4.067   4.290  0.3094 -0.1818  0.1133
18996W        W35843  11.198   0.697   0.349  0.2315 -0.4193  0.2198
18997W        W35844  13.870   4.700  12.668  0.1143  0.0990  0.0749
18998W        W35845  15.284   4.843   2.285 -0.0765 -0.4692  0.1314
18999W        W35846  12.830  14.188  13.132  0.0476 -0.1307  0.2469
19000W        W35847   1.255   7.498   2.392  0.2399  0.1547 -0.2700
19001W        W35848  18.029   0.315   0.950 -0.4407 -0.2406  0.0168
19002W        W35849   5.062   5.529   0.463  0.0111  0.1397 -0.1379
19003W        W35850   6.914  12.851  12.857  0.1805  0.0656  0.0204
19004W        W35851   8.850  14.735  13.254  0.3151  0.0539 -0.1319
19005W        W35852  14.747  11.282  14.440  0.3093  0.0068  0.0765
19006W        W35853   0.312   8.438  15.009 -0.5528  0.2363  0.1344
19007W        W35854   2.083   1.869  12.632  0.1241 -0.0050 -0.3466
19008W        W35855   6.871   6.612  13.056 -0.0134  0.4202 -0.0899
19009W        W35856   5.076  17.620  11.800 -0.0091 -0.0230  0.1071
19010W        W35857  16.467   4.901  15.515 -0.1048 -0.0288  0.2122
19011W        W35858  13.261  14.376  12.433  0.2073 -0.1245  0.0005
19012W        W35859   7.782   8.325  12.553 -0.1234  0.4409 -0.1797
19013W        W35860   3.874  16.651   0.137  0.3517  0.0539  0.0393
19014W        W35861   1.778  12.779   0.937 -0.1051 -0.1032 -0.1885
19015W        W35862   3.642   8.295   4.387 -0.2129  0.1563  0.1516
19016W        W35863  16.700   6.538   5.639 -0.1246  0.0031  0.1397
19017W        W35864  12.567   0.308  15.328  0.2293 -0.1835 -0.2982
19018W        W35865  12.098  16.041  14.362  0.0109 -0.0632 -0.1226
19019W        W35866  18.328   8.516   1.338 -0.0262 -0.2346  0.1730
19020W        W35867   1.457   8.318   1.031 -0.0402  0.0921  0.0858
19021W        W35868   9.598  12.808   1.769  0.2275  0.1324 -0.2315
19022W        W35869  18.160  14.921  15.396 -0.3056 -0.0260 -0.0141
19023W        W35870  10.501  16.508  11.706  0.0492 -0.1462  0.0529
19024W        W35871   7.720   3.239  13.488 -0.0888 -0.3513 -0.0799
19025W        W35872   4.944   7.680  15.546 -0.1671 -0.3713  0.3425
19026W        W35873   8.809  17.352   3.666  0.0590 -0.0624  0.3636
19027W        W35874   4.413  15.553   5.066  0.0311 -0.1278  0.0436
19028W        W35875  18.272   3.681   5.085  0.0691  0.0005  0.2511
19029W        W35876  13.006   5.803   5.257  0.1595  0.0028  0.0661
19030W        W35877   5.893   2.905  11.411 -0.4438  0.0704  0.1823
19031W        W35878   5.646  17.573   4.693  0.1385 -0.0120  0.0861
19032W        W35879  16.039  16.708  13.634 -0.0213 -0.1089  0.0717
19033W        W35880   1.651   2.429  11.894 -0.3626  0.1672 -0.1215
19034W        W35881   6.161  10.958  14.682  0.0330  0.0553  0.0524
19035W        W35882  12.199   3.354   2.185 -0.1796  0.2442 -0.2023
19036W        W35883  11.299   3.068  11.400 -0.1436  0.1492 -0.1037
19037W        W35884   3.341   7.273  13.065 -0.0424 -0.2385 -0.3648
19038W        W35885   4.441   3.586   2.432  0.1508  0.1518  0.0072
19039W        W35886   5.649   2.823  12.363 -0.1621 -0.3697 -0.1099
19040W        W35887   2.341   8.905  11.922 -0.0968 -0.0235  0.1109
19041W        W35888   1.561  13.564  13.368  0.1653  0.2494 -0.0848
19042W        W35889  13.865   4.124   4.347 -0.4982  0.2996 -0.0102
19043W        W35890  15.105  17.280  15.837 -0.0133  0.0796  0.1148
19044W        W35891  14.120  14.543  13.703 -0.4722 -0.0072 -0.0540
19045W        W35892  12.685  13.624   3.179 -0.3465  0.1900  0.0562
19046W        W35893  11.624   6.561  11.637  0.0457 -0.0906  0.1836
19047W        W35894   3.625   4.968  13.751 -0.2046  0.2583 -0.1123
19048W        W35895   6.549  13.220   1.402 -0.0136  0.0217  0.0554
19049W        W35896  10.513  17.661  12.756  0.2131 -0.0558  0.1665
19050W        W35897   6.293   4.471   2.004 -0.4183 -0.1171 -0.1440
19051W        W35898   5.036   7.029  13.188  0.0359  0.1777  0.2167
19052W        W35899   7.049   1.766  12.757  0.0359 -0.0247 -0.2683
19053W        W35900  14.837   8.186   0.105  0.2443 -0.1042  0.0524
19054W        W35901   2.897  16.689  13.961  0.2191 -0.1109 -0.1702
19055W        W35902   4.316  11.681   4.178 -0.1043  0.0111 -0.1849
19056W        W35903  13.300   3.527   1.537  0.4403  0.1559  0.0169
19057W        W35904  11.111  15.062  16.133 -0.0429 -0.0408  0.2885
19058W        W35905  17.532   4.359   0.665 -0.0827 -0.0418  0.2793
19059W        W35906   7.948   8.221  12.977  0.1532  0.1412 -0.2257
19060W        W35907   5.024   5.240  12.094 -0.1332  0.0816 -0.0708
19061W        W35908   8.297   7.241   3.781  0.4230  0.0919  0.2583
19062W        W35909  12.883   2.601  12.568 -0.0866 -0.1368 -0.0887
19063W        W35910   3.780  17.949   5.161 -0.0661  0.0917 -0.1842
19064W        W35911  15.646  13.312  14.472 -0.1257  0.1783 -0.1928
19065W        W35912   2.496   8.458  12.117  0.1074  0.1981 -0.1632
19066W        W35913   6.134  13.581   0.656  0.2123 -0.0409  0.0890
19067W        W35914  10.080   9.570  14.506  0.2841 -0.0838  0.2403
19068W        W35915  16.952   2.166  15.240 -0.1266 -0.1452 -0.0912
19069W        W35916  11.623   1.683   0.556  0.0558 -0.1826  0.2877
19070W        W35917   6.143   6.125  16.019  0.0418  0.1166 -0.1133
19071W        W35918  17.780  18.381  13.364  0.0215  0.2608 -0.1587
19072W        W35919  16.600   4.912  13.833 -0.2247 -0.0449 -0.0635
19073W        W35920  14.258  11.943   3.258  0.1951  0.2511 -0.1001
19074W        W35921   0.601  14.594  14.647  0.0107  0.3724  0.1420
19075W        W35922  17.605   2.451  11.072  0.2475 -0.1357 -0.1050
19076W        W35923   7.442   1.455  11.338 -0.0343 -0.1784  0.2734
19077W        W35924  11.932  12.762  13.173  0.2255 -0.1288  0.0212
19078W        W35925  18.358  11.609   2.979 -0.3256 -0.0924  0.0527
19079W        W35926  10.395  10.102   0.419 -0.3320 -0.1660  0.1257
19080W        W35927   2.108   0.442   3.351 -0.0622  0.3006  0.1730
19081W        W35928   7.314  17.524  13.112 -0.1332  0.0021  0.0261
19082W        W35929  10.344   1.416  13.991 -0.1324 -0.1319  0.0520
19083W        W35930   8.093  12.360   5.510 -0.0662 -0.0640  0.2000
19084W        W35931   0.886   5.045  12.117  0.0260 -0.0294 -0.2505
19085W        W35932   9.670   5.242   1.504 -0.1172 -0.1965 -0.0003
19086W        W35933   9.186   2.452  12.770 -0.2661 -0.0742 -0.0439
19087W        W35934   2.641   5.373   2.643  0.0252  0.0560  0.0047
19088W        W35935   3.605  16.696   2.862 -0.4406  0.3186 -0.1290
19089W        W35936  16.819   2.945  11.115 -0.1076  0.2942  0.2112
19090W        W35937   8.843  15.836   3.074 -0.0580  0.2732  0.0772
19091W        W35938  14.924   4.349  15.455  0.2933 -0.2060  0.2051
19092W        W35939   2.184   0.190  12.159  0.0267 -0.1455 -0.0417
19093W        W35940   3.416   4.115  12.719 -0.0598 -0.1362 -0.0350
19094W        W35941   2.585  14.831   3.466 -0.1904  0.0769  0.2664
19095W        W35942   7.573  17.234  12.765  0.0087 -0.4018 -0.1072
19096W        W35943   1.173  11.735   1.960  0.3436  0.0118  0.2448
19097W        W35944   3.942   8.718   3.610 -0.3088 -0.1323  0.0790
19098W        W35945  10.009   8.542  11.314 -0.2177  0.1612 -0.3151
19099W        W35946   9.425  11.391  11.487 -0.0549 -0.0334 -0.0385
19100W        W35947   2.009   8.693   4.169 -0.1400  0.0678 -0.1402
19101W        W35948  10.893   6.105  14.153  0.0969  0.2163  0.0382
19102W        W35949  16.178  15.203  15.924  0.3164 -0.0203  0.0030
19103W        W35950   7.220   3.015   0.923  0.1545  0.0417  0.0246
19104W        W35951  15.844  13.829   3.319  0.4158 -0.0825  0.1766
19105W        W35952   2.295   1.389  12.604  0.0304 -0.0323  0.0177
19106W        W35953  12.592  18.201   0.299 -0.1041 -0.1218 -0.2146
19107W        W35954  10.760   9.698   1.785  0.1096 -0.1261 -0.2883
19108W        W35955   4.681   2.826   2.077 -0.3812 -0.0363 -0.0960
19109W        W35956  16.301  17.034  13.317 -0.1260  0.3148 -0.3017
19110W        W35957   9.111  12.001  12.317  0.0760  0.0998  0.2260
19111W        W35958   5.107  16.286   6.285 -0.0325  0.1114  0.0793
19112W        W35959  10.327   2.546  13.778  0.0297  0.2715  0.0235
19113W        W35960   8.231   9.176   4.903  0.0681  0.0250  0.3437
19114W        W35961  16.234  14.118  12.384 -0.1151 -0.3270 -0.0163
19115W        W35962  16.547  14.329   4.099  0.1347  0.0442  0.0029
19116W        W35963   0.548  18.247  15.240  0.1479  0.0660  0.0431
19117W        W35964   6.477   1.852   0.261 -0.2050 -0.0552 -0.4394
19118W        W35965   9.137   6.001   0.955  0.0327  0.1781  0.0653
19119W        W35966  12.192   3.347   3.532  0.1156 -0.2846  0.0453
19120W        W35967   3.744   8.410   1.933 -0.2193  0.0897 -0.0537
19121W        W35968   6.463   8.450   2.910  0.1104  0.1378  0.1607
19122W        W35969   3.059   1.066  15.886  0.1738  0.1540 -0.5678
19123W        W35970   1.269   6.455  12.367  0.2064 -0.1037  0.2552
19124W        W35971  17.064   9.889   4.585  0.0682 -0.0944  0.1571
19125W        W35972   4.944  10.498   0.462  0.0959  0.1441 -0.0326
19126W        W35973   2.771   2.859  16.183  0.0817 -0.2530 -0.0909
19127W        W35974   4.136  12.738  16.293  0.0678 -0.0695 -0.2650
19128W        W35975  13.297  13.725   5.752  0.2848 -0.3833 -0.1040
19129W        W35976  16.015   3.074  16.117 -0.0166 -0.3563  0.0281
19130W        W35977  11.542   3.693   4.077  0.2141 -0.3256  0.5235
19131W        W35978   3.666  15.643   1.818 -0.4192  0.1262  0.0502
19132W        W35979  12.986  10.046   1.819 -0.1670 -0.1456  0.2198
19133W        W35980   4.011   9.811   2.543 -0.1374 -0.1144 -0.0417
19134W        W35981   3.482  11.446   3.332 -0.1291 -0.1702  0.0174
19135W        W35982   9.007   9.325   0.065  0.1051 -0.2966  0.2956
19136W        W35983   4.954   9.490   6.261 -0.1430  0.2006  0.0684
19137W        W35984  11.331   0.595   3.093 -0.0073  0.0799  0.1030
19138W        W35985   7.550   3.179   2.055 -0.2067 -0.0957 -0.1560
19139W        W35986  16.702   7.601  16.240  0.1354 -0.1194  0.2038
19140W        W35987  17.868   8.142   2.226  0.0006 -0.0254 -0.2067
19141W        W35988  11.345  15.402   4.287  0.1596 -0.2836  0.2648
19142W        W35989   6.307   2.246  11.864  0.1048 -0.2584 -0.0336
19143W        W35990   5.053  10.660   3.364  0.0356 -0.2018 -0.2238
19144W        W35991  10.117  12.922   3.978  0.1028 -0.1625  0.3589
19145W        W35992   6.463   2.389   1.484  0.3584  0.4031  0.1877
19146W        W35993   9.880   1.611  13.282  0.2883  0.1040  0.0660
19147W        W35994   4.138   8.071  12.778  0.1111 -0.0877 -0.0229
19148W        W35995   4.463  15.389  14.694 -0.0139  0.4988 -0.0374
19149W        W35996   2.071   4.136   2.126 -0.1241  0.1731 -0.0507
19150W        W35997  15.842  11.443  14.628  0.0299 -0.1183  0.4164
19151W        W35998  16.317  13.773  14.518 -0.2233 -0.1724 -0.0427
19152W        W35999   3.023  15.330  12.832 -0.1393  0.1018 -0.0208
19153W        W36000  11.252  11.325  13.404 -0.3056 -0.0877  0.1403
19154W        W36001   2.257   7.817   4.596 -0.1021  0.3871 -0.0509
19155W        W36002   4.203   4.801   1.716 -0.0800 -0.0912 -0.0881
19156W        W36003   2.776  15.687   3.479 -0.3505 -0.0878 -0.1047
19157W        W36004   7.484   5.886   4.988 -0.6028  0.3194 -0.2902
19158W        W36005   0.142  17.609   3.277 -0.0684 -0.1239  0.1727
19159W        W36006   4.578   6.302   5.203 -0.3548 -0.0287 -0.2056
19160W        W36007  12.718  17.662   4.774 -0.0815 -0.1575 -0.0169
19161W        W36008   9.556  17.935   2.433  0.0826  0.0001  0.0164
19162W        W36009  14.348  16.839   3.301  0.1254  0.3203 -0.1752
19163W        W36010  11.382   0.774  11.812  0.2079 -0.0030 -0.1641
19164W        W36011   0.886  13.232   2.722 -0.0025  0.1244 -0.1893
19165W        W36012   6.693  11.854  13.214 -0.2052  0.2033 -0.0369
19166W        W36013  16.479   7.930  12.304 -0.0129 -0.1431 -0.0672
19167W        W36014   4.263  17.407  13.247  0.2945  0.1417 -0.0989
19168W        W36015   2.838  15.906   1.827 -0.0185  0.2794 -0.4985
19169W        W36016  14.622  10.619  13.506  0.1866  0.1304 -0.2539
19170W        W36017  14.444   1.339  11.360  0.1370  0.0951 -0.0040
19171W        W36018  11.124   6.378  16.213  0.4422  0.4544  0.0403
19172W        W36019   6.347   6.429  14.529  0.1191 -0.2974 -0.2449
19173W        W36020   3.826   5.271  14.520 -0.2714 -0.0710 -0.0007
19174W        W36021   6.633  14.686   0.955  0.0507 -0.0238  0.1075
19175W        W36022  13.755   1.403   4.750  0.1121  0.0140  0.0913
19176W        W36023   4.720   9.176  12.167 -0.0888 -0.1022 -0.4051
19177W        W36024  11.036   2.416   2.971  0.2902  0.0592  0.0119
19178W        W36025  18.237  16.547  14.492 -0.0740  0.1565 -0.1722
19179W        W36026   4.242   4.111  12.119  0.1172 -0.1154 -0.0309
19180W        W36027  10.114   6.454   5.944 -0.1238  0.2062 -0.0946
19181W        W36028  13.856   6.309  12.988  0.2149  0.2490  0.0783
19182W        W36029  13.132   5.462   2.889 -0.1282 -0.3168 -0.0361
19183W        W36030   9.408   9.934  13.936  0.0611  0.0596 -0.0729
19184W        W36031  18.087   4.019  16.128 -0.2448  0.0719 -0.0987
19185W        W36032   2.655  17.254   0.426 -0.0268 -0.0697  0.1732
19186W        W36033  18.153  18.171   1.587  0.0861  0.2758 -0.0141
19187W        W36034  10.025  15.015  15.121 -0.0725  0.0513  0.5135
19188W        W36035   5.021   4.168  12.053 -0.0260  0.1148  0.0900
19189W        W36036  16.793  10.964  11.703 -0.2359 -0.2430 -0.1604
19190W        W36037  17.814   1.906  14.649 -0.1034  0.1900  0.1972
19191W        W36038  17.668   7.475  13.307  0.0235 -0.1165  0.0466
19192W        W36039   9.398   3.906   1.013  0.2635 -0.0378  0.0212
19193W        W36040  12.336  12.378   0.697  0.3772  0.0124  0.1985
19194W        W36041   7.349  10.789   4.075  0.0224 -0.2305 -0.0592
19195W        W36042   4.564   1.821   2.380 -0.0715  0.1824  0.0545
19196W        W36043   8.533  17.572  15.095  0.1350 -0.0523  0.1543
19197W        W36044   9.188   7.510  11.249 -0.1862 -0.1282 -0.0070
19198W        W36045  10.622   3.713  12.618  0.2598  0.0381 -0.3243
19199W        W36046  13.703  17.470  12.860  0.1005  0.0620 -0.1608
19200W        W36047   4.636  13.043  15.237 -0.0143  0.1076 -0.1403
19201W        W36048  15.644  12.319  14.705  0.1210 -0.0894  0.2664
19202W        W36049   8.603   9.687   5.202  0.1080 -0.1595  0.1158
19203W        W36050  17.231   3.679   3.329 -0.1863  0.1567 -0.0709
19204W        W36051   4.309  12.085   3.709 -0.1280 -0.2251 -0.1072
19205W        W36052   5.895  17.048  14.539 -0.1438  0.0137  0.0929
19206W        W36053  14.827  15.275   4.373 -0.2523  0.3631  0.0462
19207W        W36054  16.019   3.773  16.158 -0.0532 -0.2870  0.1139
19208W        W36055   8.355   9.984  12.995  0.2785 -0.0789  0.0454
19209W        W36056   1.463   2.406   4.436 -0.2593  0.2179 -0.2591
19210W        W36057  13.741   9.831  16.290  0.2197 -0.0067 -0.0791
19211W        W36058   9.485  13.329  13.546 -0.1078  0.0725 -0.2262
19212W        W36059   4.380  16.535   0.940  0.0597 -0.0371 -0.1902
19213W        W36060   6.891   0.009  15.535 -0.4400  0.2994  0.0383
19214W        W36061  13.045  16.318  14.180 -0.0596 -0.0271 -0.1429
19215W        W36062  10.520  16.338   5.252 -0.0452  0.2118 -0.2218
19216W        W36063   1.332   0.333  15.723  0.3941 -0.1250  0.0071
19217W        W36064   2.100   1.815  15.490  0.2493  0.0513  0.2716
19218W        W36065   4.782   0.820  12.531 -0.0438  0.2780 -0.1185
19219W        W36066   7.231   4.655   2.573  0.1474  0.1679  0.0970
19220W        W36067  12.331  13.213   0.475  0.0548 -0.2045  0.1888
19221W        W36068  17.788   1.937   1.517 -0.3350 -0.0715 -0.1099
19222W        W36069   9.902  14.138  12.928 -0.0092  0.1963 -0.0633
19223W        W36070  10.468  16.858   5.145 -0.1387 -0.0034 -0.0114
19224W        W36071  16.327  14.058   0.991  0.1786 -0.3201 -0.2952
19225W        W36072  16.297   2.779   1.203  0.0373  0.0587 -0.1038
19226W        W36073  10.728  13.437  15.517 -0.1847  0.1023 -0.0009
19227W        W36074   0.475  10.167   1.230  0.0650  0.1126 -0.2575
19228W        W36075   4.286  17.222   0.800  0.2414  0.2461 -0.0509
19229W        W36076   5.680  13.929  14.884  0.1787  0.2567  0.2501
19230W        W36077   7.856  10.212  13.214  0.1414  0.0745 -0.2135
19231W        W36078  17.476   0.053  11.749  0.1873 -0.1893 -0.1322
19232W        W36079  10.685   0.595  10.753 -0.3300  0.1326  0.1671
19233W        W36080   1.215   4.280  10.707  0.1226 -0.0838 -0.0710
19234W        W36081  13.399   6.413  12.619  0.0773  0.3019  0.0990
19235W        W36082   4.189   2.066   4.947  0.1080 -0.2173  0.1214
19236W        W36083  12.493  12.784   0.379  0.0127 -0.1765  0.0954
19237W        W36084  18.381  11.766   2.408  0.1752  0.0066  0.0083
19238W        W36085  13.259   9.133   5.014  0.0085  0.0148 -0.0683
19239W        W36086  15.947  17.635  12.043 -0.1088  0.1443 -0.1202
19240W        W36087   7.104  18.390  15.050  0.2262  0.0063  0.2074
19241W        W36088  14.660  14.944   1.176  0.0996 -0.4486  0.2164
19242W        W36089  17.692  16.569  16.165  0.4004  0.3431 -0.1256
19243W        W36090   4.659   7.060  15.032 -0.1024 -0.0597 -0.0792
19244W        W36091   1.169  16.079   1.655  0.1063  0.0233 -0.0716
19245W        W36092  16.331   6.328   1.442 -0.3354  0.2361  0.0915
19246W        W36093   3.448   1.397   0.793  0.0848  0.5025  0.1208
19247W        W36094  14.217   8.869  13.091  0.0716  0.1418 -0.1866
19248W        W36095   4.021   5.520  14.075  0.0815 -0.1326 -0.0716
19249W        W36096   5.679   0.814  13.470 -0.1943 -0.0900 -0.0252
19250W        W36097  13.197   7.120  15.729  0.0669  0.0078 -0.0643
19251W        W36098  12.894   5.625  14.777 -0.4042 -0.1711  0.0232
19252W        W36099   0.647   6.725   2.430 -0.3974 -0.1241  0.0356
19253W        W36100   0.748   9.439  12.269 -0.0057  0.0835 -0.0997
19254W        W36101   3.487  17.505  15.206  0.0992 -0.0400  0.0239
19255W        W36102   1.423  15.873   3.536 -0.4295 -0.1884 -0.5158
19256W        W36103  12.161   9.344  11.717 -0.1880 -0.3297 -0.1234
19257W        W36104   0.709  10.017  13.136 -0.1690 -0.1352 -0.1259
19258W        W36105   1.407   2.359  13.626 -0.1075 -0.0179 -0.0139
19259W        W36106  16.950  11.764   4.804  0.1608 -0.1719  0.2360
19260W        W36107  18.327   8.139   2.989  0.0019  0.1806 -0.3321
19261W        W36108   2.498  16.341   1.872 -0.0657 -0.2463  0.0907
19262W        W36109  15.944  16.823  14.506  0.3131  0.2329 -0.1340
19263W        W36110   9.897   8.828   1.773  0.0401  0.2786 -0.0697
19264W        W36111   4.534   4.106   2.242 -0.1145 -0.0456  0.1409
19265W        W36112   4.420   9.916  15.023 -0.1348  0.1542 -0.0920
19266W        W36113   2.620  14.727  13.011 -0.5002  0.2605 -0.1485
19267W        W36114  17.625   9.596   1.777  0.3086 -0.1392  0.0661
19268W        W36115   0.461  13.911   5.697  0.2481 -0.1532 -0.2162
19269W        W36116   0.517   4.743   5.334 -0.0528  0.0040  0.2513
19270W        W36117   8.768   7.454   2.404 -0.0398 -0.3194  0.1138
19271W        W36118   3.794   4.804  14.253 -0.0237 -0.1909 -0.3839
19272W        W36119  17.996  16.911  12.923 -0.2822 -0.2225  0.2251
19273W        W36120  11.565   6.406  13.534 -0.0957 -0.3510  0.1018
19274W        W36121  17.876  11.674   4.991 -0.0254  0.0474  0.2270
19275W        W36122   2.933   4.047  11.352 -0.2101  0.3723  0.3958
19276W        W36123   9.170  18.184   0.218  0.0294  0.2264  0.1115
19277W        W36124  10.818   1.755   1.644  0.1443 -0.1606  0.1985
19278W        W36125  11.447   5.886  15.190 -0.0788 -0.0655  0.1293
19279W        W36126  11.003   1.175  15.792 -0.1455  0.0480  0.0709
19280W        W36127   3.274  16.987  14.865 -0.0463 -0.1346 -0.2178
19281W        W36128   9.363   5.655  13.510 -0.4982 -0.0144 -0.0723
19282W        W36129   9.795  10.583  13.627 -0.2749 -0.3238  0.2142
19283W        W36130   8.153  14.084  11.473  0.1694  0.3715  0.1032
19284W        W36131   7.199  15.034   4.033  0.3045 -0.2326  0.1432
19285W        W36132   2.399  11.547  14.134 -0.0670 -0.1534  0.0459
19286W        W36133   4.548   6.725  14.189  0.4065 -0.2045  0.2233
19287W        W36134   9.651   8.906   2.217  0.0701  0.0180  0.1263
19288W        W36135   6.705  17.137   1.225 -0.0265  0.2596  0.2150
19289W        W36136   8.498   2.012   1.788 -0.2749 -0.1977  0.0300
19290W        W36137   4.882  17.485   2.446  0.0324 -0.0670 -0.1072
19291W        W36138  12.844  17.266  13.963  0.2270 -0.2831  0.1548
19292W        W36139   1.025  11.356  12.159 -0.2934  0.2087  0.0705
19293W        W36140  16.827  14.681  11.872  0.4053  0.3502  0.3747
19294W        W36141  17.114  11.244   5.029 -0.0781  0.0561 -0.0887
19295W        W36142  15.234   6.026  15.427  0.1616 -0.0357 -0.0504
19296W        W36143   9.325   0.914   1.970  0.2289  0.0705  0.0354
19297W        W36144  16.031   2.034   0.950  0.1342  0.0987 -0.0151
19298W        W36145  17.477   0.278   3.925 -0.0422 -0.0712 -0.1637
19299W        W36146   6.746  14.045   1.707 -0.1660 -0.5002 -0.1954
19300W        W36147   5.163  10.761   2.874 -0.2963 -0.6635 -0.4287
19301W        W36148   5.244   3.363   2.480  0.0308 -0.0763  0.2208
19302W        W36149   0.167   9.886   5.872  0.3248  0.0405  0.4911
19303W        W36150  14.698  18.268  14.084 -0.1276  0.0641 -0.0140
19304W        W36151   2.163   1.004  12.152 -0.1367 -0.1594  0.0040
19305W        W36152  18.334  11.784  14.983  0.4535 -0.1106 -0.2800
19306W        W36153  17.088   5.865   3.478  0.1590 -0.3728  0.0329
19307W        W36154   8.845   2.411   2.539 -0.0845  0.0664 -0.1578
19308W        W36155   6.157   3.364   3.555  0.1187  0.2877 -0.0688
19309W        W36156  15.392  13.915  13.956 -0.2080  0.1705 -0.1563
19310W        W36157   4.607   2.064  11.495 -0.1217  0.4372  0.3330
19311W        W36158  14.071   3.564  13.513  0.3645 -0.0308  0.0334
19312W        W36159   6.710  11.634   0.485  0.3550 -0.1842 -0.0654
19313W        W36160  15.008  11.698  13.656  0.1914  0.0297 -0.2521
19314W        W36161   4.185   5.752   1.788  0.3093  0.1194 -0.0477
19315W        W36162   3.109  13.916  12.403 -0.0120 -0.0235 -0.0342
19316W        W36163   4.694   4.672  12.580 -0.1346  0.1057 -0.2812
19317W        W36164  11.173  15.603   2.571 -0.2140 -0.0422  0.4566
19318W        W36165  10.702   8.717   1.210  0.1676  0.0995 -0.1016
19319W        W36166  17.155   3.800  11.429  0.1336 -0.1612  0.0111
19320W        W36167   4.350  15.941  12.334 -0.0992 -0.1541  0.0464
19321W        W36168  16.983  17.998  15.244  0.0336  0.1463  0.3394
19322W        W36169  14.471  15.415   2.494 -0.2400 -0.0330  0.7937
19323W        W36170  16.911   8.690  10.944 -0.3254 -0.0500  0.4459
19324W        W36171   5.011   3.511   4.188  0.1386  0.0374  0.3893
19325W        W36172  16.143  13.025   1.787 -0.1180 -0.3422  0.0908
19326W        W36173  11.624   0.624   5.322 -0.1669 -0.2112 -0.1015
19327W        W36174   1.995   9.537   0.642 -0.2799 -0.0085  0.2486
19328W        W36175   6.641   6.108  12.939  0.2326 -0.0739 -0.1455
19329W        W36176  12.606  10.617   1.835  0.1714 -0.0478  0.1697
19330W        W36177   3.817   1.073  11.156 -0.0379  0.0045  0.3477
19331W        W36178   1.261  11.546   1.117  0.0191 -0.0534  0.2099
19332W        W36179  17.449   0.651   2.844  0.2029 -0.0498  0.0782
19333W        W36180  16.370  16.703  14.887 -0.3532 -0.3443  0.2527
19334W        W36181   1.770   0.133  12.435  0.1303 -0.2368 -0.2088
19335W        W36182   4.324  13.910  14.875  0.1239 -0.3895 -0.0221
19336W        W36183   2.208  12.277  15.069  0.3030  0.1423 -0.1841
19337W        W36184   7.877   7.990  16.284 -0.0661 -0.1983 -0.2945
19338W        W36185   2.629   2.122  11.416  0.2624 -0.3369  0.0378
19339W        W36186  13.523   5.154   1.325  0.2350  0.3740  0.3248
19340W        W36187  13.495   9.592  14.826 -0.4528  0.0303 -0.0708
19341W        W36188  11.130   0.400   2.204  0.0527  0.2486 -0.2114
19342W        W36189   7.230  12.698   3.730 -0.0121 -0.0424 -0.5102
19343W        W36190  11.597  12.148   3.080  0.3315  0.0427  0.3264
19344W        W36191   5.190  10.276  13.263  0.0278 -0.2033 -0.1593
19345W        W36192  13.177   2.620  15.250  0.0794  0.2067  0.2852
19346W        W36193   1.413  12.629  15.556 -0.0142 -0.3816 -0.0898
19347W        W36194   5.827  14.846   4.619 -0.5445  0.3682 -0.1162
19348W        W36195  16.749  14.457  16.298  0.2556  0.0456 -0.5343
19349W        W36196   8.006  17.078   3.959 -0.1699 -0.0469 -0.0603
19350W        W36197  14.681  15.159  15.605  0.0643 -0.0198  0.1204
19351W        W36198  16.873  14.217   0.733 -0.0631 -0.2255 -0.0097
19352W        W36199   9.649   6.660  12.822 -0.0175 -0.0922  0.0382
19353W        W36200   8.611   8.319   2.870  0.2904 -0.3212  0.1344
19354W        W36201   7.306   5.840  15.386  0.0430 -0.0183  0.0765
19355W        W36202  12.107   5.775  16.290  0.1221  0.0183  0.3054
19356W        W36203  15.150   3.335  11.554  0.0682 -0.1889  0.0768
19357W        W36204   6.425  18.414   3.076 -0.0175 -0.0990  0.0662
19358W        W36205   7.419  16.493  15.489  0.1783 -0.2612 -0.1843
19359W        W36206  16.954  17.196   4.273  0.3446  0.0724 -0.1928
19360W        W36207  15.196  16.018  15.090  0.1461 -0.1199 -0.0972
19361W        W36208  13.990  14.264  15.323 -0.0724  0.2509  0.2680
19362W        W36209  14.592  17.173   4.662 -0.0609 -0.0381 -0.1545
19363W        W36210  11.995   0.610  14.792  0.1995 -0.1707  0.2332
19364W        W36211  15.054  12.180   1.544 -0.2407  0.0391  0.0365
19365W        W36212   5.266  13.460  12.507  0.0536 -0.4607 -0.1189
19366W        W36213  12.458   3.249   1.800  0.2808  0.1642  0.1195
19367W        W36214   7.271   6.739  11.887 -0.2268  0.2553  0.0504
19368W        W36215   9.241   9.592  11.684  0.1129 -0.0081 -0.2572
19369W        W36216  14.648   2.966  14.835  0.0138 -0.1078  0.1939
19370W        W36217   1.100   9.004  11.918  0.0100  0.1526  0.2664
19371W        W36218  13.623   1.498  16.075 -0.0570  0.2555  0.0113
19372W        W36219   0.409   1.169   0.996 -0.1477  0.2704 -0.0932
19373W        W36220   3.439  13.406   2.350  0.0207 -0.1067  0.1311
19374W        W36221   1.748  10.627  12.929  0.1078 -0.1107  0.1180
19375W        W36222  11.547   6.723  12.152  0.0375 -0.1269  0.0978
19376W        W36223   9.576   8.878  15.406 -0.2067 -0.2935 -0.0773
19377W        W36224   9.964   4.585   2.898 -0.1485 -0.3257  0.3004
19378W        W36225  14.530   9.240  12.543  0.1450  0.0051 -0.2492
19379W        W36226   7.081  13.641   1.173 -0.1372 -0.0046 -0.2538
19380W        W36227   0.863  16.978   0.222  0.0427 -0.1741 -0.2226
19381W        W36228   5.527   6.490   1.918 -0.2853 -0.1166  0.1804
19382W        W36229  14.287   6.097  13.141  0.0595  0.0629  0.0051
19383W        W36230   9.546   0.760   5.909 -0.0585 -0.1760 -0.0627
19384W        W36231   4.881   8.879  11.801 -0.0292  0.2480 -0.0327
19385W        W36232  11.736  15.049  15.153  0.1469  0.1398 -0.2236
19386W        W36233  15.517  14.487  16.343  0.0922 -0.0594  0.2702
19387W        W36234   8.067  16.483   1.372 -0.0652 -0.0097 -0.2920
19388W        W36235  11.867   1.491  13.992 -0.3277  0.1936 -0.1109
19389W        W36236  12.760  16.114   1.845 -0.3200 -0.0272  0.0364
19390W        W36237  17.233   0.999  12.200 -0.1839 -0.0768 -0.0728
19391W        W36238   9.112  11.092   1.031  0.0218  0.1622  0.1788
19392W        W36239  10.351   2.527   4.033  0.1404 -0.2048  0.0204
19393W        W36240  14.272  12.895  13.839 -0.0018  0.1183  0.3116
19394W        W36241   3.040  14.723   4.273  0.1177  0.1182  0.1003
19395W        W36242   6.863   0.677  16.242 -0.1472 -0.2119  0.4009
19396W        W36243  15.120   1.047  11.921  0.0236 -0.1931 -0.1462
19397W        W36244   9.390  14.548  14.660 -0.2662 -0.0885 -0.1832
19398W        W36245   7.631   1.147  11.007  0.0606  0.0513  0.0218
19399W        W36246   4.987  12.230  14.442 -0.0647 -0.0438  0.0187
19400W        W36247  10.033   8.905   0.495 -0.2365 -0.0684  0.1102
19401W        W36248  16.800   5.874  12.360 -0.1285  0.1843  0.0444
19402W        W36249  10.927   7.253   3.816  0.0319  0.1036  0.2330
19403W        W36250  11.011  12.215  14.651  0.3416 -0.0980  0.0370
19404W        W36251  18.363  16.608   0.928 -0.0405 -0.2283  0.0081
19405W        W36252   2.781  11.460   0.700  0.1933 -0.1699  0.0452
19406W        W36253  14.702  15.915   3.616 -0.4086  0.1146  0.0912
19407W        W36254  12.176  14.912  12.113  0.3399 -0.1197  0.0077
19408W        W36255   3.234   7.633   2.425  0.1281  0.1364 -0.1426
19409W        W36256   0.694  14.300  12.224 -0.3310  0.0276  0.3028
19410W        W36257   8.420   3.644  11.812  0.2657  0.1524  0.2070
19411W        W36258  11.326   5.364   3.783 -0.3348  0.1256  0.0013
19412W        W36259   0.340  18.045   0.965  0.3393 -0.2289  0.0555
19413W        W36260  12.676  12.726  16.287 -0.1235 -0.0156 -0.0730
19414W        W36261   2.173   3.601   3.027  0.1794 -0.3676 -0.1438
19415W        W36262   6.484   6.601   4.406  0.0838  0.0754  0.0742
19416W        W36263  15.570   8.586  13.850  0.0729  0.0530 -0.0410
19417W        W36264   3.994   6.139   5.168 -0.3471 -0.1586 -0.1615
19418W        W36265  17.673   4.466  12.033  0.3500  0.1078 -0.0043
19419W        W36266   4.948   0.763  16.044  0.1212  0.0651  0.0327
19420W        W36267   5.008   6.962   2.003  0.2360  0.0920 -0.1839
19421W        W36268   8.116  12.273   6.024 -0.3853  0.0412  0.3160
19422W        W36269   8.691  15.387  13.699  0.1588  0.0880  0.0482
19423W        W36270   8.932   7.792   2.827 -0.1711  0.0349  0.0392
19424W        W36271   2.144  17.477   0.930 -0.7450  0.1857  0.1452
19425W        W36272   9.236  15.992  13.502  0.1674 -0.2180 -0.0012
19426W        W36273   5.551   0.339   5.519  0.1570  0.2646  0.0795
19427W        W36274   5.145   2.417   2.364  0.2702  0.1943  0.2135
19428W        W36275   9.584   0.635  13.069 -0.0369 -0.0242  0.0549
19429W        W36276  14.971  12.357   4.398  0.0867  0.3269 -0.2325
19430W        W36277  11.645  13.623   2.106  0.5092  0.3040 -0.1777
19431W        W36278  13.546   9.532   4.852 -0.3231 -0.5368  0.0864
19432W        W36279   7.082  11.917   0.571 -0.0604 -0.3045  0.0148
19433W        W36280  14.050   7.998   2.565 -0.0767  0.0060 -0.2347
19434W        W36281  13.829   7.431  14.950 -0.1962 -0.0885  0.1643
19435W        W36282   3.632   1.716  16.190  0.2208  0.0354  0.0216
19436W        W36283  13.004  18.189  13.319  0.0422  0.0271  0.0170
19437W        W36284  11.494  10.956   2.543 -0.1633 -0.1889  0.0330
19438W        W36285  16.318  13.723  15.203  0.2629 -0.1147 -0.3785
19439W        W36286   4.485   9.507  11.566  0.0302  0.1349  0.0284
19440W        W36287  11.204  16.087  12.496 -0.2214  0.1012 -0.1145
19441W        W36288  12.765   2.093  14.197  0.0371 -0.1865 -0.2070
19442W        W36289   8.968  13.769  12.226  0.1394  0.0259 -0.3113
19443W        W36290  10.887  15.096   5.067 -0.1041 -0.2077 -0.2934
19444W        W36291   0.869  16.043  13.481  0.3070  0.2670 -0.0281
19445W        W36292   3.080  13.378   5.254 -0.1161 -0.0518 -0.1101
19446W        W36293   1.407   7.033   0.614  0.0128 -0.1958  0.0477
19447W        W36294  15.406   5.687  15.956  0.0401 -0.0279  0.1000
19448W        W36295   6.054   5.334   2.768 -0.0736  0.3157 -0.1553
19449W        W36296  15.195   7.889  14.683  0.2610  0.2436  0.1560
19450W        W36297  12.520   7.920   1.850 -0.1582 -0.0696 -0.0561
19451W        W36298  15.958   2.196   2.246 -0.0351 -0.2455  0.2844
19452W        W36299   6.822   2.642   1.745 -0.0491 -0.0229  0.1314
19453W        W36300  10.476   2.515  15.856  0.1993 -0.0629  0.2433
19454W        W36301   8.328  15.693  15.361 -0.0087 -0.5641 -0.1748
19455W        W36302  18.263   1.647  14.736  0.1461 -0.1056 -0.1583
19456W        W36303   9.689  16.040   0.728 -0.1769  0.1073  0.0502
19457W        W36304   9.187   5.245  14.394 -0.0321  0.0488  0.3664
19458W        W36305   2.483  12.765  11.799 -0.0718  0.3334 -0.4093
19459W        W36306   4.928  14.058   4.964 -0.0995  0.1322 -0.1090
19460W        W36307   6.728   8.494   1.515 -0.0448 -0.0571 -0.1571
19461W        W36308   9.504  15.150   0.705  0.0940 -0.1820 -0.2774
19462W        W36309   1.785  15.107   4.903 -0.0291  0.3913 -0.0754
19463W        W36310  11.935  15.584  11.811 -0.0996 -0.1109  0.1323
19464W        W36311   5.232  17.050   3.998 -0.3118  0.1122 -0.0898
19465W        W36312   6.001  12.641  12.393 -0.0531  0.0699  0.2570
19466W        W36313  16.190  11.092  12.406  0.0369 -0.0233  0.1988
19467W        W36314   0.834   2.741  11.539 -0.1520 -0.0068  0.1335
19468W        W36315  17.508   7.442   4.088 -0.0115  0.3030  0.2654
19469W        W36316  11.585  13.115   1.813  0.0441 -0.1225  0.1774
19470W        W36317  10.595  15.732   3.990  0.0437  0.0024 -0.2085
19471W        W36318  15.620  18.029   2.953  0.0532  0.1904 -0.0237
19472W        W36319   6.250   1.838   3.855 -0.0695  0.1523 -0.2635
19473W        W36320  14.130   7.356   3.597  0.0013  0.0670 -0.0539
19474W        W36321   8.343   1.650  14.486  0.1897  0.2282  0.0510
19475W        W36322  10.896  17.639   1.226  0.2671 -0.1123 -0.0244
19476W        W36323   3.232   8.029  14.069  0.1572  0.0618 -0.1253
19477W        W36324  12.536   4.847   2.449  0.2281  0.0610 -0.0395
19478W        W36325  14.737  12.880  14.256 -0.0152  0.0481  0.2463
19479W        W36326   0.960  16.312   0.411 -0.0786 -0.0048 -0.2213
19480W        W36327  10.302   4.563   2.527  0.2882  0.0607  0.1369
19481W        W36328   1.792   8.558   0.235 -0.0772  0.1084  0.2558
19482W        W36329   2.993   2.319  12.712 -0.1531  0.1104  0.0156
19483W        W36330   8.043   8.309   4.541  0.0887 -0.1923 -0.2417
19484W        W36331  13.221  17.371   0.779  0.1190  0.1070  0.0192
19485W        W36332  16.815   5.150  16.321  0.1658 -0.1582  0.1796
19486W        W36333   2.562  10.866  14.720 -0.3252  0.3262  0.2310
19487W        W36334   2.056   9.912   4.177  0.0461 -0.0848  0.1394
19488W        W36335   2.709   4.832   1.189 -0.2140  0.0359 -0.2079
19489W        W36336   3.501  14.294  14.726 -0.0283  0.1316  0.0917
19490W        W36337  17.549   6.349  11.787  0.2667 -0.1310  0.1140
19491W        W36338   9.518  16.307  12.727 -0.0503  0.1483 -0.0903
19492W        W36339   8.657  15.967   0.815  0.2369 -0.3616 -0.2290
19493W        W36340   0.042   3.701  10.721 -0.1223  0.1022 -0.1383
19494W        W36341   1.541  18.180   1.741 -0.0108  0.0557 -0.0219
19495W        W36342  17.296   4.682   4.181  0.1449 -0.1467 -0.0833
19496W        W36343  13.521   3.562   0.983 -0.0434  0.2860 -0.2771
19497W        W36344   7.262  15.818   1.777  0.1688 -0.2374  0.0770
19498W        W36345  15.250  11.191  16.110 -0.1870  0.0403 -0.2591
19499W        W36346  16.359  17.773  13.568  0.3872 -0.2585  0.1447
19500W        W36347  18.053  14.345   3.345 -0.1605 -0.3510  0.2005
19501W        W36348   3.672  11.858  14.771  0.0343  0.1656  0.1353
19502W        W36349   3.960  11.941   0.728 -0.0378 -0.0449 -0.1269
19503W        W36350   5.359   1.054  14.759  0.0245 -0.2099  0.1984
19504W        W36351   9.639  11.213   5.157 -0.0426  0.2542 -0.4227
19505W        W36352  14.063   2.922  11.519  0.0406 -0.0254 -0.2666
19506W        W36353   5.075  16.931  13.325  0.1336 -0.2975 -0.0615
19507W        W36354  17.465   1.692  12.136 -0.3827 -0.5832 -0.3589
19508W        W36355   5.024  17.605  14.565 -0.0963  0.1403  0.0269
19509W        W36356  16.665  10.955   1.205  0.1000 -0.1802  0.0996
19510W        W36357  11.441   3.500   1.414 -0.0173  0.0424  0.0834
19511W        W36358  17.230  17.613  14.976 -0.0606  0.0061  0.1950
19512W        W36359   6.102   9.004   4.541  0.2148  0.3151 -0.0087
19513W        W36360   0.904   7.125  11.005  0.0452 -0.1657  0.2438
19514W        W36361   2.206   4.947   3.495  0.3354  0.1157 -0.0686
19515W        W36362  17.048   9.736   0.957 -0.1065  0.0431 -0.1289
19516W        W36363   1.141   0.697   5.281 -0.4531  0.2097  0.1365
19517W        W36364   0.436   4.460  16.014  0.0061  0.1148 -0.2868
19518W        W36365   4.169  15.120   2.570 -0.1173 -0.0220 -0.0341
19519W        W36366  15.399  11.624   4.710  0.5149  0.1017  0.0879
19520W        W36367   7.880  17.549   0.333  0.0871  0.2030 -0.2969
19521W        W36368   1.739   0.884   1.096 -0.0259  0.1123 -0.0922
19522W        W36369   8.281   6.516   0.759 -0.0750  0.1528 -0.2610
19523W        W36370  15.224   2.813  16.281 -0.0258 -0.0938 -0.1259
19524W        W36371   7.394   6.338  15.226 -0.1477  0.2033  0.1523
19525W        W36372   1.698  10.262   2.510  0.1005  0.2115  0.1590
19526W        W36373   7.266  17.784   5.810  0.3802 -0.1194 -0.0264
19527W        W36374   7.457   0.466  12.248  0.0555 -0.0631  0.1587
19528W        W36375  10.865   7.343  13.208  0.0246 -0.2006  0.2657
19529W        W36376   3.721  16.335   4.330  0.1684 -0.1643  0.0798
19530W        W36377   1.955   1.209   1.980  0.1637 -0.0618 -0.0327
19531W        W36378  10.128   6.705  12.528  0.1852  0.1389 -0.2438
19532W        W36379   8.818  17.369   2.725 -0.2225 -0.1812 -0.1542
19533W        W36380   5.956  14.310   6.253  0.1902  0.4432  0.2035
19534W        W36381   0.095   6.304  11.658 -0.1295  0.3352 -0.2234
19535W        W36382   3.439   8.050  12.971  0.2324 -0.2351  0.0832
19536W        W36383   9.360   5.781   5.444  0.2135 -0.0341 -0.2283
19537W        W36384   4.710  13.476  12.545  0.1674 -0.0976  0.0445
19538W        W36385  11.250   5.021   2.332  0.0160  0.1835 -0.3632
19539W        W36386  13.949   2.226   4.059 -0.1192  0.2565 -0.2905
19540W        W36387   0.679   0.756   2.739  0.3391 -0.2263 -0.1906
19541W        W36388   1.579   1.281   4.502 -0.1615 -0.0756 -0.0580
19542W        W36389  10.933  12.983   4.370  0.0063  0.0968 -0.1529
19543W        W36390   5.078   9.310  16.092 -0.2562  0.0113 -0.3132
19544W        W36391  11.095   9.258   3.534  0.0636  0.0957 -0.0937
19545W        W36392  17.173  13.775   0.843  0.0660 -0.0291  0.2193
19546W        W36393  10.520   3.245  12.004 -0.3371  0.1583 -0.2078
19547W        W36394   9.777  16.919   0.472 -0.1342  0.2027 -0.0658
19548W        W36395  16.577  12.801   0.106  0.1576 -0.0619  0.0298
19549W        W36396  12.661  16.135  13.841 -0.1882  0.0164 -0.0778
19550W        W36397  12.867  14.422   1.422 -0.1371  0.3490 -0.3768
19551W        W36398  15.603   8.082   0.692  0.0952  0.0546 -0.4942
19552W        W36399  12.787   5.561   3.319  0.0287  0.3428 -0.0971
19553W        W36400  17.247  13.644  14.281 -0.3413 -0.3579  0.0135
19554W        W36401  13.661  14.809   1.937 -0.0198 -0.1451 -0.1024
19555W        W36402   9.150   2.865  12.485 -0.1202 -0.2246  0.0641
19556W        W36403   1.349   7.596   1.915  0.1150  0.1323 -0.1061
19557W        W36404  13.835   9.611  12.711 -0.1925 -0.2306 -0.2238
19558W        W36405   5.481   2.679   2.652  0.2233 -0.2944  0.2917
19559W        W36406  15.587   7.480  14.824  0.2008  0.0972  0.1014
19560W        W36407   9.807   1.654  15.331 -0.1617 -0.2175  0.2427
19561W        W36408  12.957  16.874  14.872  0.2196 -0.5583  0.2210
19562W        W36409   7.076   5.959  12.025  0.2361 -0.1687  0.0182
19563W        W36410  11.517  18.182   5.772  0.1582  0.1409 -0.0018
19564W        W36411   4.654   9.468   5.510 -0.1299  0.0880 -0.0170
19565W        W36412   8.246  10.918   4.888 -0.2044  0.2053  0.4428
19566W        W36413  14.168   6.743   5.142  0.0493 -0.0529  0.1342
19567W        W36414  15.827   5.867  15.518 -0.1054 -0.2833  0.2877
19568W        W36415  12.192   6.498  15.541 -0.3315  0.3110 -0.4455
19569W        W36416   2.605   3.975   3.686 -0.2046 -0.0580 -0.0935
19570W        W36417   7.662   6.376   1.795 -0.0720 -0.0205  0.4085
19571W        W36418   8.019   7.272  15.404  0.1994  0.2221 -0.0332
19572W        W36419  17.925   9.950  14.364 -0.4788  0.1903 -0.5331
19573W        W36420  11.142   6.144   2.009 -0.1003 -0.2543  0.1087
19574W        W36421  15.721  12.678  16.352 -0.0213 -0.2230 -0.0974
19575W        W36422   9.355  14.951  15.892  0.1203  0.0463  0.0036
19576W        W36423   6.268  14.639  15.914 -0.3651  0.2368  0.2059
19577W        W36424   3.188  17.133   4.806 -0.0823 -0.0005  0.1528
19578W        W36425   0.434   3.975  11.502  0.1389  0.0227  0.2997
19579W        W36426   8.519   4.841   2.048  0.0902 -0.3104 -0.0098
19580W        W36427  13.876  17.065  14.936 -0.1249  0.2020  0.0160
19581W        W36428   5.329   3.244  11.973  0.1546  0.1226 -0.1827
19582W        W36429  16.221   8.337  14.968  0.0645 -0.1105 -0.2045
19583W        W36430   3.125  13.404  11.377  0.1147  0.2689 -0.1106
19584W        W36431  12.901   1.476   1.646  0.0202  0.2096 -0.1822
19585W        W36432   7.862   9.057  14.407  0.1911  0.2274  0.0607
19586W        W36433  10.466  15.183   3.584  0.3565 -0.0365  0.1043
19587W        W36434  13.994   4.312  15.245 -0.1467 -0.1863  0.1315
19588W        W36435   6.558  16.525   0.409 -0.2528 -0.2276  0.1464
19589W        W36436   0.725   0.428   4.128  0.3060 -0.1340 -0.3073
19590W        W36437   5.726   7.529  16.339  0.1763  0.1085  0.2944
19591W        W36438  16.109   5.777   3.046 -0.1011  0.0764  0.0122
19592W        W36439  17.354  17.364   3.593  0.1150  0.1734  0.3257
19593W        W36440   1.986   2.300  12.899 -0.4054 -0.0474  0.1421
19594W        W36441  16.743  14.802   2.212  0.1074  0.0338 -0.3054
19595W        W36442   3.478   7.389   1.143  0.1356 -0.1812 -0.0627
19596W        W36443  17.509  13.016  14.926  0.2115 -0.0045 -0.3972
19597W        W36444  16.935  14.324   3.791  0.0311  0.0176 -0.1502
19598W        W36445   7.624  16.100  13.690  0.0313  0.0787  0.0607
19599W        W36446  14.486   2.006   5.253  0.3234 -0.1587 -0.2220
19600W        W36447  11.924  13.999  16.322 -0.0951 -0.0403 -0.1684
19601W        W36448   5.577  18.305  16.057 -0.2087  0.1352  0.3780
19602W        W36449   3.095   5.115   3.368 -0.2964 -0.0135 -0.0280
19603W        W36450  13.840   6.994   2.364  0.3780 -0.1230 -0.2793
19604W        W36451  14.907  14.217   4.771 -0.0796 -0.1034 -0.1177
19605W        W36452   0.902  13.686   3.009  0.0591 -0.0290 -0.3068
19606W        W36453  14.731  12.699   2.704 -0.2296  0.1339 -0.1849
19607W        W36454  14.692   2.230   4.911  0.1170 -0.1164 -0.0389
19608W        W36455  13.006   4.025   6.011  0.3743  0.1832  0.2652
19609W        W36456  17.139   0.048  11.384 -0.1078  0.1427  0.1748
19610W        W36457   7.465  16.796  13.050 -0.3551  0.2349 -0.2071
19611W        W36458   5.110   5.654  12.894  0.3755 -0.3426 -0.0176
19612W        W36459   8.123  10.667   2.154 -0.2240  0.1143 -0.2679
19613W        W36460   5.518  17.393   4.247  0.3519  0.3094  0.0209
19614W        W36461   6.093   4.212  15.093  0.0304 -0.1339  0.0595
19615W        W36462   3.592   9.794   2.989  0.2231  0.2148 -0.3253
19616W        W36463   2.862  17.795   4.971  0.1612  0.0946 -0.2104
19617W        W36464   9.304   5.062  13.463 -0.0049  0.0536 -0.1976
19618W        W36465   9.799   3.332  14.316 -0.1495  0.4311  0.2652
19619W        W36466  18.156   3.755   3.781  0.1241 -0.3603 -0.1966
19620W        W36467   5.498  15.901   0.679  0.0738  0.1078 -0.0886
19621W        W36468   3.372   2.483  14.734  0.1658 -0.2477  0.2291
19622W        W36469   7.286   2.226   2.617  0.2268  0.1385  0.1446
19623W        W36470   9.303   0.224   1.444 -0.3691 -0.2455 -0.1317
19624W        W36471  16.563   7.645  11.886  0.1570  0.0976  0.0728
19625W        W36472  14.325  10.210  13.609 -0.1701  0.3334  0.0992
19626W        W36473   6.581  13.846   3.682  0.1779 -0.1922  0.2243
19627W        W36474   2.672  17.624   0.084 -0.1257  0.2372  0.0427
19628W        W36475   3.117   3.059  13.846 -0.0540 -0.1440 -0.0334
19629W        W36476  16.042   0.967  12.976  0.1074  0.0995 -0.0289
19630W        W36477   5.494   2.529  11.389 -0.2142  0.2827 -0.0439
19631W        W36478  15.059   9.538  11.385 -0.2298  0.0440 -0.3130
19632W        W36479   0.589  16.130  14.660 -0.1142 -0.0580  0.3235
19633W        W36480  16.452   9.351   1.372  0.2676 -0.1534  0.0110
19634W        W36481  15.367   5.239   2.761  0.2171  0.3373  0.0345
19635W        W36482  15.893   1.024  14.423 -0.2995  0.2287  0.0355
19636W        W36483   3.381   9.371   1.896 -0.0441  0.2987  0.2831
19637W        W36484  16.837  18.381   2.225 -0.1440  0.1945  0.0733
19638W        W36485  16.819   1.159  13.956  0.2784 -0.2970 -0.1402
19639W        W36486   4.707   5.738   2.713 -0.4067  0.0710 -0.0818
19640W        W36487   5.763  17.078  13.196  0.0244 -0.1318  0.1894
19641W        W36488  17.487  18.413  16.144 -0.0547 -0.0100  0.0321
19642W        W36489  11.148  11.379   2.273 -0.1222 -0.1629 -0.2647
19643W        W36490   0.951   1.199   3.126  0.1927  0.0694  0.2206
19644W        W36491   7.441   2.533   2.279 -0.0697  0.0648  0.0514
19645W        W36492   4.925   3.453   0.562  0.0321 -0.2076 -0.0321
19646W        W36493   0.090   3.243   2.578  0.0994  0.1396  0.2262
19647W        W36494  13.687  11.308   0.288 -0.2353  0.0983 -0.3249
19648W        W36495  10.415   6.247  13.134 -0.0746  0.2106 -0.1970
19649W        W36496   6.007  12.320   2.809 -0.0990 -0.0288 -0.1506
19650W        W36497  13.486   2.714  11.796  0.2846  0.1258 -0.0552
19651W        W36498  15.524   4.391   0.115 -0.0752  0.0182 -0.2039
19652W        W36499  14.154  17.030  16.055 -0.2638  0.4985  0.0963
19653W        W36500   1.587   7.956   1.312 -0.2470  0.1270 -0.2105
19654W        W36501  10.022   6.801   5.563  0.0181  0.3364  0.2803
19655W        W36502  15.570  17.739   5.558 -0.0313 -0.2326 -0.2517
19656W        W36503  10.720   6.002   4.246 -0.4177  0.1965  0.3775
19657W        W36504  10.619  13.624   2.731  0.0228  0.3441  0.0889
19658W        W36505   4.529   2.459  15.381 -0.0397  0.1024 -0.3044
19659W        W36506  10.132   4.203   5.127  0.3216 -0.0178 -0.0248
19660W        W36507  15.841  16.686  15.858  0.2295  0.3991  0.2713
19661W        W36508   0.184  15.881  14.345 -0.3727  0.2198  0.0979
19662W        W36509   1.587   3.289  12.912 -0.0104 -0.1047 -0.3259
19663W        W36510   1.596   7.110  11.743  0.0366 -0.1687 -0.0676
19664W        W36511   9.713  15.106  16.333  0.2125  0.2610  0.0766
19665W        W36512  10.417   3.202   0.628  0.1508 -0.0934 -0.1066
19666W        W36513   6.265   1.557  12.800  0.0147 -0.0936  0.1464
19667W        W36514   9.930   2.881  12.594  0.1600  0.0355 -0.3083
19668W        W36515   6.450  14.373   1.951  0.0201 -0.0389 -0.0011
19669W        W36516   4.774  16.686   4.860  0.0827  0.2800  0.1788
19670W        W36517   0.508  11.052   1.838  0.0178 -0.0810  0.2363
19671W        W36518  14.112   9.285  10.051  0.2019 -0.2838 -0.2377
19672W        W36519   7.770  15.757   4.880  0.0092 -0.1265  0.0339
19673W        W36520  17.038  10.459  13.609 -0.1612 -0.3025  0.0029
19674W        W36521  10.762   5.657  12.440 -0.2036 -0.1836  0.0733
19675W        W36522   5.634  14.997  12.960  0.0104 -0.1570  0.0483
19676W        W36523   0.791  12.068   3.461 -0.1083 -0.2144 -0.2265
19677W        W36524  18.308   3.772  12.360  0.0672 -0.1366  0.0817
19678W        W36525   6.272  13.377   1.062 -0.2197  0.2209  0.1865
19679W        W36526   1.784  10.147   5.535  0.0939  0.0391 -0.0729
19680W        W36527  14.051   3.035   2.048  0.1645  0.0982 -0.0605
19681W        W36528  14.268   0.054  14.270  0.1701 -0.1575 -0.3549
19682W        W36529   8.804  11.884  11.910  0.2100 -0.1082  0.0569
19683W        W36530   4.660   2.417   3.708 -0.2771 -0.0384 -0.1844
19684W        W36531  12.052   5.353   4.452 -0.0597 -0.4186 -0.1281
19685W        W36532   9.441  10.013  11.978  0.1286  0.0532 -0.1725
19686W        W36533  16.292   6.937   4.451  0.1901 -0.2475 -0.1359
19687W        W36534   3.885  18.326   1.818  0.2953 -0.1950 -0.1026
19688W        W36535   5.485   0.030   2.144 -0.2153 -0.1498  0.0417
19689W        W36536  17.571   9.557  13.269  0.0288  0.1581  0.3081
19690W        W36537  11.025   0.479  16.306 -0.4789  0.3227  0.0422
19691W        W36538   2.174   6.326  11.819  0.0401 -0.3865  0.1306
19692W        W36539  13.276   6.016  16.001 -0.2106  0.0881 -0.2818
19693W        W36540   7.430   5.405   5.871  0.3451  0.0576 -0.3024
19694W        W36541   8.691   7.214   1.934 -0.0751  0.0517 -0.1027
19695W        W36542   6.616  13.417   3.436 -0.1003  0.0552 -0.0186
19696W        W36543  10.125  13.929   4.960  0.2111  0.0673  0.3092
19697W        W36544  18.187  17.395   4.623 -0.0677 -0.1991 -0.0817
19698W        W36545  16.314  11.215  13.574 -0.0142 -0.1488  0.1361
19699W        W36546  12.758   6.416  13.693  0.1379  0.2333 -0.1248
19700W        W36547   3.098  12.413   4.723  0.0605 -0.3629  0.1186
19701W        W36548   4.504   1.367   1.574 -0.0713 -0.0730 -0.2032
19702W        W36549  11.695   0.258  15.060  0.1532  0.0343  0.0789
19703W        W36550  11.888  17.490   3.222  0.1883  0.0770 -0.1909
19704W        W36551   5.843   5.842   5.197  0.0193 -0.3127 -0.1318
19705W        W36552   7.810   2.112  14.314  0.1516 -0.1217 -0.0129
19706W        W36553   8.145   1.633  15.620 -0.0992 -0.1898  0.0179
19707W        W36554   3.649  13.471   0.863  0.0412  0.3072  0.2304
19708W        W36555  14.347  13.501   4.224  0.0678 -0.1506 -0.1704
19709W        W36556   3.264  15.573   4.471 -0.1167 -0.2589  0.0189
19710W        W36557  17.441  17.731   3.234 -0.1034  0.0976  0.0371
19711W        W36558  10.961  14.807  11.954 -0.1265 -0.1574 -0.2282
19712W        W36559   8.185  16.508   5.429  0.2508 -0.1262  0.0807
19713W        W36560   3.083  10.365  12.133 -0.2600 -0.0315  0.2476
19714W        W36561   9.838   4.417  15.075 -0.1678  0.1597 -0.2143
19715W        W36562   4.521   8.141  14.398 -0.0149  0.3420  0.1386
19716W        W36563   5.794  11.101   3.430 -0.1999  0.0653  0.2237
19717W        W36564   6.602  17.439  11.900 -0.0609  0.2243  0.2549
19718W        W36565  17.164   4.509  15.178  0.1298 -0.1007 -0.6912
19719W        W36566   8.401  12.951   4.147  0.0228  0.5318 -0.2107
19720W        W36567  12.119  14.931   1.851  0.1448 -0.0969 -0.1843
19721W        W36568   0.844   6.002  15.468 -0.0843  0.1511 -0.0149
19722W        W36569  15.793  10.965   3.758 -0.0933 -0.0550 -0.1379
19723W        W36570   0.339   1.493   2.106  0.2619  0.2030 -0.0324
19724W        W36571   6.925  11.554   3.794  0.0764 -0.1584  0.0622
19725W        W36572  11.573  10.616  13.576  0.1188 -0.1952 -0.2204
19726W        W36573   6.710   2.899  12.441  0.0200 -0.2384  0.0447
19727W        W36574   9.653   9.490   0.636  0.1722  0.0709 -0.1704
19728W        W36575   1.877  17.022  12.466 -0.3422 -0.0881 -0.0867
19729W        W36576   4.013  14.618  13.152 -0.0530 -0.2532 -0.2248
19730W        W36577   5.450   3.179  12.948  0.2205  0.1318 -0.0592
19731W        W36578  15.199   5.918   1.597  0.1252  0.0964  0.2531
19732W        W36579   9.836   8.982  16.271 -0.1558 -0.1604 -0.2059
19733W        W36580   8.183  18.158   0.470 -0.1103  0.2237  0.1506
19734W        W36581   5.487  11.705   5.057 -0.4483  0.1504 -0.4355
19735W        W36582   1.235  15.307   4.042 -0.0133  0.4595 -0.2004
19736W        W36583  14.292  11.712   5.816  0.0930  0.1473  0.0520
19737W        W36584   0.442  12.373  12.289 -0.0057 -0.1050 -0.0337
19738W        W36585   0.272  14.530  14.208 -0.1622 -0.1439  0.0394
19739W        W36586   1.131  18.186   5.071  0.3181  0.0292  0.2580
19740W        W36587   7.525  15.468  16.216 -0.1013  0.0520  0.0413
19741W        W36588   5.849   8.580  16.272 -0.0394  0.2202  0.1741
19742W        W36589  15.645  14.731   3.695 -0.1415  0.1355 -0.3459
19743W        W36590   0.799   7.409  14.294 -0.1273 -0.1669  0.0473
19744W        W36591  10.735   5.092   3.065  0.1507  0.1086  0.1731
19745W        W36592   1.891   8.939  14.003  0.0125 -0.1714  0.0524
19746W        W36593   2.819  14.347   1.050  0.0161  0.1748  0.3309
19747W        W36594   4.527   9.370   5.981  0.3302  0.0221  0.2692
19748W        W36595   6.094  10.666   4.791 -0.3527 -0.0570 -0.3036
19749W        W36596   9.891  15.314  13.502 -0.0128 -0.0745  0.0151
19750W        W36597  18.151  12.253  11.917  0.1727 -0.2283  0.1277
19751W        W36598   0.211   3.348  14.478 -0.0176  0.3467  0.2006
19752W        W36599   6.723   5.006   1.231 -0.0078  0.2602 -0.1322
19753W        W36600   5.142   2.992  12.535  0.1643  0.0913  0.0189
19754W        W36601  10.727  16.712  11.122 -0.0357  0.1195 -0.2717
19755W        W36602  17.422   3.915  14.394  0.0968  0.1015  0.0026
19756W        W36603   1.781   9.416  14.035 -0.1875 -0.3377  0.0470
19757W        W36604  15.096   5.641   2.931  0.1445 -0.2935  0.1300
19758W        W36605   3.674  11.639   5.521  0.3058 -0.1976  0.3460
19759W        W36606  17.797   9.684   3.887  0.1917  0.0209 -0.3124
19760W        W36607  10.832   2.989  14.578 -0.0537  0.3270  0.1542
19761W        W36608   0.174  15.610   2.990 -0.0720  0.1703  0.3418
19762W        W36609  18.347  10.313  14.110 -0.0050 -0.2884  0.2144
19763W        W36610   9.367   8.672  12.105  0.0245 -0.1463  0.0681
19764W        W36611  17.779  15.249  12.775 -0.4759 -0.0937 -0.1434
19765W        W36612  17.455  12.785   4.754  0.1064 -0.0968 -0.0226
19766W        W36613  12.350   9.524   3.153 -0.0385  0.3004 -0.0218
19767W        W36614  12.861  11.320  13.250  0.1996  0.1365 -0.0328
19768W        W36615   0.505  10.503   6.129 -0.2580 -0.0558  0.3070
19769W        W36616  10.985   4.545  11.710 -0.2568 -0.1311 -0.1886
19770W        W36617  16.966  12.925   5.038 -0.5267  0.3346 -0.0315
19771W        W36618   2.533  13.544   2.815  0.1285  0.0669  0.1015
19772W        W36619   3.080   7.101  10.017  0.1044 -0.0054  0.1833
19773W        W36620  13.625  15.955  15.790  0.0084  0.0708  0.2456
19774W        W36621  15.837   8.507  10.807  0.0506 -0.3584 -0.3552
19775W        W36622  16.013   7.419   3.946  0.1801  0.0906  0.0167
19776W        W36623  16.464  12.940  15.450  0.3474  0.1793 -0.1097
19777W        W36624  15.498  12.103   5.135  0.2257 -0.1005 -0.1986
19778W        W36625  15.326  10.566  14.125  0.1216  0.1295 -0.0564
19779W        W36626  13.285  14.209   3.403 -0.0076 -0.1112 -0.1117
19780W        W36627   4.834  11.837   0.670 -0.0102  0.0992 -0.2265
19781W        W36628   5.714   8.456   1.938 -0.0272  0.0997 -0.1695
19782W        W36629   0.535  12.676  14.702 -0.2324  0.0758 -0.0712
19783W        W36630   6.425  14.000  14.399  0.5407 -0.1161 -0.0397
19784W        W36631   4.078   5.454   3.906  0.0847 -0.2968 -0.3067
19785W        W36632  14.745   6.517   3.795  0.0200  0.3773 -0.0591
19786W        W36633   8.722  14.034  15.779 -0.3345  0.0219  0.0565
19787W        W36634  13.904   4.701  15.591 -0.0371 -0.0861 -0.4098
19788W        W36635   9.031   4.088  13.523  0.1259 -0.0055 -0.0855
19789W        W36636   3.838  14.841   3.436  0.0960 -0.0367 -0.0759
19790W        W36637   6.296  16.790   1.383 -0.0644  0.0686  0.0908
19791W        W36638  16.594  13.850  12.778 -0.0340 -0.0775 -0.2684
19792W        W36639  13.428   9.862   2.002 -0.1852 -0.1752 -0.0691
19793W        W36640   4.985   1.461   2.297  0.0293 -0.3438  0.1586
19794W        W36641  16.533   1.823  15.165 -0.1006  0.1293 -0.2466
19795W        W36642  13.645  11.856  14.831 -0.1432  0.0991  0.0539
19796W        W36643  10.292  14.556   0.396 -0.1658 -0.0193 -0.0579
19797W        W36644  15.239   2.306  16.149 -0.2435  0.0115 -0.0702
19798W        W36645   6.027   0.720   3.515 -0.0961  0.0097 -0.2273
19799W        W36646  14.353   4.159   5.000  0.0661  0.1721  0.0003
19800W        W36647   4.540   3.953  15.016 -0.4938 -0.0976 -0.2601
19801W        W36648   3.718  16.357  15.590  0.1347 -0.1327  0.0134
19802W        W36649  16.074   5.117  16.120  0.2263  0.1683 -0.0329
19803W        W36650  11.649  16.706   1.215 -0.1410 -0.0191  0.1116
19804W        W36651  14.480   5.185  11.641 -0.2499  0.4522 -0.0518
19805W        W36652   5.889  17.532   2.488  0.0573  0.3596  0.3216
19806W        W36653  13.805   0.885   4.410  0.2515 -0.4903 -0.0160
19807W        W36654  14.782   2.864   2.707 -0.2036 -0.4162  0.1421
19808W        W36655  11.530  15.738   1.114 -0.1798 -0.1052  0.1944
19809W        W36656   8.150   5.927  14.814  0.0067  0.0150 -0.0468
19810W        W36657  10.599   0.858   2.592  0.1156 -0.2785  0.0353
19811W        W36658  13.322   1.049   1.165 -0.0682  0.1563  0.0308
19812W        W36659  14.452   7.865   2.369 -0.3326  0.0934 -0.0353
19813W        W36660  13.049  12.685   1.241 -0.0753 -0.1515  0.0146
19814W        W36661   9.034   6.269  11.007  0.2346  0.0549  0.0922
19815W        W36662  12.374  17.754   0.695 -0.1509  0.0514  0.1126
19816W        W36663   1.921  15.008  14.434  0.1554  0.1233 -0.0254
19817W        W36664  16.333   2.265  15.409 -0.0448  0.0988 -0.1029
19818W        W36665  10.029   1.803   0.979 -0.2257  0.2672 -0.0161
19819W        W36666  16.007   2.601   3.679 -0.3766 -0.1355  0.2531
19820W        W36667  15.717  16.278  12.421  0.3350 -0.2036 -0.0129
19821W        W36668  12.582  11.557   5.325  0.0445 -0.0215  0.2371
19822W        W36669  11.169  12.063   3.401  0.3148  0.0268  0.1700
19823W        W36670  18.232   6.735  15.229  0.1443 -0.0662  0.0431
19824W        W36671  11.496   8.201  13.931  0.3245  0.0979 -0.0307
19825W        W36672   4.284  15.535   4.001  0.2571  0.1437  0.0464
19826W        W36673  15.128  17.673  13.441  0.5792 -0.1118 -0.1152
19827W        W36674  17.030   1.025   2.806  0.3132  0.0061 -0.1189
19828W        W36675  13.364  17.298   1.619  0.2622  0.2070  0.0167
19829W        W36676  15.697  15.995   3.439 -0.0023  0.0490 -0.2802
19830W        W36677   7.945   9.295  11.930  0.1464  0.0465 -0.2538
19831W        W36678  17.366   1.946   5.111 -0.0099  0.1373  0.0400
19832W        W36679  15.156   3.760  15.010 -0.3845  0.0603  0.1250
19833W        W36680  15.636  14.939   5.858 -0.1117 -0.0601  0.0460
19834W        W36681   2.417   4.215   2.750  0.2134 -0.0243  0.1506
19835W        W36682  14.971  17.894   1.161  0.3685 -0.1724  0.1486
19836W        W36683   3.930  17.153   0.432 -0.0950  0.1961 -0.0606
19837W        W36684  10.032   0.899   4.623  0.1054  0.0112  0.2008
19838W        W36685  16.541   0.414  14.974  0.0307  0.0351 -0.2219
19839W        W36686   6.782  12.165   4.534  0.2444 -0.1767 -0.0257
19840W        W36687  16.611   9.247  12.138 -0.1700 -0.1708 -0.0300
19841W        W36688  18.155   7.178  15.400  0.0207 -0.1312 -0.0560
19842W        W36689   8.986  14.719   4.353 -0.0706 -0.0489 -0.1260
19843W        W36690   3.178   2.009  11.738  0.3017  0.1163  0.2225
19844W        W36691  12.423  16.852   3.714  0.2771  0.3965 -0.4088
19845W        W36692  14.936   9.567   3.166  0.1220 -0.0629  0.0254
19846W        W36693  14.796   3.364  13.339  0.0632  0.0971  0.0870
19847W        W36694   3.878   1.088   0.587 -0.0087  0.1764 -0.3057
19848W        W36695  11.887   7.675   4.142  0.0631 -0.1676  0.0130
19849W        W36696   2.194   5.740   0.814  0.4537  0.0199 -0.0110
19850W        W36697   5.388   8.911   4.146 -0.0124  0.0121 -0.1554
19851W        W36698   6.900   4.868   2.313  0.2591 -0.1962 -0.0884
19852W        W36699  17.438   7.393   1.013  0.1949 -0.1359  0.0847
19853W        W36700   5.151   3.045  15.595  0.1022 -0.2106 -0.0001
19854W        W36701  11.279   4.102  11.790  0.0358 -0.1011 -0.1684
19855W        W36702  10.498   6.941   0.241 -0.0616  0.1482  0.0413
19856W        W36703  15.665   3.473   2.793  0.0825 -0.0275  0.1945
19857W        W36704  11.230   9.761  10.924  0.1368  0.1013 -0.1745
19858W        W36705   4.926  11.257   2.888  0.0246 -0.1099 -0.1423
19859W        W36706  12.983   9.889  13.285 -0.0273 -0.0194  0.1165
19860W        W36707  15.708   4.221  16.012  0.1630 -0.2396 -0.2274
19861W        W36708  15.356  16.656   2.264 -0.3373  0.3551 -0.0201
19862W        W36709   2.731   9.401  15.347 -0.1267 -0.2031 -0.3420
19863W        W36710   1.286  12.721  16.117  0.0450  0.3293  0.3995
19864W        W36711   6.936   7.085   0.350 -0.1066 -0.0254  0.0234
19865W        W36712   3.403  16.095   1.582  0.0845  0.0771 -0.0670
19866W        W36713  16.346   5.955  13.957 -0.4840  0.0804  0.1605
19867W        W36714   7.289   4.549   2.083  0.0581 -0.1658 -0.1052
19868W        W36715   1.850   3.741  12.653  0.1067 -0.1267  0.2471
19869W        W36716   0.607   6.453  11.606  0.1734  0.1021 -0.6117
19870W        W36717  15.847  15.203  12.683  0.3282 -0.2334 -0.4747
19871W        W36718  16.779   6.207  11.962  0.0302 -0.1682 -0.0545
19872W        W36719  14.253  14.742   2.528  0.3463 -0.0666 -0.1014
19873W        W36720   6.891   1.609   3.921 -0.3003 -0.1955  0.1505
19874W        W36721  10.134   0.244  15.283 -0.0748  0.1454 -0.1723
19875W        W36722   4.680  10.049  13.365  0.1804  0.1496  0.2563
19876W        W36723  12.895  17.559   5.659 -0.0238  0.1387  0.2434
19877W        W36724  17.466  11.325  13.892 -0.1894  0.0010  0.0607
19878W        W36725  10.769   4.291  14.061  0.2145  0.1996 -0.1229
19879W        W36726   7.000  10.033   1.939 -0.1388 -0.0371 -0.1367
19880W        W36727  17.625   3.862   0.478 -0.1046 -0.0719  0.1535
19881W        W36728   4.702  17.989   1.708  0.0754 -0.2252 -0.1777
19882W        W36729   0.800  18.409   0.408  0.1902 -0.0385  0.1439
19883W        W36730   3.369  13.087   0.979  0.1875  0.0340  0.1220
19884W        W36731  14.101   0.575   4.184 -0.1403 -0.0119 -0.0647
19885W        W36732  10.643   2.230   2.689 -0.0024  0.1621  0.0542
19886W        W36733   6.341   6.631  15.844 -0.1766 -0.2953 -0.0961
19887W        W36734  17.036  15.577  14.481  0.1145 -0.1942 -0.0854
19888W        W36735   3.521  14.205   5.640 -0.0474 -0.1007  0.0938
19889W        W36736  13.635   9.609   1.546 -0.2219 -0.1681  0.2389
19890W        W36737   2.966   0.542  15.209  0.1863  0.0939  0.2479
19891W        W36738  10.245  18.353  11.916 -0.0769  0.0071  0.1821
19892W        W36739   8.951   6.002   0.117  0.0331 -0.0464  0.0440
19893W        W36740  14.521  14.267  15.358 -0.1628 -0.1729  0.0995
19894W        W36741  18.348  13.716   1.491  0.3034  0.0086  0.1577
19895W        W36742   0.099   1.279   0.609  0.1009  0.0474  0.0011
19896W        W36743  16.892   4.614  13.439 -0.0513 -0.1406 -0.0713
19897W        W36744   0.000   6.360  14.865  0.4021  0.1783 -0.2826
19898W        W36745   3.229   2.246   1.880  0.1892  0.0499  0.1077
19899W        W36746  13.792   0.545  15.769 -0.1549 -0.0152  0.0075
19900W        W36747  10.258   9.897   4.664 -0.3132  0.3132 -0.1940
19901W        W36748   8.948   6.321   5.931 -0.0704  0.0355  0.1654
19902W        W36749  17.067  13.482   3.599  0.1836 -0.0132  0.0524
19903W        W36750  12.846   7.623   3.993  0.0523  0.2608  0.0228
19904W        W36751  15.880   2.490   1.221 -0.2663  0.1092  0.0457
19905W        W36752  18.166   8.956  15.692 -0.1087  0.1389  0.1321
19906W        W36753  16.428   2.377   3.954 -0.2384 -0.0227 -0.0251
19907W        W36754   6.629   6.830  12.649 -0.0691 -0.3007 -0.1897
19908W        W36755   1.724  15.098   0.851 -0.0819  0.2768 -0.2072
19909W        W36756  12.730   1.853   2.851  0.1443 -0.0653  0.2125
19910W        W36757   5.866   1.360   0.373 -0.1406  0.0984 -0.2387
19911W        W36758  10.117  15.865  12.862 -0.0312 -0.2276 -0.3662
19912W        W36759  14.715   8.716   1.856  0.4325  0.0792  0.1605
19913W        W36760   1.429   3.232   3.651 -0.1286 -0.2157 -0.1271
19914W        W36761   4.243   4.838   0.233 -0.0828  0.0142 -0.0009
19915W        W36762   9.194   4.707   4.706 -0.2435  0.3177  0.2652
19916W        W36763  15.916   6.072  10.779  0.0629  0.1845  0.1606
19917W        W36764   8.633   5.847   1.038  0.0475 -0.1049  0.1395
19918W        W36765  10.077   7.808   3.332 -0.3585 -0.0066  0.0530
19919W        W36766  17.691   3.363   0.432 -0.0881  0.0986  0.1015
19920W        W36767   4.929  15.562   0.113 -0.0770 -0.0147 -0.0422
19921W        W36768   5.973  10.490   2.143  0.0701  0.1539 -0.1129
19922W        W36769   5.782  17.122   2.181 -0.0524 -0.0504 -0.1173
19923W        W36770  14.062  15.059   1.691 -0.0504  0.2436 -0.0175
19924W        W36771   0.058   8.925  16.170 -0.2180 -0.0345  0.0165
19925W        W36772   8.259   0.868  12.272  0.0133 -0.2241  0.0417
19926W        W36773  18.115   3.578   1.135  0.0537 -0.1477  0.1622
19927W        W36774   3.363  15.259   0.400  0.0036  0.1822  0.0391
19928W        W36775   9.541   0.793  11.924  0.2021 -0.1231 -0.1826
19929W        W36776   3.802   0.984  13.696  0.1695  0.0901  0.1611
19930W        W36777   8.729   4.616  11.744  0.2107  0.0254  0.4137
19931W        W36778  10.567   0.542   0.929 -0.0263 -0.0029  0.0396
19932W        W36779  16.276   5.598  14.861 -0.1606 -0.0770  0.2586
19933W        W36780   8.628   8.297  16.128 -0.0725 -0.1183 -0.1580
19934W        W36781  15.508   3.006   2.029 -0.0886  0.2779 -0.3245
19935W        W36782   3.005  17.403  15.352  0.2470 -0.3999  0.4855
19936W        W36783   1.985   5.312   3.812  0.0970 -0.1171  0.2669
19937W        W36784  15.078  12.128   5.434  0.0515 -0.0169 -0.0296
19938W        W36785  14.719   0.879   5.806 -0.4720 -0.0751  0.2185
19939W        W36786   6.711  13.807   4.332  0.0617 -0.0597 -0.3421
19940W        W36787   3.248  18.030   5.886 -0.1151  0.0708 -0.0523
19941W        W36788  12.272  14.474   0.587 -0.0479 -0.0077  0.3024
19942W        W36789   2.706   6.418  16.167 -0.5463 -0.0552  0.0963
19943W        W36790  14.136   7.236  16.098 -0.0860  0.0637 -0.0708
19944W        W36791  17.857   9.429   2.891  0.1835 -0.1340 -0.2405
19945W        W36792   5.746   1.820   3.995 -0.0623  0.3573 -0.0334
19946W        W36793   1.016  14.527  14.115  0.0454 -0.1117 -0.0034
19947W        W36794   9.841  18.344  13.240  0.0930  0.2176  0.1865
19948W        W36795  16.865   6.159   2.813  0.0354 -0.0543  0.4597
19949W        W36796  14.331   6.978   1.984 -0.0099 -0.0806  0.1057
19950W        W36797   9.379  16.915   4.446 -0.2074  0.1359  0.1460
19951W        W36798  14.093   1.035  11.669 -0.1991  0.1923  0.2895
19952W        W36799   4.464  13.022  14.725 -0.0740  0.4063  0.0740
19953W        W36800  16.864   5.713   0.094 -0.0721  0.1623  0.0733
19954W        W36801  14.931   4.111  12.599 -0.0886  0.2371 -0.1129
19955W        W36802  16.276   8.792   1.344  0.0751  0.0511  0.1804
19956W        W36803   2.284  14.722  14.184 -0.0453  0.0670  0.0523
19957W        W36804  15.421   1.922  11.648  0.2170 -0.1500 -0.2527
19958W        W36805   3.323  13.870  14.297  0.0005  0.0022 -0.2018
19959W        W36806  17.165   0.841   1.622 -0.2033  0.2810  0.2013
19960W        W36807   2.484  12.959   4.519 -0.0310 -0.1333  0.2349
19961W        W36808   9.074   0.589  15.724 -0.1593  0.0424  0.2136
19962W        W36809   9.149  14.574  15.634  0.1737  0.0988  0.0153
19963W        W36810   4.032  12.627  15.479 -0.0361  0.0067  0.0637
19964W        W36811  18.215  15.714  11.496 -0.1108 -0.2354 -0.2848
19965W        W36812  17.141  11.408   2.914  0.2283  0.0888  0.2798
19966W        W36813  16.617   7.559   2.162  0.0236 -0.1920 -0.4165
19967W        W36814   2.001   3.871   0.926 -0.0483 -0.0617 -0.0072
19968W        W36815   9.632   6.755  11.532  0.4731 -0.0501  0.4095
19969W        W36816  16.831   1.750  12.727 -0.1532 -0.3584 -0.1236
19970W        W36817   9.235   8.098  13.082  0.2942 -0.0891 -0.3415
19971W        W36818   5.933   2.866  14.019  0.2643  0.2699  0.1940
19972W        W36819  13.286  10.371   2.346  0.2666 -0.2289 -0.3951
19973W        W36820   9.019   9.772   1.143 -0.3359  0.3285  0.1590
19974W        W36821   2.103   9.131  15.892  0.1241 -0.1514 -0.0388
19975W        W36822   4.688  17.956   0.305 -0.1838  0.0880  0.0451
19976W        W36823   2.249  15.061  15.390  0.3064  0.0577 -0.0242
19977W        W36824  11.726   4.923  12.920  0.0432  0.0976 -0.0118
19978W        W36825   7.796   4.705  12.186 -0.1474 -0.2346  0.1074
19979W        W36826  17.369   5.146   0.124 -0.0664 -0.0952 -0.2149
19980W        W36827  12.040  17.276  14.242 -0.1565  0.1806 -0.0008
19981W        W36828  14.705   9.642  14.391 -0.0504 -0.0399  0.1844
19982W        W36829   5.039   7.989  15.168  0.4714  0.2046 -0.4618
19983W        W36830   7.240   6.837  12.538 -0.2347 -0.0515  0.1625
19984W        W36831  10.179  12.428   3.233 -0.1996  0.0169  0.0543
19985W        W36832   9.720  15.841  15.788 -0.0797  0.2764 -0.2504
19986W        W36833  10.146   5.681   0.426  0.1034  0.1905 -0.2587
19987W        W36834   1.668  18.220  14.491  0.0686 -0.0286  0.1247
19988W        W36835   1.031  17.145  12.107 -0.1844 -0.1640  0.0519
19989W        W36836  15.612   3.221   0.039 -0.2297  0.0731  0.0633
19990W        W36837  12.743  15.100  15.167  0.0263 -0.1206  0.0379
19991W        W36838   2.468   0.535  11.394 -0.0727  0.0770 -0.3511
19992W        W36839   7.518   2.731   5.495 -0.0082  0.1474 -0.0570
19993W        W36840   3.470   7.504  15.259  0.1932  0.0548  0.0276
19994W        W36841  11.182  12.355   2.234  0.0808  0.0039 -0.0754
19995W        W36842   1.843  13.736  14.746  0.3674 -0.0015 -0.3079
19996W        W36843   3.316   0.531   5.557  0.2212 -0.2466 -0.1424
19997W        W36844  14.257   3.771  15.890 -0.2161  0.0363 -0.1198
19998W        W36845  10.035  10.183   4.247 -0.3563  0.3067 -0.2506
19999W        W36846   7.642   9.761  12.324  0.0747  0.1684 -0.1927
20000W        W36847  16.598  15.314   1.600 -0.0668  0.2063 -0.0808
20001W        W36848  10.252  14.719  14.037 -0.5457 -0.1895 -0.0117
20002W        W36849   7.686   6.572   0.977 -0.1108 -0.1126  0.1775
20003W        W36850   5.347  10.303   2.891  0.2080  0.0223 -0.1316
20004W        W36851  12.438   3.403   4.893 -0.1055  0.0418 -0.0732
20005W        W36852   1.015   5.152  14.385  0.1708  0.2731 -0.1318
20006W        W36853   8.502   7.452   2.830  0.3464  0.0774 -0.0672
20007W        W36854   5.014   4.671  11.626  0.1906 -0.1982  0.0163
20008W        W36855  12.951  15.618   1.032 -0.0346 -0.1708  0.1800
20009W        W36856  13.900   4.507  12.188  0.1630  0.0575 -0.1982
20010W        W36857   8.156   0.886   4.102 -0.1017  0.1569  0.0640
20011W        W36858  10.969   5.862   0.726  0.0336 -0.1887  0.0044
20012W        W36859   3.028   7.750  11.418 -0.0344  0.2282 -0.2790
20013W        W36860   7.450   2.175   1.359  0.2552  0.0124 -0.0123
20014W        W36861   4.930   3.705  15.985  0.3899  0.0731 -0.0809
20015W        W36862   0.275   2.397   5.103  0.0490 -0.1899  0.0066
20016W        W36863  10.291   4.407   1.524  0.3736 -0.1738  0.2163
20017W        W36864  18.147   9.235  13.775 -0.0156  0.0540  0.4257
20018W        W36865   2.198  16.949   2.256 -0.4046 -0.0139 -0.0565
20019W        W36866  12.926  11.080  14.045 -0.4509  0.2494  0.0664
20020W        W36867   5.240  15.483   4.577 -0.0449  0.0722  0.3498
20021W        W36868  15.987   4.277   5.322 -0.1207 -0.0915 -0.2574
20022W        W36869   7.706  13.687   0.958 -0.1911 -0.2720  0.1406
20023W        W36870   2.864  10.584  12.553 -0.3976 -0.0140 -0.1401
20024W        W36871  17.334   3.673  14.859  0.1283  0.2109 -0.2510
20025W        W36872  16.665   0.613   3.539 -0.1369 -0.1901  0.0371
20026W        W36873  15.233  11.454  15.677 -0.1143  0.3213  0.0483
20027W        W36874   0.452   9.115  13.100  0.4301 -0.1586 -0.2622
20028W        W36875   3.059   9.456  15.894  0.2399 -0.0553  0.1218
20029W        W36876  12.510   7.122   2.752  0.0669  0.0096  0.0413
20030W        W36877  12.568  10.167  13.343  0.0157  0.2306 -0.1823
20031W        W36878  14.562   1.982  12.892  0.2759 -0.0104  0.3845
20032W        W36879   0.250  18.041  11.691  0.0686  0.0672 -0.3622
20033W        W36880   3.334   5.458   0.753  0.0264  0.1167 -0.0611
20034W        W36881  17.252  11.500   6.059  0.1156 -0.2946 -0.0618
20035W        W36882   1.996   0.260  16.065  0.0125 -0.1092  0.0620
20036W        W36883   3.603  17.167   4.491 -0.0442  0.2750  0.0152
20037W        W36884  13.643  12.939  11.608  0.2520  0.2417  0.1664
20038W        W36885  11.579   8.699   2.779 -0.4289  0.2151 -0.2131
20039W        W36886   9.364   6.880   1.580  0.1525  0.1173 -0.2117
20040W        W36887  11.858   3.002   2.242 -0.0674  0.1154  0.1645
20041W        W36888   8.581   1.237   3.960 -0.2003 -0.2734 -0.0236
20042W        W36889  12.829   1.656  12.859  0.0564  0.0870 -0.2021
20043W        W36890   5.503  14.752  15.393 -0.1194  0.1682  0.1102
20044W        W36891  10.765  16.073   3.620 -0.2691  0.0392 -0.0036
20045W        W36892  17.782   1.591  15.367 -0.1634 -0.0932  0.0595
20046W        W36893   9.843   4.724   3.381  0.0425  0.2778  0.1828
20047W        W36894   7.238  16.401   2.507 -0.0561  0.0855  0.1307
20048W        W36895  18.096   5.877   2.374 -0.0942  0.1755 -0.1528
20049W        W36896   2.329   9.399  13.208  0.0621 -0.3147  0.0721
20050W        W36897   1.403   8.766  14.625 -0.0960 -0.2694  0.0091
20051W        W36898  14.121  15.533   4.335  0.2506 -0.3615  0.1451
20052W        W36899   2.389  10.729  15.143  0.0468  0.0579  0.1170
20053W        W36900   7.201  17.680   4.771 -0.1771 -0.2511  0.1479
20054W        W36901  15.723   0.318   2.436  0.2637 -0.1748  0.2439
20055W        W36902   5.775   6.811   1.571 -0.1167  0.1090  0.3206
20056W        W36903   0.351   0.615  15.475 -0.0931  0.3212  0.0022
20057W        W36904   3.453   6.104  14.522  0.1835  0.2224  0.0182
20058W        W36905  15.356  10.182  15.071  0.1246 -0.4504  0.2143
20059W        W36906   2.252   5.618   5.130  0.0057 -0.1719  0.0611
20060W        W36907  17.237  18.415   5.204  0.0540  0.3506  0.2249
20061W        W36908   7.267   3.372   4.495  0.1269 -0.0362  0.2043
20062W        W36909   5.512   1.547   4.477 -0.0589  0.2865  0.2608
20063W        W36910  11.269   1.446   1.442  0.0574 -0.0484 -0.1991
20064W        W36911   9.114   6.869   1.980 -0.0615 -0.1779 -0.0186
20065W        W36912   1.917   0.596  12.261  0.2772  0.0049 -0.0307
20066W        W36913   4.118   4.406  13.615 -0.1309  0.0572  0.3050
20067W        W36914  15.855  10.304   2.812 -0.2897  0.0918 -0.0194
20068W        W36915   0.949  17.637   4.907  0.2520 -0.0739 -0.1647
20069W        W36916  10.329  13.167   4.365  0.1296  0.1983 -0.2150
20070W        W36917   2.288  12.747  12.591  0.0725 -0.0740  0.3563
20071W        W36918   0.000  13.528   2.982  0.1327 -0.2214  0.0531
20072W        W36919  12.805  13.317  14.966 -0.3510  0.2000  0.2534
20073W        W36920   5.076  15.857  13.334 -0.0671 -0.0847  0.1172
20074W        W36921  14.963   9.334  12.144 -0.1279  0.0230 -0.2753
20075W        W36922  12.084   3.221   2.720 -0.0628  0.0064  0.2720
20076W        W36923   1.561  13.656  13.925  0.1067  0.0411 -0.3493
20077W        W36924  13.716   6.304   3.503  0.1930 -0.2315  0.0431
20078W        W36925   2.201   7.205   3.987  0.1466  0.0749 -0.2167
20079W        W36926   5.397   7.531  15.870  0.0363  0.0591  0.0119
20080W        W36927  12.851   8.314  14.386  0.1736 -0.2162 -0.1258
20081W        W36928  18.333   5.926   1.479 -0.2021  0.0971  0.2216
20082W        W36929   6.431   0.651  12.145 -0.0495 -0.0268 -0.3666
20083W        W36930   8.913   7.925   2.235 -0.2547 -0.0422 -0.0630
20084W        W36931  12.911   2.235  11.541  0.1774  0.0902  0.2478
20085W        W36932   2.834   9.412  12.390  0.2467  0.2477 -0.0876
20086W        W36933   5.229  10.600   5.730 -0.4384 -0.1085  0.2138
20087W        W36934  13.978   8.316   1.640  0.2047  0.1082  0.3329
20088W        W36935  11.245  13.138   1.391 -0.0674  0.0183  0.1070
20089W        W36936  14.926   1.664   3.134  0.0816 -0.3326  0.3028
20090W        W36937  12.605   6.026   5.683  0.1026 -0.0873 -0.1775
20091W        W36938   7.522  11.474  13.925 -0.1388  0.1226  0.2921
20092W        W36939  10.057  12.758  13.174 -0.0385 -0.3205  0.0123
20093W        W36940  11.398  16.957   0.829 -0.0919  0.1469  0.3307
20094W        W36941  17.304   7.852  13.372  0.0238 -0.3515  0.1277
20095W        W36942  18.004   4.843  12.142  0.4710 -0.1800 -0.1137
20096W        W36943   7.526   7.295   1.126 -0.0146 -0.1488 -0.0326
20097W        W36944   0.400  15.288   5.615  0.1208 -0.2601 -0.1692
20098W        W36945   7.075  10.570   2.009  0.0314 -0.2275  0.1681
20099W        W36946  18.389  18.243   4.103  0.0328  0.2172  0.0512
20100W        W36947   7.195  11.581  14.322  0.1012  0.0364  0.0101
20101W        W36948   6.329   5.157  15.157 -0.2151 -0.0768 -0.2271
20102W        W36949  14.373  13.395   1.875 -0.0591  0.1733  0.0742
20103W        W36950  17.394   5.775   0.221  0.0038 -0.0677  0.0272
20104W        W36951   3.474  15.335   0.902  0.2858  0.2268  0.0236
20105W        W36952   7.969   9.334   4.399 -0.0686 -0.0335 -0.1997
20106W        W36953  11.055   0.271  13.824  0.1580 -0.2196  0.0245
20107W        W36954   8.387  10.574   1.681 -0.2656  0.3374 -0.0043
20108W        W36955   5.232  12.991   1.958  0.1101 -0.1195  0.2851
20109W        W36956  12.163  16.662   1.068  0.0187  0.0542 -0.0275
20110W        W36957   7.545   7.229  15.600 -0.1707  0.1515  0.0042
20111W        W36958  12.100  15.816   0.075 -0.2704  0.2467  0.0878
20112W        W36959   4.295   7.901  15.852  0.2350 -0.0169 -0.1493
20113W        W36960  14.993  14.944  13.290  0.2058  0.0796  0.0752
20114W        W36961  12.776  10.953  15.031  0.0297  0.0155 -0.1897
20115W        W36962  12.308  14.612  15.817 -0.0483  0.1840 -0.1362
20116W        W36963  12.566  11.888  13.956 -0.0389  0.2529  0.4564
20117W        W36964   0.621   5.748   4.341 -0.3277 -0.1019 -0.1696
20118W        W36965   8.936   0.399  15.208  0.1016  0.0623  0.1456
20119W        W36966   9.172   5.586  12.703  0.0399 -0.0138 -0.0708
20120W        W36967  11.805   6.699   0.208 -0.0754 -0.0818  0.0064
20121W        W36968   8.589   5.960  14.589  0.0765 -0.1712 -0.0244
20122W        W36969   0.862   1.844   1.450  0.3194 -0.0776 -0.1329
20123W        W36970  15.579  10.956  13.882 -0.3056  0.2706 -0.1244
20124W        W36971   9.512  11.314  16.064  0.3160  0.2314 -0.0421
20125W        W36972  14.917  12.572   2.259 -0.0718 -0.0501  0.2642
20126W        W36973  15.735   2.127   4.909 -0.1035  0.1567  0.3063
20127W        W36974  15.128  14.857  12.254 -0.0998 -0.0410  0.0520
20128W        W36975  16.168  18.386   1.824  0.0010 -0.1183  0.2739
20129W        W36976   0.748  18.162  11.607  0.4738  0.1042 -0.2948
20130W        W36977  12.338  13.288   0.994  0.2074  0.2992  0.1437
20131W        W36978   5.595   4.173   0.414 -0.0141 -0.0369 -0.0287
20132W        W36979   4.287   0.396   5.199  0.2092 -0.2266  0.0135
20133W        W36980  17.229   8.834  15.774 -0.1698  0.3224  0.3136
20134W        W36981   5.127   1.210   4.382 -0.1958 -0.0973  0.2323
20135W        W36982   9.874  15.230   2.915  0.1470 -0.0365 -0.2362
20136W        W36983  15.991   8.578  11.817 -0.0933 -0.2011  0.4018
20137W        W36984   6.433   4.039  12.653  0.0676  0.2145 -0.0848
20138W        W36985   8.695  13.042   1.433 -0.2166 -0.3052  0.3768
20139W        W36986  14.202  17.213   0.156  0.1266 -0.0332 -0.2580
20140W        W36987  12.780  14.218  14.590 -0.1201  0.0105 -0.1899
20141W        W36988  17.229   6.390  13.478  0.0860  0.0618 -0.1471
20142W        W36989  15.186  14.602   3.841  0.0106 -0.1362 -0.1234
20143W        W36990   2.488  12.313  12.502  0.0439  0.1113 -0.0538
20144W        W36991   0.919   8.509   4.249  0.1818 -0.2838  0.1329
20145W        W36992   0.488  11.475   2.393  0.0441  0.2198 -0.1812
20146W        W36993  16.458   9.640  11.622 -0.2197 -0.3522 -0.0468
20147W        W36994   3.680   7.608   3.471  0.0405  0.1805 -0.1753
20148W        W36995  15.904  13.840  13.495 -0.1861 -0.0893  0.0246
20149W        W36996  10.544   9.674   0.002 -0.2574  0.1021 -0.1858
20150W        W36997  17.811   8.811  11.458  0.1655  0.3368  0.0507
20151W        W36998  15.040   0.605  15.286  0.0587  0.3158  0.1605
20152W        W36999   4.251   1.554  12.837 -0.2142 -0.0838  0.1001
20153W        W37000   6.719   0.326   2.861 -0.1598  0.2477 -0.2181
20154W        W37001   4.620  11.262  12.657  0.1194 -0.1291 -0.1184
20155W        W37002  16.311  10.315   1.269 -0.0076  0.0062  0.0407
20156W        W37003   1.327   7.260  12.596 -0.3844 -0.0177 -0.2145
20157W        W37004   7.947   3.918   4.224 -0.0602 -0.1418 -0.0314
20158W        W37005   8.460   2.468  14.853  0.0297  0.2162 -0.1311
20159W        W37006   6.780  11.082   3.087 -0.0895 -0.0397  0.0012
20160W        W37007   4.242  11.188   2.118 -0.6680 -0.0587 -0.0037
20161W        W37008   1.447   6.035   0.829  0.1604  0.1073  0.3819
20162W        W37009  10.777  10.623  12.464  0.0626  0.2811  0.0005
20163W        W37010  10.883  17.118   4.914  0.2654 -0.0006 -0.1538
20164W        W37011  11.051  11.646   0.848 -0.1946  0.1484  0.2829
20165W        W37012  11.050  16.388   2.005 -0.0600 -0.0146  0.1225
20166W        W37013   2.638   1.952  15.124 -0.0827  0.0806  0.1801
20167W        W37014  16.240  11.751   2.048 -0.4205  0.2425 -0.1573
20168W        W37015   9.643  10.201  14.746  0.3040 -0.1207  0.5034
20169W        W37016   5.251   4.565  11.087  0.1358 -0.1710 -0.1966
20170W        W37017  14.459  12.308   3.492 -0.1076  0.2313 -0.0235
20171W        W37018   8.311  12.844   1.255  0.2347  0.5079  0.1460
20172W        W37019  10.372   5.878  12.736 -0.2029  0.1049 -0.0291
20173W        W37020  18.196   6.908  16.131 -0.2846  0.4020 -0.2079
20174W        W37021  10.106  17.905  13.842  0.1804  0.0129  0.0894
20175W        W37022   3.874   9.286  10.676 -0.0999  0.2515 -0.0668
20176W        W37023   4.888   3.187   3.228 -0.0464 -0.3717 -0.0712
20177W        W37024   6.244  14.154   3.428 -0.0162  0.4679  0.1094
20178W        W37025   3.094   4.517   2.412  0.2467  0.1347 -0.3126
20179W        W37026   3.304  10.176   1.806  0.2363  0.2636 -0.0089
20180W        W37027   7.646  14.734   3.469 -0.1379  0.1028  0.1825
20181W        W37028   6.082   4.061   0.429  0.1286 -0.1462 -0.0242
20182W        W37029   1.196   9.283  12.410 -0.2002 -0.0122 -0.1288
20183W        W37030  15.321   9.148  12.460 -0.0137  0.1150 -0.2087
20184W        W37031  16.903   7.867   2.433 -0.4193 -0.3038 -0.1068
20185W        W37032  10.220   3.861   3.629 -0.1192  0.0469 -0.0091
20186W        W37033  17.662   3.371   1.751  0.0265 -0.0107 -0.1415
20187W        W37034  17.099  16.189   1.224 -0.2088  0.0643  0.3555
20188W        W37035   6.900  12.901   4.875  0.0409 -0.0132  0.2231
20189W        W37036   4.311   8.803   1.292  0.2456 -0.1746  0.0727
20190W        W37037   0.471   1.536  13.916  0.2478 -0.0712  0.2672
20191W        W37038   5.099   2.685  11.121 -0.0502  0.0477  0.0018
20192W        W37039   6.593   5.067  14.308 -0.1861 -0.0818 -0.0081
20193W        W37040  16.631   1.717  13.225 -0.0175 -0.0995  0.3464
20194W        W37041   0.030  13.298   1.275  0.1095  0.0770  0.0606
20195W        W37042   2.875  10.568   3.179 -0.0994 -0.2589 -0.0418
20196W        W37043   2.211   8.815   2.520 -0.0980  0.0174  0.0494
20197W        W37044   3.460  12.546   5.165  0.0800  0.0681  0.3294
20198W        W37045  17.733   3.097  12.162 -0.0548  0.0435  0.0341
20199W        W37046   2.440   1.098  13.974  0.2777  0.1290  0.3090
20200W        W37047   1.707   4.054   2.493 -0.0590  0.2364 -0.1744
20201W        W37048   2.779  16.602  12.681 -0.1405 -0.1870 -0.3495
20202W        W37049   1.137   4.543  12.736  0.1484 -0.1027 -0.0918
20203W        W37050  11.483   0.491   1.341  0.2985 -0.0443  0.2109
20204W        W37051   7.473   3.113   4.886  0.0348  0.1476  0.1549
20205W        W37052  14.732  17.332   2.139 -0.1204 -0.0596 -0.3709
20206W        W37053   4.836   1.794   1.897 -0.1375 -0.2109  0.3704
20207W        W37054   3.382  18.026   0.210 -0.3259  0.0015  0.0300
20208W        W37055   1.244  11.227   5.903  0.0172 -0.0873 -0.2259
20209W        W37056   9.017   1.783   0.189 -0.1077  0.0346 -0.0705
20210W        W37057  11.254   3.660   4.490  0.2971 -0.1871  0.1534
20211W        W37058  18.357  15.436   5.430  0.1933 -0.1787  0.0462
20212W        W37059  12.367   2.436   5.729 -0.0261 -0.0262 -0.1148
20213W        W37060  17.691  14.088   3.014 -0.3550  0.3729 -0.0160
20214W        W37061   4.116  15.244  16.207  0.0494  0.4292  0.0164
20215W        W37062   4.057  17.524   1.198  0.0568 -0.2159  0.0643
20216W        W37063  16.255  15.648   2.692 -0.1631  0.0669 -0.0528
20217W        W37064  11.719  15.622   1.869  0.1287  0.1047 -0.1038
20218W        W37065   0.394   8.586  16.132 -0.0879  0.0076  0.0914
20219W        W37066   9.722  18.142   3.378  0.3875  0.0595  0.2403
20220W        W37067  11.142  13.774  13.725 -0.1937  0.1139 -0.0620
20221W        W37068   4.342  16.755   0.511 -0.1352 -0.5182  0.0373
20222W        W37069   8.769   2.460   3.528  0.5130 -0.0225 -0.0662
20223W        W37070   9.886   9.894   2.279 -0.1520 -0.0714 -0.0929
20224W        W37071  12.351  10.925   5.095 -0.2605 -0.0092  0.1641
20225W        W37072   8.974  10.723   1.316 -0.3120 -0.2061 -0.0692
20226W        W37073   4.762  14.841   1.741 -0.2909  0.0121 -0.0814
20227W        W37074   4.981   2.007   3.860  0.1896  0.1250 -0.0068
20228W        W37075   8.013   1.571  14.101  0.2987 -0.3853  0.1019
20229W        W37076   5.652   2.339   2.987 -0.0770 -0.0915 -0.1043
20230W        W37077   9.104  14.981  14.734  0.4347  0.1978 -0.0015
20231W        W37078   9.868  10.314  14.289  0.3318 -0.1823  0.1396
20232W        W37079  16.829   0.619  11.355 -0.0568  0.1822  0.1728
20233W        W37080   8.135   0.684   1.843 -0.2255 -0.1243 -0.3262
20234W        W37081  17.478   8.721   5.457  0.0221 -0.0864 -0.0292
20235W        W37082   2.182   1.228   1.192 -0.0392 -0.0317  0.3528
20236W        W37083  17.850   6.018  11.510  0.2115  0.1603 -0.0008
20237W        W37084   4.092  11.971   1.694 -0.2264 -0.0560  0.2245
20238W        W37085   7.104  10.005  14.080  0.1774  0.2224 -0.1092
20239W        W37086   6.177  11.266   2.487  0.1090 -0.0360 -0.3657
20240W        W37087  12.798  12.180  14.882  0.0403 -0.4712 -0.1726
20241W        W37088  15.657  13.723  13.112  0.4612 -0.0817 -0.0893
20242W        W37089  16.238  14.851   2.354 -0.1753  0.1707 -0.0516
20243W        W37090   8.781  10.270  14.587  0.0567  0.0034  0.0453
20244W        W37091  15.700   1.641   1.135 -0.1436  0.0092  0.0769
20245W        W37092   0.036   7.161  15.827 -0.1158 -0.3233 -0.1976
20246W        W37093  17.361   4.637  13.259 -0.4342  0.0951 -0.0001
20247W        W37094  16.145  15.878  12.340  0.1400 -0.3461 -0.1170
20248W        W37095   3.908   4.870   4.999  0.1128  0.0931  0.0006
20249W        W37096   5.022   2.756   4.606  0.1315  0.0045  0.0650
20250W        W37097  13.764  15.738  14.143 -0.0720  0.0571  0.2370
20251W        W37098  11.835   9.682  13.967  0.0715  0.0121 -0.1112
20252W        W37099   9.076  17.253   2.275  0.0808 -0.3334 -0.1163
20253W        W37100  17.977   8.714  11.040  0.1276  0.0167  0.1359
20254W        W37101  11.963   6.596   3.160 -0.3481 -0.1020 -0.1907
20255W        W37102  14.617   9.074   1.411  0.1313 -0.0817 -0.1300
20256W        W37103   3.675  12.832  12.223 -0.1970  0.0640  0.0583
20257W        W37104   1.320   6.580   4.663  0.0509  0.2133 -0.0337
20258W        W37105  10.103   2.160   0.705  0.0851 -0.0447  0.0893
20259W        W37106  11.665  15.229   0.898  0.1329 -0.1066  0.1449
20260W        W37107  17.327  12.606  15.848 -0.0592 -0.1831 -0.0249
20261W        W37108  15.165   6.406  15.694 -0.0326  0.0209  0.1439
20262W        W37109   9.734   4.289   2.530  0.1161  0.0977  0.0218
20263W        W37110  13.379   5.374   0.498 -0.1375  0.1193 -0.0195
20264W        W37111  12.502  17.794  15.865  0.2896 -0.0426  0.1148
20265W        W37112  13.282  18.041  11.886 -0.0546 -0.0597 -0.2160
20266W        W37113  15.987  11.262  14.011  0.4427  0.0915  0.2525
20267W        W37114  14.672   3.289   3.023 -0.2549 -0.2146 -0.1156
20268W        W37115  17.084   4.559  12.058 -0.2570 -0.0253  0.1129
20269W        W37116   8.455   0.050   1.899 -0.1429  0.1566 -0.1086
20270W        W37117   3.567  14.611   4.725 -0.3108 -0.0118 -0.0085
20271W        W37118   7.325  14.983   4.502  0.0468 -0.0411 -0.1754
20272W        W37119  12.943  12.847   5.450 -0.1618 -0.0904 -0.1348
20273W        W37120   9.955  13.422   3.197  0.0445  0.1031  0.1212
20274W        W37121  13.666   4.957  12.182  0.0576 -0.3161  0.0958
20275W        W37122  15.956   6.150   1.171 -0.2314  0.1736  0.1644
20276W        W37123  11.852   0.948  11.780 -0.2438 -0.1070 -0.2811
20277W        W37124  12.142   9.096   0.765  0.1285  0.0012  0.0669
20278W        W37125   2.800   3.532  11.355  0.4045  0.2385  0.0135
20279W        W37126  12.381  11.359  14.041 -0.0076  0.5033 -0.3429
20280W        W37127  12.159   8.725  10.879  0.1247  0.1775 -0.1238
20281W        W37128  11.770  14.473   4.477 -0.1797  0.0081  0.0812
20282W        W37129  17.039   5.221  15.864  0.2751 -0.1109  0.1871
20283W        W37130   7.911   0.987  13.456 -0.3181  0.0365  0.0542
20284W        W37131  13.482   2.001  16.076  0.2378  0.2828  0.0771
20285W        W37132  14.907   5.618  15.356 -0.2303 -0.0755  0.1519
20286W        W37133   3.138   6.982   4.290  0.1402  0.1942 -0.1566
20287W        W37134  12.133  10.447   2.705  0.0412 -0.1306 -0.1183
20288W        W37135   5.205   7.873   4.100  0.0948  0.1462  0.2301
20289W        W37136  14.364  15.107   3.194  0.2769  0.1969  0.1570
20290W        W37137  10.446  14.224   6.366  0.0974  0.2635 -0.0179
20291W        W37138  13.847  16.261   0.326  0.3104 -0.2616  0.3944
20292W        W37139   8.353  10.630   4.452  0.0219 -0.0105 -0.2088
20293W        W37140  16.389   6.588   4.097 -0.0606 -0.0750 -0.1097
20294W        W37141  10.700   0.087   2.082  0.3336 -0.2194  0.0466
20295W        W37142   7.106   7.639   4.967 -0.1600  0.1374 -0.1931
20296W        W37143  13.320   4.725   2.027  0.1162  0.1729  0.0227
20297W        W37144  13.389   7.785  12.790  0.0548  0.1487 -0.0383
20298W        W37145  11.349   0.882   5.014  0.0708 -0.0561  0.1084
20299W        W37146  12.548   7.938  15.769  0.1045  0.1423 -0.2064
20300W        W37147  16.859  17.610   0.122 -0.0085  0.2329 -0.1722
20301W        W37148  14.389   2.282   2.186 -0.0755 -0.2684 -0.3807
20302W        W37149  15.437   3.456   5.344 -0.1263 -0.1295 -0.1242
20303W        W37150  14.449   6.952  14.473  0.0969 -0.1101  0.1075
20304W        W37151  10.473  12.313  16.329  0.1428  0.3109 -0.0549
20305W        W37152   6.114   2.811  14.485  0.1474 -0.2708  0.1542
20306W        W37153  11.511   2.948   4.659 -0.1077 -0.2166 -0.2527
20307W        W37154   1.820  12.113   4.374 -0.0274  0.5395 -0.1571
20308W        W37155   4.376   1.617   3.240  0.1774  0.3016 -0.1471
20309W        W37156   4.076   8.163  12.133 -0.1150 -0.1688 -0.0022
20310W        W37157  14.117   7.857  14.775  0.1906  0.3042  0.1560
20311W        W37158  17.715   9.001   3.207  0.1720  0.0690 -0.0134
20312W        W37159   6.401  16.429  14.567  0.1436  0.1105 -0.1690
20313W        W37160   2.601  10.835   0.973 -0.1479  0.0821 -0.0842
20314W        W37161  15.186   2.683  14.208  0.0650 -0.4959  0.1334
20315W        W37162   7.971   6.185   0.286 -0.0242 -0.3312  0.1564
20316W        W37163  17.587   5.289  14.611  0.0705 -0.0231 -0.0675
20317W        W37164  13.436  11.858   5.040  0.2081 -0.0994 -0.2871
20318W        W37165  13.103   9.030  12.333 -0.4082  0.1177  0.1445
20319W        W37166   0.601   0.161   1.568  0.0799  0.1806  0.2485
20320W        W37167  12.244  16.054  16.011 -0.1320  0.0024  0.1031
20321W        W37168  10.887  16.407  12.738 -0.0523  0.3073 -0.3419
20322W        W37169   8.349  16.143   0.444  0.1964 -0.1028  0.0438
20323W        W37170  15.882  10.295  14.488  0.0114 -0.1214 -0.0471
20324W        W37171   1.572  18.377  13.290 -0.1224 -0.1629  0.3083
20325W        W37172  14.756   8.429   4.821 -0.0075 -0.0056  0.2437
20326W        W37173   3.209   2.139   5.200 -0.1859 -0.3023 -0.3325
20327W        W37174  11.284   0.616  12.395 -0.2321 -0.3282  0.1058
20328W        W37175   4.497   9.488   2.768  0.0434  0.2437  0.0641
20329W        W37176   1.030   0.913  13.196  0.2165  0.0746 -0.1289
20330W        W37177  17.545  15.936  13.202  0.1284 -0.0229  0.0894
20331W        W37178  17.675  10.547  14.728 -0.1083  0.0085 -0.2205
20332W        W37179   9.312  14.219   4.601  0.3128  0.2361 -0.2042
20333W        W37180  11.050  14.884  13.543 -0.2308 -0.0947 -0.1486
20334W        W37181   3.656   8.599  13.517  0.2186 -0.1719 -0.2095
20335W        W37182   6.133   0.204  12.848 -0.2226  0.3579 -0.2218
20336W        W37183   8.481   9.688  15.716 -0.0002 -0.0530 -0.1892
20337W        W37184   7.193   2.049   4.038 -0.1437  0.0569 -0.1404
20338W        W37185  12.210  15.410   5.468 -0.0389 -0.0071 -0.1005
20339W        W37186  10.787   1.453   5.646  0.0418 -0.0825 -0.2890
20340W        W37187   4.938  12.796   5.236 -0.0236  0.2009 -0.0618
20341W        W37188   8.053   2.471  15.169 -0.0942  0.4061  0.0047
20342W        W37189   3.494  15.792  11.699 -0.0938 -0.1862 -0.0568
20343W        W37190  17.994   2.422  12.096 -0.0835 -0.1090 -0.1290
20344W        W37191   4.369   8.073  11.658 -0.1031  0.1075  0.0927
20345W        W37192  14.705   2.514   3.030  0.0813  0.1834 -0.1516
20346W        W37193   0.275   5.409  11.303 -0.3202  0.0434 -0.1745
20347W        W37194   9.026   6.636   4.692 -0.0615 -0.3614  0.1346
20348W        W37195   1.474   4.619   4.235  0.2163 -0.4298  0.0035
20349W        W37196  10.439  16.065  12.544 -0.2921 -0.0853  0.1316
20350W        W37197   5.228  13.329  15.769 -0.2932 -0.1097  0.0586
20351W        W37198   0.754   5.819  12.295  0.2860  0.0389  0.2034
20352W        W37199  14.824  18.274  15.903  0.1063 -0.4615 -0.1051
20353W        W37200   5.539  13.592   5.601 -0.0680 -0.0702  0.0786
20354W        W37201   3.685  18.088  12.359 -0.0181 -0.0610 -0.4176
20355W        W37202   7.187   7.790  12.034  0.0109 -0.1012  0.0129
20356W        W37203   1.646  11.960   3.646 -0.0222 -0.0911  0.0050
20357W        W37204  15.237  15.599  12.896 -0.0822 -0.0956 -0.2665
20358W        W37205   6.902  11.541   2.824  0.2070 -0.4130 -0.0283
20359W        W37206   4.955  14.323  15.394  0.0913 -0.0137 -0.2825
20360W        W37207  18.064   2.847   2.056 -0.1495  0.2060 -0.1791
20361W        W37208   9.520  15.285   2.047  0.1153  0.1069 -0.2206
20362W        W37209   3.377   4.142  14.023  0.0665  0.1167 -0.0863
20363W        W37210   2.901   3.239   1.853 -0.0593  0.0268 -0.1550
20364W        W37211  12.431   5.330  12.915  0.3382  0.0847 -0.0549
20365W        W37212  14.123   5.651  12.467  0.1347  0.2840 -0.0107
20366W        W37213   4.376   7.694   2.835  0.2049 -0.1139  0.2381
20367W        W37214   2.984   6.314   1.759 -0.1366 -0.0320 -0.1042
20368W        W37215   6.234  11.156   4.693  0.5796 -0.1627  0.0931
20369W        W37216  15.963  17.642   4.730  0.5338 -0.2054  0.0696
20370W        W37217  17.073   9.962   2.990 -0.0868  0.2226  0.0820
20371W        W37218  11.969  12.120  16.303  0.2685 -0.2062  0.1639
20372W        W37219   6.655  11.519  12.855  0.2325  0.2123 -0.0671
20373W        W37220   6.620   4.623  13.051 -0.1842 -0.0230  0.3046
20374W        W37221  13.884  15.609  13.331 -0.0976  0.2552  0.1042
20375W        W37222   6.311   2.724  13.219  0.0986 -0.2431 -0.0566
20376W        W37223   6.783   0.355   1.605  0.0725  0.1634  0.1236
20377W        W37224  14.845  16.837  13.286  0.2138 -0.0038  0.3949
20378W        W37225  16.562  15.607   0.661 -0.1084 -0.1279 -0.2779
20379W        W37226  13.800   8.211  15.846 -0.2982  0.0651 -0.2178
20380W        W37227  10.555  12.833   2.571 -0.4072 -0.4475  0.4001
20381W        W37228  11.818  17.369  16.325 -0.0304 -0.2159 -0.1428
20382W        W37229   3.207  13.709   1.060 -0.3102  0.1267  0.3348
20383W        W37230   2.342   6.573   0.739  0.0361  0.1237 -0.0143
20384W        W37231  13.628   6.056   5.962  0.4027 -0.2607  0.3569
20385W        W37232  16.636  10.788   0.221 -0.0310 -0.0496 -0.2239
20386W        W37233  10.333   5.011  11.416 -0.0227 -0.2121  0.3910
20387W        W37234   5.400  10.253  12.063 -0.1678  0.2240  0.1999
20388W        W37235   0.878   5.385   4.841  0.2009 -0.1934  0.0987
20389W        W37236  10.523   8.022  12.327  0.3605 -0.2639 -0.1105
20390W        W37237  11.401  11.226  16.075 -0.0781  0.0050  0.0120
20391W        W37238  11.992  10.655   3.449 -0.2430  0.0093 -0.1474
20392W        W37239   6.531   2.294  13.836 -0.2090 -0.1450 -0.1007
20393W        W37240   0.934  11.353   2.284 -0.2414 -0.2722  0.1840
20394W        W37241  12.546  10.444  14.972  0.0152  0.0444  0.4292
20395W        W37242  13.284   8.666  14.422  0.2932  0.0277  0.3866
20396W        W37243  11.129   7.340   1.981  0.1155  0.0559  0.2482
20397W        W37244  16.037   0.657   1.095 -0.1788  0.3772 -0.0432
20398W        W37245  15.199   0.756   3.097 -0.1056  0.1139  0.1567
20399W        W37246   5.520   7.189  13.048 -0.3123  0.0275 -0.0010
20400W        W37247  15.216  13.785   0.576  0.0053 -0.0930  0.0521
20401W        W37248   5.080   5.143  15.096  0.0214  0.0977 -0.1425
20402W        W37249   3.652   6.326   4.094 -0.2196  0.0668 -0.0120
20403W        W37250   8.861  16.229   2.612 -0.2962  0.2771 -0.1162
20404W        W37251  15.496  10.192   0.239  0.0463  0.2516 -0.2606
20405W        W37252  16.633  13.571   2.148 -0.0496 -0.1855  0.0150
20406W        W37253  12.799   9.932  15.563 -0.2254  0.1180  0.3645
20407W        W37254   6.836   4.048   5.790  0.3126  0.0242  0.0012
20408W        W37255  15.574  18.047   3.613 -0.1093 -0.0990  0.2434
20409W        W37256  12.305   7.981  16.196  0.0224 -0.3198  0.3191
20410W        W37257   3.227   9.280  11.142  0.2135 -0.2352  0.2294
20411W        W37258  10.419   3.018   3.939  0.0590  0.1559  0.1770
20412W        W37259  13.169   5.107  12.215 -0.1354  0.1605 -0.0384
20413W        W37260   6.920   6.811   0.750  0.0888 -0.0242 -0.1012
20414W        W37261  17.850  17.977  16.127 -0.2672 -0.0480 -0.1877
20415W        W37262  13.648  14.285  15.751 -0.1054  0.0075 -0.1794
20416W        W37263   5.346   7.720   0.719  0.1612 -0.0437  0.1224
20417W        W37264  10.403   7.377   4.080 -0.0211  0.0385  0.0949
20418W        W37265   5.527  10.485  13.700 -0.2984  0.0927  0.0775
20419W        W37266  15.054   8.261  15.602 -0.1183 -0.1163  0.1708
20420W        W37267   3.512   7.674  15.706 -0.3032 -0.2637  0.2861
20421W        W37268  10.972   3.023  11.837 -0.0113 -0.0698 -0.0990
20422W        W37269  13.567  18.072   0.140  0.0145  0.0084 -0.1995
20423W        W37270  13.931  17.734   5.341 -0.0560 -0.1717 -0.1838
20424W        W37271   1.170  13.979   2.711  0.3202 -0.0032  0.0422
20425W        W37272   6.945   2.166   1.400 -0.3130 -0.1134  0.0677
20426W        W37273   3.855   5.779  14.559 -0.2813 -0.0370 -0.1870
20427W        W37274   8.826   5.963   4.156  0.0047 -0.0969 -0.0289
20428W        W37275   4.311   8.173   2.546 -0.1111  0.0972  0.5532
20429W        W37276  14.667   6.695   0.279  0.1455 -0.0939  0.0619
20430W        W37277  15.108  15.046   2.627 -0.0167  0.2336  0.1236
20431W        W37278  11.667   8.396  11.995  0.0083  0.0615  0.1295
20432W        W37279   7.870   6.072  12.576 -0.1710 -0.2434  0.3008
20433W        W37280   8.370  11.932   4.352  0.1654  0.0518  0.1505
20434W        W37281  16.876  14.531  14.944 -0.1724 -0.1650 -0.1464
20435W        W37282   9.604   5.767   1.961  0.0476 -0.2828 -0.4319
20436W        W37283   1.578   2.391   3.365 -0.1199  0.2690  0.2275
20437W        W37284   4.132   2.978   0.495  0.1557 -0.0150 -0.0191
20438W        W37285   2.102   4.735  12.785 -0.2354  0.0150 -0.1004
20439W        W37286  16.536  13.100  14.258 -0.0635  0.0142 -0.0703
20440W        W37287   5.243  12.070  12.807 -0.0995  0.0338  0.1874
20441W        W37288  17.708  15.676  15.665 -0.2182 -0.0044  0.0049
20442W        W37289  11.248  15.483   1.514  0.1162  0.2320 -0.1728
20443W        W37290  14.099  17.961   2.445 -0.1730  0.1348  0.0470
20444W        W37291   0.377   4.079  10.883 -0.0165  0.1468 -0.0401
20445W        W37292  13.182  15.965   4.308 -0.3400 -0.0372 -0.0769
20446W        W37293  12.129   8.114  12.629  0.0020 -0.2202 -0.2014
20447W        W37294  17.503   6.753   3.341 -0.1370  0.1517 -0.1598
20448W        W37295  13.570  11.815  15.882 -0.0163 -0.0513  0.1318
20449W        W37296   8.742  12.893   5.304 -0.2263 -0.1735  0.2694
20450W        W37297  18.127  10.150   4.566  0.0205 -0.1556 -0.0902
20451W        W37298  14.378  16.712   0.016 -0.2733  0.0655  0.1566
20452W        W37299  16.974   0.069  12.041  0.3405  0.1577 -0.2332
20453W        W37300   7.342  16.933   5.608 -0.0886  0.1935  0.0561
20454W        W37301   0.491   2.655  14.994 -0.1652  0.4611  0.3222
20455W        W37302  17.066   6.983  10.767  0.1186 -0.0141 -0.2659
20456W        W37303   3.241   7.716   4.963  0.2248  0.1621  0.0770
20457W        W37304   0.368  15.684  14.867  0.0269  0.0747  0.3139
20458W        W37305  10.252   8.661   1.380 -0.1834 -0.0619  0.2635
20459W        W37306   5.168   2.930   2.239  0.2367 -0.0573  0.0977
20460W        W37307  15.116   6.739   0.494  0.2052 -0.1369  0.2748
20461W        W37308  17.338  14.794  14.073  0.2156 -0.2395  0.2725
20462W        W37309   3.479   3.217  13.539 -0.2902 -0.2141  0.0927
20463W        W37310   2.101   6.377  13.797  0.0273 -0.3264 -0.0269
20464W        W37311  14.796  10.492  14.437  0.0394 -0.0077  0.0615
20465W        W37312  16.715  10.711  12.741 -0.2588 -0.1876 -0.0793
20466W        W37313  14.543  17.642   1.771  0.1127 -0.3755 -0.2853
20467W        W37314  14.387   4.771   4.532 -0.1724  0.2724  0.0391
20468W        W37315   1.215   4.773  10.573 -0.0328  0.2551  0.1035
20469W        W37316  14.485   7.002   3.671 -0.1939  0.2944 -0.2962
20470W        W37317  13.340   2.010  13.588 -0.0685  0.2487 -0.0038
20471W        W37318   9.094   6.384   4.254  0.1618 -0.0848  0.1935
20472W        W37319  15.434   0.053  15.810 -0.0587 -0.2619 -0.0784
20473W        W37320  12.125  18.214  14.518  0.2119 -0.0621 -0.3839
20474W        W37321   0.455   7.627   1.309 -0.0067  0.1222  0.0106
20475W        W37322   3.309  17.275   2.542 -0.0646  0.1477  0.5553
20476W        W37323   3.497  16.200  13.766  0.3046  0.1279  0.1240
20477W        W37324  16.887  14.333   1.865 -0.0738  0.1912 -0.2716
20478W        W37325   8.921  16.631   0.055  0.2189 -0.2646 -0.1384
20479W        W37326   5.784   1.239   2.432 -0.0840 -0.0683  0.3751
20480W        W37327  10.812  18.330  14.636 -0.2776  0.0787 -0.1308
20481W        W37328  14.071  14.216   4.230  0.3260 -0.0599 -0.1537
20482W        W37329  17.209  14.637   2.102 -0.0367 -0.0558  0.0757
20483W        W37330  10.805   2.106  16.034  0.0088 -0.1987 -0.2273
20484W        W37331  13.894  16.341   5.209  0.1515 -0.1067 -0.1591
20485W        W37332   4.785   3.361   2.062  0.2292 -0.3128 -0.1478
20486W        W37333   3.071  15.251   1.211 -0.0145  0.2618  0.1547
20487W        W37334  10.061  10.605  12.743  0.2364  0.0636  0.3637
20488W        W37335  13.107   7.546  11.373  0.0578 -0.4849  0.1504
20489W        W37336  12.578   7.137   3.734  0.1913 -0.2974 -0.2192
20490W        W37337   6.725   2.306  11.614  0.2441  0.5122 -0.0561
20491W        W37338   2.334  18.124  14.409  0.1114  0.2600 -0.3336
20492W        W37339  15.673   6.411   4.784  0.0751  0.3266  0.0298
20493W        W37340   3.316  15.890   2.104  0.1147  0.1194 -0.1329
20494W        W37341   5.769   8.921  14.377 -0.1336 -0.0221 -0.4248
20495W        W37342  16.034   5.106   3.363  0.0661 -0.1928  0.1946
20496W        W37343   6.898  18.200  16.032  0.0071 -0.1103 -0.2489
20497W        W37344  13.117   0.653   0.859 -0.3350  0.1399  0.3356
20498W        W37345   1.986  17.631   5.346 -0.1400 -0.1602 -0.0007
20499W        W37346   3.643  12.985   2.155 -0.0176 -0.1942  0.0339
20500W        W37347  17.143   1.181   4.581  0.3184  0.0062 -0.0891
20501W        W37348  15.042   0.837   0.790 -0.3311 -0.0413  0.0274
20502W        W37349   0.683  10.329   0.403  0.1450  0.4757 -0.1322
20503W        W37350   2.652   0.827  10.549  0.0041  0.1571  0.0334
20504W        W37351  11.189  16.607   2.735 -0.0633 -0.1376 -0.0456
20505W        W37352   4.489   5.331   1.567  0.0211  0.1471 -0.3176
20506W        W37353  12.561   3.881   0.318  0.3785  0.0763 -0.0274
20507W        W37354   0.905   0.487  15.502 -0.0392  0.2994  0.0143
20508W        W37355  10.704   1.554  13.612  0.1205  0.2256 -0.1601
20509W        W37356   3.596   1.343   2.696  0.0768  0.0283 -0.0946
20510W        W37357  14.139   1.329   5.165 -0.0205 -0.0921  0.2968
20511W        W37358  17.194   6.588   4.720 -0.2552 -0.1404 -0.0473
20512W        W37359   1.441  12.338   4.082 -0.0166 -0.2084  0.1653
20513W        W37360  17.495   8.390  11.551  0.0705  0.4998 -0.3762
20514W        W37361  10.125   6.860   3.496  0.1925  0.1451  0.0434
20515W        W37362  16.017   3.189  15.360  0.2825 -0.3114 -0.0758
20516W        W37363   7.198  14.976   1.318 -0.0035 -0.2292  0.0956
20517W        W37364  17.598  16.120   5.094  0.1371 -0.3551  0.0759
20518W        W37365   2.709   6.653   3.679  0.0270 -0.0741  0.0399
20519W        W37366   9.096   9.284   2.573  0.0857 -0.0171  0.0352
20520W        W37367   9.947   9.056   1.158 -0.0299 -0.1747 -0.2152
20521W        W37368  12.949  17.874   1.146 -0.2332 -0.5555 -0.1305
20522W        W37369  13.211  12.437   2.997  0.1909  0.1077 -0.0707
20523W        W37370   0.803  12.803   0.664  0.1508 -0.1622 -0.0283
20524W        W37371  13.331  16.678  14.630 -0.1374  0.0671 -0.0018
20525W        W37372   5.623   8.494   3.638 -0.0827  0.0338 -0.1582
20526W        W37373   7.484  12.301  14.313 -0.0852  0.2287 -0.0656
20527W        W37374  16.855   9.503   3.065 -0.1119  0.0716  0.0765
20528W        W37375   0.438  15.748   3.659  0.0534 -0.0847  0.3069
20529W        W37376  16.106  14.997  11.655  0.3664  0.2245  0.1451
20530W        W37377  11.552   8.396   3.175 -0.1950 -0.1520 -0.1380
20531W        W37378   1.723  13.295  12.910  0.2051 -0.0828 -0.1722
20532W        W37379  17.239  14.206  13.922  0.0805 -0.2167 -0.0116
20533W        W37380  11.393   5.514   1.451 -0.0267  0.0840 -0.3023
20534W        W37381  10.416  13.208  13.489  0.2892  0.1892 -0.0332
20535W        W37382   1.778  12.747  15.974 -0.1526 -0.0024 -0.0427
20536W        W37383   3.274   0.723  14.790  0.0363  0.2372 -0.1543
20537W        W37384  16.466   0.806  12.590 -0.1288 -0.0983  0.0076
20538W        W37385   2.099  17.462  15.545 -0.2493 -0.1897  0.1335
20539W        W37386   7.048  13.544   3.151 -0.0090  0.2837  0.0043
20540W        W37387   5.518   7.169  11.375 -0.1100 -0.1751 -0.0562
20541W        W37388  12.111   6.569  12.895 -0.1119  0.4613 -0.0574
20542W        W37389  14.864  18.013  13.115  0.0919  0.0306  0.0735
20543W        W37390  17.332  15.866   1.583  0.0086  0.3451  0.5279
20544W        W37391  15.765  17.295   0.860 -0.2441  0.0994 -0.0874
20545W        W37392  18.288  12.512   3.371 -0.0493  0.1082  0.2017
20546W        W37393  12.256   8.898  11.972 -0.0668  0.1143  0.2013
20547W        W37394   2.423   0.816   5.681  0.3190  0.3542  0.0876
20548W        W37395  12.138   1.457   3.211  0.2601  0.3208 -0.3004
20549W        W37396   4.321   3.064  13.419 -0.1023 -0.0919  0.1485
20550W        W37397  16.334   5.193  15.117  0.1136  0.2456  0.2581
20551W        W37398   3.866   6.735  15.981  0.0527 -0.0002  0.0969
20552W        W37399  18.354   8.338   5.564  0.1058 -0.0536  0.1537
20553W        W37400  16.426   7.141  11.815  0.0568 -0.3054  0.0506
20554W        W37401  14.320  15.172   4.663  0.0344  0.3513 -0.0398
20555W        W37402   1.397   5.078   2.726  0.0252 -0.1405 -0.3024
20556W        W37403   2.963  14.684   3.123  0.0687 -0.0580 -0.0605
20557W        W37404   0.098  13.916   3.824 -0.2845 -0.0959 -0.2192
20558W        W37405   8.217  16.849  12.012  0.0042 -0.1097  0.0474
20559W        W37406  13.444  17.009   0.528 -0.1698  0.0060  0.0816
20560W        W37407   0.275  16.475  13.957  0.0938  0.0410 -0.1929
20561W        W37408   1.749   4.329  13.862  0.2011 -0.0412  0.3439
20562W        W37409   0.714  13.717   0.910 -0.0037 -0.0829  0.0419
20563W        W37410   3.816   7.281   3.992  0.0839 -0.0577 -0.0052
20564W        W37411  10.588  15.877   3.129 -0.2348  0.2141 -0.0873
20565W        W37412   9.364  16.456   3.517  0.0601  0.1790  0.1491
20566W        W37413  13.340  12.719  12.676 -0.0662 -0.1179  0.1209
20567W        W37414   8.811   6.374   1.002 -0.4142  0.1995 -0.3939
20568W        W37415   6.836   9.893   4.618  0.2219  0.1177 -0.2036
20569W        W37416  14.812   9.154   0.380  0.3233 -0.1118  0.0286
20570W        W37417   1.873   9.259   5.532 -0.0414  0.1770  0.1459
20571W        W37418  17.581   0.970   1.157  0.3737  0.1362 -0.1436
20572W        W37419  15.816   2.831  13.852  0.1411 -0.0064 -0.2630
20573W        W37420   9.851   4.896   1.932  0.4113  0.0086 -0.1427
20574W        W37421  14.647   0.755  13.571  0.4848 -0.0472 -0.1260
20575W        W37422   1.618   9.789  14.371 -0.0294  0.0096  0.0846
20576W        W37423  11.621  16.899   6.194  0.1699 -0.3322  0.2929
20577W        W37424   4.956   0.919  14.427 -0.1794  0.0911  0.2319
20578W        W37425   1.594  10.458   0.026  0.4077 -0.1805  0.0119
20579W        W37426   9.994  11.982  13.035 -0.1052  0.1422  0.2940
20580W        W37427  16.951   7.867  11.052 -0.1732 -0.0616  0.0738
20581W        W37428  14.806   2.985  13.776  0.0032 -0.3219 -0.1989
20582W        W37429  13.131   0.013   5.496 -0.2063 -0.0368  0.0423
20583W        W37430   4.497   2.260   1.214 -0.2831 -0.3143  0.1389
20584W        W37431   8.185  15.404   4.530 -0.1551  0.0823 -0.1284
20585W        W37432  12.998   0.660   3.432  0.3326 -0.1389  0.3023
20586W        W37433  14.920   1.987   0.574  0.1632  0.1211 -0.2146
20587W        W37434  14.493  12.901   4.726 -0.1412  0.1198 -0.0529
20588W        W37435   3.360   1.041   0.386  0.0998 -0.0605  0.0454
20589W        W37436  16.777  12.040  12.316  0.0195 -0.0696 -0.0675
20590W        W37437   8.058   3.435   0.783 -0.1062  0.3241 -0.0171
20591W        W37438   7.556   3.209  15.493 -0.1083 -0.0837  0.0030
20592W        W37439   3.410  17.341   1.456 -0.2384  0.0391  0.2191
20593W        W37440  16.247  17.499   0.846 -0.2702  0.3752 -0.0675
20594W        W37441  10.830   5.079  14.052 -0.0230 -0.0818  0.1703
20595W        W37442   5.817  10.843   0.494 -0.1330  0.0573 -0.4397
20596W        W37443   5.829  10.912   2.392  0.3246 -0.0880  0.0190
20597W        W37444  12.908   6.181   4.038  0.1659  0.3014  0.1197
20598W        W37445  16.132  10.769   0.040  0.1453  0.2142 -0.0147
20599W        W37446   6.307   2.433  15.945  0.0011  0.0035  0.1043
20600W        W37447   0.287   7.476   5.135 -0.2496  0.0189  0.2302
20601W        W37448   5.748   6.673  11.650 -0.1129  0.2989 -0.1368
20602W        W37449  15.912  11.900  13.041  0.0592  0.4172 -0.0366
20603W        W37450  14.561   3.550   5.203 -0.1606  0.0586 -0.1184
20604W        W37451  15.604   0.543   3.507 -0.0836 -0.0552 -0.0869
20605W        W37452   9.577   8.368  15.077 -0.0347 -0.1893  0.1946
20606W        W37453  14.437   0.541   1.880 -0.2587 -0.0423  0.1228
20607W        W37454   3.005   2.461  15.078  0.0595  0.1060 -0.0530
20608W        W37455  13.077   5.788   4.393 -0.2400  0.3091  0.1024
20609W        W37456  13.341   4.703  14.262 -0.1182 -0.1368 -0.3882
20610W        W37457  15.000   5.007   1.313  0.0099  0.0461  0.1205
20611W        W37458   1.285   2.945  15.928  0.1430  0.0054  0.1047
20612W        W37459   3.317  11.768   5.860 -0.3115  0.0543  0.0343
20613W        W37460   3.451   2.738  13.729 -0.0074  0.0500 -0.4459
20614W        W37461  11.324   0.272  12.811  0.1236 -0.0379  0.1324
20615W        W37462   3.349  10.669   0.447 -0.0194 -0.1517  0.0919
20616W        W37463   6.451  16.439  13.512  0.0225  0.0961  0.2176
20617W        W37464  14.513  11.600   4.080  0.1633  0.1057 -0.2047
20618W        W37465   4.188   5.364  15.828 -0.1869  0.3078  0.1809
20619W        W37466  16.752   1.190   1.670 -0.1627  0.1649 -0.1159
20620W        W37467  12.535   5.251   1.076 -0.0854  0.1256 -0.1475
20621W        W37468  10.005   3.524   0.579 -0.1286  0.0620  0.3140
20622W        W37469   3.502   2.322  15.217  0.3265  0.2002 -0.2078
20623W        W37470   0.162   5.027  12.729 -0.1612  0.3246 -0.4464
20624W        W37471  10.634   0.727   5.447 -0.0994  0.3510  0.1318
20625W        W37472   8.505   2.393   1.446 -0.0379  0.1605 -0.1745
20626W        W37473  18.117  10.188  11.600  0.3779 -0.1436 -0.1086
20627W        W37474  12.614  11.448  16.084 -0.1117  0.1186 -0.2580
20628W        W37475  16.086  12.918  15.741  0.0793 -0.2445 -0.0165
20629W        W37476  11.075  17.539   5.271  0.0198 -0.0369 -0.3135
20630W        W37477   6.245  10.879   3.813 -0.1070  0.0348  0.2396
20631W        W37478  14.229  16.769   1.651  0.3311  0.1222  0.1926
20632W        W37479   4.593   8.191  14.919 -0.0854 -0.2146  0.4506
20633W        W37480  17.955   9.572  15.048  0.0913 -0.0324  0.1745
20634W        W37481  17.290   9.356  13.774  0.2187  0.1502 -0.1585
20635W        W37482  14.945  14.623   2.472  0.0027  0.0998 -0.1671
20636W        W37483  16.735   0.720   1.806  0.0187 -0.1120  0.1981
20637W        W37484  12.114  14.675   1.094 -0.1004  0.1671 -0.2250
20638W        W37485   2.827   2.655  14.557  0.4528  0.1387 -0.2690
20639W        W37486   4.297  14.033   4.687 -0.2624 -0.3456  0.2748
20640W        W37487   8.557   9.163   6.339 -0.1760  0.0242 -0.2848
20641W        W37488   4.707  18.162  15.311  0.1674  0.1016  0.1167
20642W        W37489  10.153  16.094  11.443 -0.0054 -0.0524 -0.0542
20643W        W37490   7.983   3.476   0.267  0.1007  0.1102  0.2039
20644W        W37491   2.597   7.573   0.286  0.0796  0.0258 -0.2111
20645W        W37492  12.635  15.835   3.729  0.0124  0.2660 -0.1247
20646W        W37493   0.392   0.117   1.090  0.0258 -0.3960 -0.2914
20647W        W37494  11.380   4.853  13.320 -0.2956  0.2507  0.0377
20648W        W37495  14.417  15.651   1.941 -0.0648  0.2654  0.0897
20649W        W37496  11.268  18.125  15.811  0.0108  0.0472 -0.0312
20650W        W37497   1.926   0.875   4.763  0.0006 -0.0238  0.1092
20651W        W37498  15.278   5.398  13.959 -0.0139  0.2117  0.0668
20652W        W37499   0.804   1.197  14.169  0.2702 -0.1348  0.1189
20653W        W37500   0.216   9.500   0.574  0.2146 -0.0911  0.0725
20654W        W37501   5.253  12.691  12.063  0.5442  0.4754  0.1418
20655W        W37502  12.715  10.173   0.042 -0.2760  0.1873  0.2774
20656W        W37503  10.456   0.266   0.473  0.1554 -0.1051  0.0038
20657W        W37504   5.309   1.300  15.215 -0.0117  0.0882  0.0239
20658W        W37505  15.843   5.675  14.152  0.0033 -0.0513  0.1100
20659W        W37506   9.491  17.411  14.920  0.1598 -0.1751 -0.1150
20660W        W37507  15.005  11.926   4.070  0.0280  0.1081 -0.0712
20661W        W37508   5.147  10.798  12.001 -0.0287  0.0416  0.2435
20662W        W37509   1.934  13.304   1.460  0.4289  0.0950 -0.0653
20663W        W37510   5.204   9.001   1.000  0.0399 -0.0831  0.0772
20664W        W37511  16.649  17.274   2.231 -0.0680  0.1227 -0.0301
20665W        W37512   9.285   8.879   1.329 -0.0611  0.1556  0.0565
20666W        W37513  11.731  12.590  13.607 -0.2312  0.2781 -0.1785
20667W        W37514  15.269   4.224   1.064  0.1751  0.1226 -0.0452
20668W        W37515   6.935   4.937   3.729 -0.0813  0.0283 -0.1899
20669W        W37516   4.578  13.847  13.917  0.1429 -0.0017  0.2327
20670W        W37517  18.040  13.239  12.445  0.0712 -0.1434  0.3391
20671W        W37518   6.703   1.810   3.540  0.1706 -0.1304  0.0281
20672W        W37519  12.453  10.336  14.193  0.2432 -0.1159 -0.0884
20673W        W37520  16.664   1.580   2.040  0.1011 -0.1391  0.0642
20674W        W37521   4.942  13.010  12.375 -0.0759 -0.0013  0.0444
20675W        W37522   3.433  18.024  13.762  0.0347  0.1459  0.2930
20676W        W37523   2.941  17.058   0.813  0.1523  0.4308  0.1608
20677W        W37524   7.817   4.634   0.256  0.1683  0.2195  0.3191
20678W        W37525   6.472  11.527   1.128  0.1944 -0.0058 -0.1686
20679W        W37526   6.302   5.922  11.108 -0.2610  0.0263 -0.1632
20680W        W37527  11.060   5.954  14.562  0.1463 -0.0619  0.0601
20681W        W37528   0.438  12.482   0.466  0.1933  0.1059 -0.0048
20682W        W37529  14.526   7.197  15.421 -0.0835 -0.1984  0.0274
20683W        W37530   7.558   5.434   6.380  0.0444  0.0556  0.0617
20684W        W37531   9.416   3.635  13.413 -0.0326  0.0457 -0.1041
20685W        W37532   0.114   8.525  15.452 -0.0534 -0.1966  0.2141
20686W        W37533   4.717  18.065  12.730 -0.0985  0.0225  0.1131
20687W        W37534  11.299   6.928   4.184  0.3527  0.0901  0.1763
20688W        W37535  16.200  12.155   1.744 -0.1379 -0.0548  0.2506
20689W        W37536  12.588  13.946   4.569  0.0779 -0.2060  0.1580
20690W        W37537   9.698   4.062   4.969  0.1107  0.1353 -0.2752
20691W        W37538  17.970   1.017   1.953 -0.1143 -0.2213  0.0010
20692W        W37539   2.506  13.257  13.277 -0.0035  0.3785  0.2761
20693W        W37540   0.683  10.627   1.721 -0.0609  0.2268 -0.0195
20694W        W37541   9.256   2.220   3.264  0.1800  0.2457  0.2120
20695W        W37542   2.638  15.004  12.214 -0.3205  0.1140 -0.2606
20696W        W37543  17.579   8.101  10.486 -0.0432  0.0018  0.1496
20697W        W37544   2.342   9.175   2.233  0.0049 -0.1252 -0.4085
20698W        W37545   1.957  17.038   5.164  0.1958 -0.0413  0.2022
20699W        W37546  13.682   7.699  11.272 -0.0415  0.0200  0.0360
20700W        W37547  11.733   5.803   2.393  0.1919  0.1484  0.0627
20701W        W37548  17.045   8.214   3.279  0.3545  0.0127 -0.2174
20702W        W37549   4.404  10.778  15.905 -0.0501 -0.2358  0.1462
20703W        W37550   1.375  12.780   2.371 -0.0890 -0.2064 -0.1883
20704W        W37551  12.812  12.216  15.454 -0.0082 -0.0653  0.0652
20705W        W37552  10.044  10.486  11.834  0.0818 -0.2758  0.1690
20706W        W37553   4.689  15.771  15.014 -0.1948 -0.2458 -0.0354
20707W        W37554   8.676   2.005   4.348 -0.3680  0.1519  0.0599
20708W        W37555   2.331   3.424   4.429  0.2351  0.0847 -0.0772
20709W        W37556   5.264   4.472  12.513 -0.0849 -0.3171 -0.0553
20710W        W37557  16.596   5.860   3.152  0.2019  0.1749  0.3289
20711W        W37558  15.745   6.850  15.021 -0.2321 -0.1296  0.0608
20712W        W37559  17.441   6.915  16.036  0.0745 -0.0331  0.2251
20713W        W37560   2.718   0.122   0.802 -0.0670 -0.0990  0.1313
20714W        W37561   4.147   4.218  16.074 -0.2035  0.0084  0.2216
20715W        W37562  11.353  12.166   4.476 -0.0320 -0.0572 -0.1588
20716W        W37563  16.643   6.797   0.927  0.0076  0.0673 -0.1258
20717W        W37564   1.625  16.418  14.342 -0.3372 -0.2687 -0.1547
20718W        W37565   2.485  15.928   3.778  0.1042  0.1602 -0.0820
20719W        W37566  11.657   5.118   4.275  0.1751 -0.0594 -0.2150
20720W        W37567  17.287  14.750   3.967 -0.0724  0.0721 -0.1784
20721W        W37568  11.883   0.119  12.607  0.1985 -0.0158 -0.1018
20722W        W37569   4.164  10.360   1.753  0.3391 -0.0152 -0.3084
20723W        W37570   4.619   5.363   5.231 -0.2244 -0.0673  0.2114
20724W        W37571  11.689  10.067   4.282  0.3856  0.0589  0.2283
20725W        W37572   6.529   5.579   1.927 -0.3175  0.2950 -0.0373
20726W        W37573   0.726   9.670   4.616  0.2001 -0.0531 -0.1961
20727W        W37574  13.328  16.024   1.290  0.0454 -0.3059  0.0582
20728W        W37575   0.031   9.881  16.025  0.1186  0.1251  0.1365
20729W        W37576   3.673   8.966   2.839 -0.0044 -0.2647  0.0016
20730W        W37577   1.177  14.258  11.924 -0.1491 -0.1510 -0.2126
20731W        W37578  10.429  13.450  16.091  0.0472 -0.0194  0.0778
20732W        W37579   9.853  18.238   0.158 -0.1951  0.0556 -0.3138
20733W        W37580   2.311   3.084  13.156 -0.0895 -0.2649 -0.0138
20734W        W37581  15.619  12.348  12.395  0.1610  0.2435  0.1406
20735W        W37582  12.921   1.397  11.845  0.1883  0.0675 -0.1575
20736W        W37583   3.782  16.496  15.077  0.2344  0.0214  0.0428
20737W        W37584  17.130   4.700   2.295  0.0789 -0.3297  0.1175
20738W        W37585   9.933   1.019  14.216  0.2004 -0.0890  0.3351
20739W        W37586   0.623   2.363  13.435  0.0057 -0.2006  0.3179
20740W        W37587  10.465   5.278  15.535 -0.2296 -0.0681 -0.3759
20741W        W37588   7.547  13.819   1.400 -0.1120  0.2149  0.0805
20742W        W37589   0.407  16.257  13.398 -0.0852 -0.0104  0.0508
20743W        W37590   7.483   8.635  14.199 -0.1176  0.2931  0.0063
20744W        W37591   9.261  10.034   4.359  0.0233 -0.0873  0.2865
20745W        W37592  18.183   7.949  15.385  0.2455 -0.3056 -0.4243
20746W        W37593   0.051  10.429  12.472 -0.2459 -0.1601  0.1220
20747W        W37594   7.777  15.553   1.464 -0.0185 -0.0594 -0.0662
20748W        W37595   5.809  14.640  16.294  0.2988  0.2805 -0.0777
20749W        W37596   3.139   1.742  15.494  0.2210 -0.0107 -0.2243
20750W        W37597   9.414  14.777   2.950  0.1903  0.1368  0.1593
20751W        W37598  10.219  14.991   3.196  0.0936  0.0531  0.0387
20752W        W37599   7.589   3.880   2.517 -0.2105 -0.1524 -0.2118
20753W        W37600  17.742  10.480  13.610 -0.0098 -0.2119 -0.0451
20754W        W37601   2.915   5.534   3.266  0.1852  0.0387 -0.1791
20755W        W37602  17.159  11.466   5.531 -0.1596  0.0428  0.1485
20756W        W37603  15.048   9.047   1.989  0.0105  0.1806 -0.1083
20757W        W37604   0.183  10.124   3.760  0.0315 -0.0717  0.1862
20758W        W37605  13.964   5.486  15.683 -0.1128  0.2071  0.0533
20759W        W37606  11.068   4.352   4.611 -0.2103 -0.1129 -0.0532
20760W        W37607  13.607  13.935  14.341 -0.0665  0.3032  0.2286
20761W        W37608  17.463  11.026   1.775  0.2263 -0.3250  0.1208
20762W        W37609  10.290   5.269   0.689 -0.1396  0.1952  0.1604
20763W        W37610   6.254   1.004   4.588  0.0993 -0.0345 -0.0644
20764W        W37611   9.060   0.476   2.915 -0.2551  0.1001 -0.3642
20765W        W37612   7.013  17.455   0.940 -0.0618  0.2369  0.0084
20766W        W37613   3.576  13.238  15.069 -0.0480  0.0392 -0.0282
20767W        W37614  10.835   8.872  10.439  0.0637 -0.0775 -0.1792
20768W        W37615  16.801   9.139   5.064 -0.0219 -0.1330  0.1406
20769W        W37616  13.105   3.995  12.791 -0.0921  0.1374  0.4318
20770W        W37617   6.059   8.028   1.370  0.1503  0.2000  0.0514
20771W        W37618   4.554   4.689  15.465 -0.0328 -0.2698  0.5071
20772W        W37619  12.237   9.177   5.335 -0.0723  0.2330 -0.0236
20773W        W37620  18.055   1.071   1.463 -0.0265  0.0243 -0.0526
20774W        W37621  15.218   4.970  12.213  0.0410  0.2736 -0.0680
20775W        W37622  15.154   7.772  12.973  0.1964 -0.2033  0.0041
20776W        W37623   2.165   3.835   2.562 -0.1352 -0.4418  0.1564
20777W        W37624  10.991   2.334  11.984  0.0147  0.0081 -0.0166
20778W        W37625   9.302  13.777  15.048  0.1066 -0.1726  0.0238
20779W        W37626   2.844  10.516  13.359  0.0072  0.0036 -0.2555
20780W        W37627  12.291   0.692   1.212 -0.0252 -0.1274  0.0977
20781W        W37628   8.404  11.496   3.195 -0.3094  0.0522 -0.0346
20782W        W37629   8.918  11.339   4.968 -0.0716  0.2521 -0.1153
20783W        W37630   1.276  15.168  11.957 -0.0687 -0.0470 -0.0507
20784W        W37631  12.315   3.458   0.626 -0.0118  0.3460 -0.1786
20785W        W37632  15.593   2.975   5.379 -0.0584  0.0656  0.1002
20786W        W37633   7.982  15.598   0.944 -0.1400  0.1327  0.2143
20787W        W37634   9.057  11.901   2.127  0.1725 -0.1020  0.1058
20788W        W37635   2.416   5.313   1.041 -0.1398  0.1773 -0.1320
20789W        W37636  11.964  16.214  15.527  0.3726  0.0153 -0.0584
20790W        W37637  15.789   7.481  12.258 -0.0034  0.0414 -0.0092
20791W        W37638  14.019   5.297  11.583 -0.1368 -0.0900  0.2217
20792W        W37639  12.257  11.582   5.777  0.2006 -0.2868 -0.0550
20793W        W37640   2.125   4.121  12.052 -0.0650 -0.1577 -0.0381
20794W        W37641   2.772   7.549   3.691 -0.0283  0.0287  0.0789
20795W        W37642   2.255   7.474   1.695  0.1071 -0.2986  0.2586
20796W        W37643  11.288  10.653  12.486  0.2036 -0.0352 -0.3176
20797W        W37644  17.891   7.117  11.430 -0.0474  0.2336  0.0910
20798W        W37645   9.890  15.723   3.026 -0.0995  0.1156 -0.1869
20799W        W37646  10.397  16.725  14.269 -0.3448  0.0202 -0.1806
20800W        W37647  11.790   7.913   2.749  0.0536  0.0351  0.2853
20801W        W37648   1.286   4.202   5.586  0.0547 -0.0443 -0.0230
20802W        W37649   5.075  13.358   5.212 -0.1709  0.0969  0.0233
20803W        W37650   3.122  17.426  14.281 -0.0253  0.1479  0.0569
20804W        W37651   4.157  10.762   3.965  0.0964 -0.1460  0.0665
20805W        W37652   2.248  11.694   0.534  0.1614 -0.0677 -0.0168
20806W        W37653  18.159   5.524  16.042  0.0290 -0.2086  0.0958
20807W        W37654  18.263   0.405  16.025 -0.0266 -0.1095 -0.0732
20808W        W37655  10.210   2.355   3.251  0.2730 -0.2558  0.1691
20809W        W37656  11.338  10.227  11.758 -0.0754 -0.1730  0.0389
20810W        W37657   3.376  10.243  11.656 -0.0078  0.0256  0.1175
20811W        W37658   6.203  15.586  13.984 -0.1331 -0.0286  0.0013
20812W        W37659  15.338   5.852   4.611 -0.3055  0.1724  0.0150
20813W        W37660   2.578   8.666   5.291 -0.1588 -0.0503 -0.0089
20814W        W37661  13.098  16.110  12.607 -0.0816 -0.3019 -0.0541
20815W        W37662   1.133   0.921   1.721  0.0250  0.1120 -0.0060
20816W        W37663  11.284  15.241  13.233  0.1794  0.1292  0.1167
20817W        W37664   2.044  14.169  14.415  0.1464  0.1760  0.1352
20818W        W37665   2.921  16.811   3.943  0.1193  0.3441  0.0964
20819W        W37666   2.903  14.663  11.715  0.2475 -0.0533 -0.1838
20820W        W37667  12.206  12.254   6.220  0.3558 -0.1125  0.1867
20821W        W37668  13.340  14.051  13.419  0.0213 -0.0431  0.1768
20822W        W37669  14.034   8.612  12.237 -0.1290 -0.2307 -0.2391
20823W        W37670   8.084   3.151   5.485 -0.1187 -0.0033  0.0162
20824W        W37671  15.234   8.276  12.865  0.0118 -0.4081 -0.1908
20825W        W37672  16.438   5.563  13.142  0.1606  0.3593 -0.1022
20826W        W37673   4.246   4.827   0.761 -0.2739 -0.1706  0.0004
20827W        W37674   1.873   6.288   3.185  0.1142  0.0694 -0.2951
20828W        W37675   2.456  11.924  16.072  0.2524  0.1555 -0.1442
20829W        W37676   5.796   9.724   2.673  0.1750 -0.2408 -0.0495
20830W        W37677   7.913  13.876   0.527  0.3235 -0.2001  0.1993
20831W        W37678  12.876   5.851  16.338 -0.0399 -0.1245 -0.2310
20832W        W37679   0.629   2.914   3.369 -0.2024  0.1196  0.1849
20833W        W37680  16.802   2.074  14.729  0.2747 -0.1523 -0.2484
20834W        W37681  11.945   3.481   1.217 -0.0158 -0.0562 -0.0154
20835W        W37682   1.069  17.815   2.655 -0.3002  0.3992  0.0951
20836W        W37683   5.721   9.713   5.831 -0.2493 -0.2170  0.0317
20837W        W37684   3.131   9.323   4.380  0.0900  0.0270 -0.1307
20838W        W37685   1.244  13.693   1.017 -0.1117  0.0587  0.0560
20839W        W37686   2.399  15.696   0.037 -0.1461  0.0180  0.0016
20840W        W37687  12.339  18.352   1.829  0.2150 -0.1060  0.1799
20841W        W37688  13.197  13.334   0.386 -0.3020 -0.1470  0.0808
20842W        W37689   3.773   9.973  11.850  0.2499  0.3201  0.3009
20843W        W37690   3.608  14.572  12.736  0.2849  0.1100 -0.2799
20844W        W37691   9.032  17.067  14.645  0.0419  0.0045 -0.2321
20845W        W37692   7.665   8.697  14.720 -0.0804  0.1767  0.3960
20846W        W37693   8.115  13.825   2.243 -0.0371  0.3621 -0.1807
20847W        W37694  14.684  11.308   3.403  0.2050 -0.0565 -0.0284
20848W        W37695  14.077  13.110  10.418  0.2344  0.1259 -0.2286
20849W        W37696  14.029  14.233  14.435 -0.2101  0.0704  0.0523
20850W        W37697   2.437   5.619  15.378  0.0631 -0.1805 -0.0397
20851W        W37698  15.432  12.561   3.378  0.5349  0.0208 -0.2444
20852W        W37699  17.909   7.272   1.161 -0.1255 -0.0041 -0.3887
20853W        W37700   6.048  16.345  12.625 -0.0763 -0.4021  0.0417
20854W        W37701   1.077   4.830   0.445 -0.4000 -0.3571  0.1654
20855W        W37702   0.916  12.937  13.787 -0.0962 -0.0383 -0.2057
20856W        W37703   8.615  12.343   4.108 -0.1556  0.2853 -0.0867
20857W        W37704  13.257  15.255   4.965 -0.2792  0.0636  0.0296
20858W        W37705  18.002   8.784  16.248 -0.0796  0.2290 -0.0780
20859W        W37706  11.470   1.627   2.834 -0.0610 -0.3016 -0.1020
20860W        W37707   4.968  11.028  15.724  0.1329  0.0187  0.5819
20861W        W37708   4.293  10.224   1.203 -0.0370 -0.2739  0.1867
20862W        W37709  15.066   0.899   1.393  0.1811 -0.1462 -0.0593
20863W        W37710   1.902  14.091   0.384  0.0528  0.1434 -0.2662
20864W        W37711  10.447   7.052  11.385 -0.0527  0.1584  0.2458
20865W        W37712  14.623   7.256   4.460  0.0458  0.1594 -0.0316
20866W        W37713   2.756  11.306   1.164  0.1780  0.1919 -0.2143
20867W        W37714   4.991  17.529   0.079  0.0021 -0.0261 -0.0474
20868W        W37715  15.340  12.480  11.883  0.1997 -0.1657  0.0060
20869W        W37716  16.375  13.175   4.406 -0.0935  0.1768 -0.1938
20870W        W37717   3.094   2.919  13.371  0.1596  0.0963 -0.1997
20871W        W37718   9.854   3.701  13.119  0.1938  0.3111  0.2639
20872W        W37719   1.519   4.036   0.406  0.2336 -0.0873 -0.0091
20873W        W37720  18.296  15.691  12.473 -0.0396 -0.0647  0.2099
20874W        W37721   1.337   0.047  14.769  0.1028 -0.1723 -0.1035
20875W        W37722   9.633  13.670   3.490 -0.0621 -0.0632 -0.3562
20876W        W37723  12.523   2.391   0.083  0.1641  0.0898  0.1455
20877W        W37724  10.010   8.757   3.150  0.1634 -0.0839  0.0844
20878W        W37725  11.054   5.126   1.123 -0.2922 -0.1947 -0.0670
20879W        W37726  17.374  16.022   3.784  0.1725  0.0725  0.1136
20880W        W37727  12.709   7.175   4.836  0.2376 -0.0611  0.1252
20881W        W37728   8.532  10.218   3.536 -0.0638 -0.1936  0.2965
20882W        W37729   9.711   1.806   4.645  0.1254  0.1207 -0.1285
20883W        W37730  14.962   2.066  11.599 -0.0579 -0.1652 -0.0300
20884W        W37731  11.029   0.131   1.275 -0.2182 -0.0574 -0.0175
20885W        W37732   8.139  11.114   3.019 -0.2173 -0.0990  0.2193
20886W        W37733  14.430   4.544  12.955 -0.2236  0.0429  0.0593
20887W        W37734  10.901   9.864   2.347 -0.1712 -0.4677 -0.3688
20888W        W37735  12.369   3.903   1.218 -0.0119  0.2475  0.2389
20889W        W37736   7.169  12.137   5.971 -0.2413  0.2056  0.2830
20890W        W37737  12.269  11.693   4.917  0.0555  0.0966  0.0140
20891W        W37738  17.148   7.792   4.257  0.4712 -0.2166 -0.1060
20892W        W37739   1.192  17.406  14.321 -0.0405 -0.5084 -0.0578
20893W        W37740   8.659   4.094  15.168 -0.0288  0.0528  0.2421
20894W        W37741  10.418  15.388  16.064 -0.1920 -0.2064  0.0370
20895W        W37742  17.313   9.207   5.086 -0.0349  0.1603  0.2678
20896W        W37743  10.067  13.823   0.754  0.1302  0.1791  0.2624
20897W        W37744  16.347  13.750  11.967 -0.0212 -0.0776 -0.3431
20898W        W37745  11.724   1.815   0.099  0.1537 -0.4625 -0.1479
20899W        W37746   4.110  16.542  15.978 -0.0695 -0.0209 -0.2894
20900W        W37747   9.274  17.662   3.426  0.2142 -0.2129 -0.0746
20901W        W37748  13.273   1.400  12.535 -0.1877 -0.1395  0.0194
20902W        W37749   9.141  11.238  13.776  0.3020  0.2755 -0.0497
20903W        W37750  11.913  17.678  12.139  0.0387 -0.1792 -0.2780
20904W        W37751   6.238  17.456   5.115 -0.3180  0.4108 -0.1510
20905W        W37752   7.514   5.604  16.354  0.0772 -0.0333  0.2250
20906W        W37753  16.283  11.188   3.886  0.0967 -0.1720  0.1052
20907W        W37754  12.795   3.845  15.275  0.0560 -0.1981 -0.2918
20908W        W37755   5.383  10.620   2.333 -0.2030  0.3652  0.1199
20909W        W37756   3.819   1.723   3.059 -0.2493  0.0225 -0.1228
20910W        W37757   8.915  14.995   1.913 -0.3288 -0.1858 -0.1765
20911W        W37758  18.357   8.452   0.057 -0.4240  0.1151  0.1888
20912W        W37759   8.697  10.637  15.007 -0.1850  0.0688  0.0505
20913W        W37760  13.698   3.284   3.355  0.1571 -0.3170  0.1913
20914W        W37761  12.688  17.264   4.197 -0.0566  0.0522 -0.0782
20915W        W37762   5.171   0.856  12.992  0.1628 -0.1394  0.0742
20916W        W37763   2.076   3.477  13.717  0.3364 -0.1111  0.0729
20917W        W37764  16.336  13.781   2.499  0.2973 -0.0609 -0.1553
20918W        W37765  12.376  10.818   4.618 -0.1208 -0.1705 -0.0556
20919W        W37766  11.130   0.730   2.563 -0.2175 -0.4503 -0.0566
20920W        W37767  11.971   8.602  12.686 -0.1852  0.2173  0.1319
20921W        W37768  13.681   4.037   2.282 -0.2104  0.1693  0.1506
20922W        W37769  15.268   7.785   0.439  0.1537 -0.1467 -0.2092
20923W        W37770  10.229  12.528  15.884 -0.0690  0.1725 -0.3542
20924W        W37771  17.002   6.950  11.706 -0.3983  0.3966  0.2495
20925W        W37772  10.848  14.503  13.337  0.1347 -0.1251  0.2249
20926W        W37773  15.192   3.928   2.814  0.2323 -0.1355 -0.0680
20927W        W37774   9.432   3.436   4.400  0.0151  0.0560  0.4715
20928W        W37775   9.533  11.834   1.499 -0.0968 -0.5858  0.0149
20929W        W37776   5.103   3.981  14.107  0.2165 -0.2675  0.2072
20930W        W37777  10.411   3.715  16.164 -0.1384  0.0769  0.0338
20931W        W37778   5.515  10.342   1.304  0.0084 -0.4309 -0.0903
20932W        W37779   5.850   9.068   1.570  0.0491 -0.0404  0.1239
20933W        W37780   5.963   2.031   3.535  0.0614 -0.0539  0.2378
20934W        W37781   7.816   1.626   4.831 -0.1676 -0.1153 -0.1040
20935W        W37782  10.044   1.782  13.724  0.1355 -0.1856  0.0386
20936W        W37783   2.862  11.567  14.121  0.0571 -0.1434 -0.0727
20937W        W37784  12.654   9.468  15.245  0.2640 -0.0157 -0.1276
20938W        W37785   6.071   8.898   2.788  0.0350  0.1292  0.2221
20939W        W37786   3.526  17.444   6.253  0.2052  0.3968  0.2419
20940W        W37787   8.598   8.262   0.830  0.0678  0.0761  0.1794
20941W        W37788   7.492   5.343  14.356  0.1834 -0.0242 -0.0404
20942W        W37789  13.543  10.662   0.283  0.4034 -0.3856  0.0973
20943W        W37790  15.324  10.684  11.719 -0.3070  0.0164 -0.1067
20944W        W37791  18.363   4.681   9.766 -0.1282 -0.2271  0.1457
20945W        W37792   9.028  14.047   1.240 -0.0863 -0.3146  0.0906
20946W        W37793  15.530   3.198  14.018  0.1054  0.4795 -0.1306
20947W        W37794   7.639   4.875  12.694  0.0206 -0.3925 -0.1824
20948W        W37795  10.245   6.622   0.556 -0.2419  0.2694 -0.0813
20949W        W37796  14.616   6.038  13.514 -0.0746  0.1893 -0.3651
20950W        W37797  15.678   4.802   3.131 -0.1949 -0.1700  0.0827
20951W        W37798  15.959  17.848   2.041  0.3571 -0.0617 -0.1287
20952W        W37799  15.563  14.830   2.209  0.1315 -0.0830 -0.2128
20953W        W37800   2.978   8.247  15.868 -0.2563  0.2908  0.0791
20954W        W37801  18.007   1.393  14.391  0.1634  0.1090  0.0229
20955W        W37802   6.533   7.021  16.363  0.1681 -0.1961 -0.0531
20956W        W37803   2.730  12.166   0.070 -0.0646  0.3110  0.3435
20957W        W37804  15.993   8.351   3.677 -0.0451 -0.4367 -0.1727
20958W        W37805   3.205  14.899   2.204 -0.1484 -0.1065  0.0446
20959W        W37806  15.781   1.854  14.948 -0.0158 -0.0325  0.0990
20960W        W37807   9.080  12.596   0.339 -0.4822  0.1259  0.0563
20961W        W37808   2.073  11.700  11.878  0.2655  0.0537  0.3188
20962W        W37809   7.088  16.577  12.775  0.2415 -0.1450 -0.1441
20963W        W37810   7.671  17.165   2.517  0.1981  0.1858  0.2850
20964W        W37811   1.222  10.424  15.559 -0.2330 -0.0010  0.1928
20965W        W37812   7.430   4.397   5.908  0.1461 -0.0840  0.2122
20966W        W37813   0.672  11.506  11.362 -0.2921 -0.1066  0.0379
20967W        W37814   9.583  16.057   3.875  0.1003  0.2690 -0.0113
20968W        W37815   6.869  14.833   4.381 -0.1579 -0.1029  0.0706
20969W        W37816  12.255   9.337  13.411 -0.2629 -0.2334 -0.0527
20970W        W37817   6.459   5.049   0.324 -0.1992 -0.2283  0.0466
20971W        W37818  17.097  17.021   3.168  0.1545 -0.0595  0.3385
20972W        W37819   2.651   1.888   3.214 -0.4327  0.1623 -0.1349
20973W        W37820  11.281   5.338   5.851  0.0767 -0.1741  0.0643
20974W        W37821   3.473   8.438   1.176  0.1220  0.0448 -0.0360
20975W        W37822   9.146  14.407   2.767  0.0938  0.5457 -0.1630
20976W        W37823   9.238   5.538   2.334 -0.3131 -0.3864  0.0309
20977W        W37824   0.678   7.911  12.464  0.1005  0.3499 -0.0992
20978W        W37825   4.030   3.171   1.528  0.0802 -0.1046 -0.0764
20979W        W37826  13.959   1.543   3.323  0.0609 -0.3848  0.0112
20980W        W37827   5.323   0.962  11.617  0.1276 -0.1625 -0.0918
20981W        W37828   5.259   6.779   1.029  0.3559  0.1513 -0.1050
20982W        W37829  12.393  10.091  14.647 -0.2990  0.5483  0.2248
20983W        W37830  11.110  10.651   3.980 -0.0313  0.2467 -0.0295
20984W        W37831   1.629   7.561  15.520 -0.0906  0.0981 -0.2427
20985W        W37832   9.823  15.967   1.221 -0.0223  0.2155 -0.0018
20986W        W37833   9.332   1.563  14.222  0.4082 -0.1181 -0.0927
20987W        W37834  17.585  16.473  13.106 -0.0143 -0.0718 -0.2194
20988W        W37835   6.270   8.376  13.765 -0.2550  0.1135 -0.0246
20989W        W37836   6.660  15.436  13.219  0.2591  0.0533 -0.1099
20990W        W37837  13.552  14.641   3.306  0.0311 -0.2355  0.0724
20991W        W37838  14.665  11.777  12.185 -0.0060  0.0528  0.0744
20992W        W37839  13.658   8.384  14.419  0.3291 -0.0715 -0.0100
20993W        W37840  14.674  12.923  12.901 -0.5136 -0.0599 -0.0362
20994W        W37841  15.513   4.160   4.372  0.3179  0.0864 -0.0017
20995W        W37842   4.156   9.827   5.374 -0.0017 -0.0676 -0.0777
20996W        W37843   1.195   8.272  14.957  0.0236 -0.0595  0.2038
20997W        W37844   0.723   1.605  11.174 -0.0204 -0.2554 -0.1743
20998W        W37845   9.298   3.372  15.655 -0.2808  0.0110 -0.1593
20999W        W37846   3.576   0.249   0.465  0.0712 -0.1816  0.1803
21000W        W37847   3.159   8.746   0.740 -0.1875  0.2043 -0.0224
21001W        W37848   7.342  11.693   3.994  0.0934  0.2862  0.1270
21002W        W37849  15.501   9.437   4.997  0.0138  0.1829  0.2047
21003W        W37850  16.252   2.722  15.656  0.3765 -0.1832 -0.0432
21004W        W37851   0.356   5.485   4.731  0.0830  0.3122  0.2014
21005W        W37852  11.527   4.452   6.084 -0.2243 -0.1201 -0.0095
21006W        W37853  16.036   5.976  16.201  0.1469  0.5632 -0.0192
21007W        W37854  17.800  15.896   4.672  0.0231  0.1562  0.0641
21008W        W37855   5.242   1.878  12.450  0.0037 -0.0536 -0.0011
21009W        W37856   4.185  17.541   2.942  0.2077 -0.2062  0.2741
21010W        W37857  16.356  16.048   3.016 -0.2992  0.1515 -0.3663
21011W        W37858  13.918  12.913  15.643 -0.1064  0.0855 -0.1215
21012W        W37859   7.396   6.668   4.676 -0.1744  0.0963  0.1177
21013W        W37860  14.139   3.852  15.366  0.1557  0.1281  0.2632
21014W        W37861  11.801   6.156   3.247 -0.0632  0.3014 -0.4542
21015W        W37862   1.731  12.489   3.682 -0.2263 -0.1643  0.0506
21016W        W37863   6.205   5.233  13.570  0.1809 -0.0824 -0.0547
21017W        W37864  13.198  14.537  14.776 -0.0083  0.1090 -0.3055
21018W        W37865   2.802  10.252   4.503 -0.2444  0.3129  0.1434
21019W        W37866  14.109   3.731   4.096  0.0935 -0.1732 -0.0345
21020W        W37867  12.622  11.440  11.776  0.1366 -0.0628 -0.1793
21021W        W37868   7.739   9.497  16.308  0.1588  0.2023  0.1053
21022W        W37869   8.402   8.910   1.703 -0.0889  0.1471  0.0074
21023W        W37870   4.840  11.893  12.550  0.0521 -0.1342 -0.0126
21024W        W37871  17.635  16.028   1.067  0.0217 -0.0717 -0.0552
21025W        W37872  16.948   5.516  13.238 -0.0715 -0.1737  0.2037
21026W        W37873   9.131   3.059   3.604 -0.3355 -0.1243 -0.0847
21027W        W37874   4.005   3.635   3.236 -0.4059 -0.0042  0.3223
21028W        W37875   2.765   9.411   4.950 -0.0384 -0.2254 -0.3610
21029W        W37876  14.283   3.695   4.627  0.1207 -0.2508 -0.0517
21030W        W37877  16.451   0.123   2.640 -0.1467  0.4407  0.1193
21031W        W37878  12.249  16.082   1.156 -0.0235  0.2504 -0.3103
21032W        W37879  16.669  16.951   2.776  0.0015  0.0251 -0.0549
21033W        W37880  13.888  17.923   5.796  0.0283 -0.1373  0.1404
21034W        W37881  14.608  17.075   1.689 -0.0908 -0.3602 -0.0411
21035W        W37882  11.642   6.222   2.741  0.1596 -0.0535  0.1610
21036W        W37883   9.884   7.114   2.531 -0.2181  0.0584  0.1251
21037W        W37884   4.658   7.865   5.146 -0.0485 -0.2610 -0.0172
21038W        W37885   1.454  13.504  16.152  0.0849  0.1014 -0.0464
21039W        W37886   3.045   5.331  13.300 -0.0153 -0.1416 -0.2400
21040W        W37887   8.306   5.759  13.269 -0.1116 -0.2031 -0.2861
21041W        W37888   8.997  14.672  14.325 -0.0457  0.0425 -0.1038
21042W        W37889   9.505  11.209   4.387  0.1061 -0.1937 -0.0541
21043W        W37890   9.168   6.314  12.363  0.0005  0.1065 -0.5036
21044W        W37891   0.709  10.473  11.488 -0.0603  0.0463  0.1093
21045W        W37892   3.632   4.958  15.295  0.1501 -0.1874 -0.1979
21046W        W37893   5.899   1.967  14.459  0.0002  0.0505  0.0536
21047W        W37894   9.980   0.270  12.851  0.0486  0.2362  0.1192
21048W        W37895   7.115  17.409   1.671 -0.2658  0.1556  0.4183
21049W        W37896   1.540  11.093   3.436  0.1491 -0.1147  0.0046
21050W        W37897  15.905  16.311  14.563  0.3431  0.0042 -0.4575
21051W        W37898   3.590   5.743  15.439 -0.2570  0.0312 -0.1518
21052W        W37899  17.200   3.807   0.692 -0.1419  0.2101 -0.0567
21053W        W37900   2.349   3.294  14.867 -0.1541 -0.0986 -0.1734
21054W        W37901   8.259   9.999  14.218  0.1954 -0.2936  0.1336
21055W        W37902  14.537   3.456   3.837  0.2692 -0.0163  0.1887
21056W        W37903   6.002  17.272  15.492  0.1199 -0.1033  0.2419
21057W        W37904  16.936   1.752   3.454  0.0307 -0.0655 -0.1064
21058W        W37905  13.214   3.461  14.572 -0.2277 -0.1333  0.0394
21059W        W37906   5.661   8.405  15.817 -0.0218 -0.2819 -0.1666
21060W        W37907   1.079  13.844  15.983 -0.0899 -0.0619  0.0962
21061W        W37908  17.792   2.452  15.965  0.2532  0.3397  0.1270
21062W        W37909  11.099   3.002  13.715 -0.0520 -0.2350 -0.2545
21063W        W37910   5.132   6.101  12.295 -0.2527 -0.1663 -0.1530
21064W        W37911   4.941  10.992   0.700 -0.1551 -0.0442 -0.0647
21065W        W37912   9.684  12.744   3.961 -0.0391  0.1691 -0.1343
21066W        W37913   8.734  12.951  13.514 -0.2495  0.0163 -0.0817
21067W        W37914   2.057   7.808   2.559 -0.0511 -0.5586 -0.2760
21068W        W37915  18.060   7.656   3.012  0.2301 -0.2765  0.0875
21069W        W37916   9.723   1.136  15.131 -0.0221 -0.0083 -0.1074
21070W        W37917  17.706  17.579   1.999 -0.2559 -0.2330 -0.1455
21071W        W37918   5.912   1.953  11.923 -0.0267 -0.3495  0.4526
21072W        W37919   4.975   8.558  12.932 -0.3471  0.0249  0.1214
21073W        W37920  13.629  10.445   5.261 -0.1218  0.1776  0.0041
21074W        W37921  12.023   5.726  14.401 -0.1111 -0.4496  0.0861
21075W        W37922   4.489   3.349  16.096 -0.1726 -0.0795  0.0742
21076W        W37923   6.010  16.088  16.133 -0.0728 -0.0202 -0.3603
21077W        W37924  16.404   2.721   0.243  0.0884 -0.0187 -0.0735
21078W        W37925  11.468  11.841  14.381 -0.0288 -0.2534  0.2049
21079W        W37926  11.702  16.693  15.440 -0.0155 -0.1385  0.0365
21080W        W37927  12.447  13.763  14.224 -0.3016 -0.2391  0.1358
21081W        W37928   6.611   8.462   3.973  0.1370 -0.2468  0.3939
21082W        W37929   6.350   9.840   3.502  0.3844  0.0269  0.0149
21083W        W37930   6.695   3.481  13.084  0.0111  0.0315  0.1447
21084W        W37931   2.052   5.367   2.508 -0.1782 -0.0921  0.1130
21085W        W37932   5.837   4.530   0.661 -0.2389  0.0551  0.3870
21086W        W37933  13.764   0.452  13.013  0.0802  0.0803 -0.0426
21087W        W37934   9.850  10.735   0.863  0.0802  0.1345  0.1178
21088W        W37935   3.078  16.271   5.034  0.2569 -0.1174 -0.2179
21089W        W37936   8.464   6.871  16.239  0.0737  0.0277 -0.5984
21090W        W37937   2.200   2.081   3.213 -0.1650 -0.2668  0.1133
21091W        W37938   8.130  18.093   2.651  0.1120  0.0531  0.0934
21092W        W37939  15.606   3.979  11.277 -0.4152  0.0032  0.0032
21093W        W37940   3.433  14.725  14.411  0.1111  0.0826  0.0868
21094W        W37941   0.806  10.062   2.490  0.0818  0.0331  0.0608
21095W        W37942  13.613   5.027  14.540 -0.0781 -0.0892  0.0053
21096W        W37943   2.635   8.574   2.746 -0.3312 -0.1989  0.1187
21097W        W37944   4.961  17.001   0.790 -0.0042 -0.0227  0.2413
21098W        W37945  10.440  15.084   0.594 -0.1988  0.0430 -0.3613
21099W        W37946   6.537  16.517   1.778 -0.0358 -0.0948  0.1114
21100W        W37947   9.280   3.634  11.286 -0.0850  0.4579 -0.0992
21101W        W37948   3.414   7.981   3.187 -0.1996 -0.2662 -0.0128
21102W        W37949   5.313  17.413  12.295  0.2271 -0.1018 -0.0486
21103W        W37950   8.725  12.166  13.901  0.2202  0.1687 -0.0514
21104W        W37951   1.167   8.043   2.046  0.1332  0.0989 -0.4792
21105W        W37952  16.979   8.106  14.130  0.0519  0.0453  0.0145
21106W        W37953   0.910  15.328   2.476 -0.0902  0.0598  0.1146
21107W        W37954  10.035  15.402   3.488  0.0302  0.0147 -0.1004
21108W        W37955   2.063  10.230   3.649 -0.0469 -0.0954 -0.0529
21109W        W37956  12.273   8.781  13.993  0.1567  0.2043 -0.0193
21110W        W37957  17.837   9.778   0.400 -0.1528 -0.2524 -0.0491
21111W        W37958  10.793   8.324  12.815 -0.0555 -0.1821  0.3175
21112W        W37959  16.102   7.737  14.892 -0.1085  0.0789 -0.1830
21113W        W37960   0.061   4.518   2.801  0.0603  0.2538  0.1686
21114W        W37961   6.407  10.940   1.228  0.0506  0.1677  0.2057
21115W        W37962  14.570  13.728   0.972 -0.0507  0.0313  0.3974
21116W        W37963   3.299  16.621  12.963 -0.0451 -0.0624  0.3908
21117W        W37964  11.163  14.421  15.374  0.0274 -0.0752  0.0113
21118W        W37965  12.951  15.121  14.230  0.0151 -0.1007  0.1949
21119W        W37966  10.654  10.510   1.080 -0.2094  0.1005  0.2103
21120W        W37967   8.580   7.222  13.709  0.2891  0.1112  0.4421
21121W        W37968   9.877   0.513  11.728 -0.0759  0.2139  0.0375
21122W        W37969  11.081  10.437  15.096 -0.2081 -0.0656  0.1236
21123W        W37970   3.792  10.904  15.871  0.0455 -0.0388  0.1122
21124W        W37971  12.640   6.951   1.735 -0.2236  0.0588  0.0437
21125W        W37972   1.821   7.639  13.775  0.0997  0.1171 -0.1953
21126W        W37973   9.520   8.809   3.216  0.1231  0.1510 -0.1319
21127W        W37974   6.040   9.682  14.004 -0.0742 -0.0502 -0.4409
21128W        W37975  15.087  12.417   5.035  0.1680  0.3983 -0.0601
21129W        W37976  16.456   6.313  12.434  0.1154 -0.2510  0.0985
21130W        W37977  14.361   8.905  16.118 -0.0092  0.0822 -0.1027
21131W        W37978  13.222   4.627   1.274  0.0829  0.0192  0.2590
21132W        W37979   8.763   1.759   1.163  0.0420 -0.0302  0.1778
21133W        W37980  13.174  13.652   2.328 -0.1991 -0.3947 -0.0715
21134W        W37981   1.805   7.885  15.850  0.1238  0.0593 -0.2047
21135W        W37982  12.459  12.896  13.178  0.2611  0.3450 -0.1621
21136W        W37983   8.231   3.669   1.222  0.0388 -0.0591 -0.0352
21137W        W37984  15.700   8.190  13.465  0.1487  0.0109  0.2344
21138W        W37985  10.864  16.676  14.037  0.3015 -0.0954 -0.0546
21139W        W37986  17.385   0.220  14.651  0.1229  0.1327 -0.1310
21140W        W37987   9.267  17.244   0.629  0.1744 -0.0182 -0.0465
21141W        W37988   1.324  16.166   0.946  0.1434 -0.2662  0.0309
21142W        W37989   5.481   1.728  13.326  0.1663 -0.1854 -0.1032
21143W        W37990   9.209  13.911  12.696  0.2845 -0.1186  0.2689
21144W        W37991  12.922   3.228   1.717  0.1490  0.2682  0.1187
21145W        W37992   3.502   1.034   5.324 -0.0559 -0.1010 -0.2426
21146W        W37993   8.587   4.493  12.290 -0.0620  0.0789  0.0418
21147W        W37994  11.533   2.292  11.735  0.1251  0.1486 -0.0655
21148W        W37995   5.753   8.561   1.291  0.2655  0.0884 -0.2706
21149W        W37996   9.605   8.511   0.533  0.0592 -0.2602 -0.2441
21150W        W37997  15.625  17.038   0.161  0.0531  0.0011 -0.0281
21151W        W37998  12.131  13.475   2.050 -0.2156  0.0140  0.2533
21152W        W37999  17.575  11.410  10.523  0.0731 -0.0774  0.0399
21153W        W38000   2.895  11.329   1.939  0.0567  0.0240  0.2167
21154W        W38001   5.779   3.863  16.335  0.0835 -0.7739 -0.0827
21155W        W38002   0.649   1.804   0.015  0.3902 -0.0974 -0.0719
21156W        W38003   3.360  14.511  11.657 -0.2103 -0.3353 -0.1422
21157W        W38004   4.783   8.998  15.290  0.2914 -0.1971  0.2285
21158W        W38005   7.129   7.635  11.498  0.2922 -0.1631 -0.0356
21159W        W38006   0.088  13.337   1.901  0.0548  0.2641  0.2815
21160W        W38007   8.508   0.111   2.947  0.3037 -0.2203  0.0603
21161W        W38008   9.185   7.713   1.258 -0.0229  0.0875  0.2454
21162W        W38009   1.699   7.409  12.248  0.1385 -0.3674 -0.0349
21163W        W38010  11.581  10.042  15.169  0.1463  0.3984 -0.0455
21164W        W38011  11.279  16.066  14.742 -0.0891  0.2359 -0.1920
21165W        W38012  11.648   8.682   1.246 -0.0966  0.0141  0.0634
21166W        W38013   6.524   5.427  10.130  0.0979  0.2318  0.0887
21167W        W38014   1.970   6.954  14.315 -0.1181  0.0203 -0.2785
21168W        W38015  12.935  12.711  15.402 -0.2790  0.2449  0.5507
21169W        W38016   7.946  11.955   4.625 -0.3752 -0.0762 -0.3490
21170W        W38017   3.042   2.979   3.520 -0.2904 -0.2517  0.3217
21171W        W38018  12.636   2.006  13.225  0.1046 -0.0966  0.1537
21172W        W38019   8.085  18.333   2.185  0.2973 -0.0681  0.0570
21173W        W38020   3.243   5.447  11.998  0.0754 -0.0513  0.2735
21174W        W38021  11.489   9.838  14.385  0.1977  0.1016  0.2004
21175W        W38022   1.681   7.228  13.228  0.1391  0.1760  0.0330
21176W        W38023   4.348   1.404  16.252  0.0385 -0.1607 -0.0735
21177W        W38024  10.670  11.345  14.805 -0.1670  0.1815  0.0571
21178W        W38025   9.052  16.336   5.988  0.2176  0.2121 -0.3477
21179W        W38026   4.115   8.941   0.218  0.0709 -0.1788 -0.1978
21180W        W38027  16.159   9.505   2.397  0.0339  0.2737 -0.1304
21181W        W38028   8.647   5.387  13.490  0.3421  0.1246 -0.0240
21182W        W38029   3.004   0.568   0.933  0.2014 -0.0237  0.0452
21183W        W38030  12.329   9.278  16.243  0.2446 -0.0641 -0.4431
21184W        W38031   0.690   7.615  11.131 -0.0107  0.1850 -0.1665
21185W        W38032   6.990  17.744  11.838  0.1224  0.0176  0.1294
21186W        W38033   3.710  10.774  13.145  0.1435  0.0959  0.0455
21187W        W38034  12.789  12.178  13.614 -0.0214  0.1409  0.0652
21188W        W38035  15.988   5.170   0.308  0.0507  0.0908  0.2691
21189W        W38036  13.789   4.036   0.951  0.1282 -0.3484 -0.0799
21190W        W38037   4.394  14.820   3.070  0.1197  0.4958  0.0222
21191W        W38038  17.634   3.312  16.261  0.1900 -0.0434 -0.0129
21192W        W38039  13.269   2.413  15.827 -0.0211  0.2290  0.2288
21193W        W38040  17.018   0.500  14.767 -0.0346 -0.1043 -0.1412
21194W        W38041  11.115  13.529   2.806  0.0970 -0.3118 -0.0092
21195W        W38042  16.970   6.235  15.675  0.2685  0.6420 -0.0733
21196W        W38043  10.078   5.795  11.747 -0.1543  0.2918 -0.0727
21197W        W38044   4.559   3.635  12.082 -0.2033 -0.2576 -0.0716
21198W        W38045   9.126   5.556   4.102  0.2210  0.1008 -0.0522
21199W        W38046   4.273  15.144   0.949 -0.0718 -0.2833  0.1035
21200W        W38047  14.750   6.788   2.310  0.5493  0.1166 -0.0215
21201W        W38048   8.511  11.205   4.585 -0.1541  0.0128  0.0506
21202W        W38049   9.384   1.182   5.167 -0.1507 -0.4049 -0.0062
21203W        W38050   1.856  11.022  11.316 -0.3061  0.1145 -0.1733
21204W        W38051   2.003  17.386  12.840  0.2806  0.0790 -0.0308
21205W        W38052   3.849  16.942  14.074 -0.2839 -0.2069 -0.0955
21206W        W38053  14.785  18.066   1.706  0.1715  0.0060 -0.2669
21207W        W38054  13.487   8.311  16.240 -0.0213 -0.3493  0.0580
21208W        W38055   4.309  13.416  13.956  0.3975 -0.1322 -0.1849
21209W        W38056  10.306  14.107  15.354 -0.1933  0.0355 -0.1126
21210W        W38057   3.163  14.748  11.195 -0.0313  0.1178 -0.0526
21211W        W38058   6.836   2.366  15.823  0.3541 -0.0483  0.2710
21212W        W38059   9.164  16.914   3.427 -0.0543 -0.1176  0.0253
21213W        W38060  10.523   3.732  15.226  0.2985 -0.2411  0.1458
21214W        W38061   6.072  15.243  12.678 -0.0260  0.2718  0.1751
21215W        W38062  17.241  13.912   3.771  0.3615 -0.0171  0.1025
21216W        W38063   9.259   7.952  15.350 -0.1163  0.0113 -0.1838
21217W        W38064   7.327  14.752  12.721  0.0656 -0.1560  0.0306
21218W        W38065  10.664  10.002   6.422  0.1544  0.3557  0.0195
21219W        W38066  10.420   7.423   4.577  0.1217 -0.0877 -0.4096
21220W        W38067  15.719   7.880   3.762  0.1961 -0.0417 -0.2106
21221W        W38068   1.172   2.191  15.529 -0.1384 -0.1636 -0.0640
21222W        W38069  16.624   9.709   4.533 -0.0395 -0.2289  0.0698
21223W        W38070  17.048  17.597   5.290 -0.0693 -0.2038 -0.0756
21224W        W38071  15.949  12.835   4.302 -0.0833  0.1308 -0.0859
21225W        W38072  14.329   4.392   0.420  0.1464  0.2710 -0.0782
21226W        W38073   7.979   7.328  14.871 -0.0673 -0.1514  0.3084
21227W        W38074  10.823  15.095   3.064  0.1897 -0.2281 -0.0282
21228W        W38075   4.560   1.671  14.780 -0.5338 -0.0288 -0.0378
21229W        W38076  12.273   7.235   4.489 -0.2125 -0.1267 -0.1272
21230W        W38077   6.852   7.243  14.437  0.0973 -0.0953 -0.1700
21231W        W38078  13.906  17.761  15.529  0.0250  0.0743 -0.2890
21232W        W38079   8.350   8.628   4.075  0.0286 -0.3077 -0.1782
21233W        W38080  17.605  10.677   3.925  0.0383  0.1789  0.0089
21234W        W38081   6.368   5.547   0.072  0.1627 -0.0418 -0.1009
21235W        W38082   7.332  12.143  14.772  0.1505  0.1233 -0.0937
21236W        W38083   4.979  17.171  12.657 -0.0467  0.2132 -0.0041
21237W        W38084  14.266   8.692   4.240  0.3877  0.3820  0.0004
21238W        W38085  10.706   1.584  15.839 -0.1893 -0.2931 -0.2671
21239W        W38086  10.468   6.572  11.228  0.1115 -0.0377 -0.1237
21240W        W38087  15.949  14.702   2.725 -0.1011 -0.2235 -0.0027
21241W        W38088  17.325  13.631   2.635  0.4676 -0.1513  0.0563
21242W        W38089  12.017   6.606   0.998 -0.2142 -0.3671  0.0453
21243W        W38090   4.740   1.093   1.273  0.0497 -0.1902  0.0575
21244W        W38091   9.297   5.840  11.078 -0.1878  0.3649  0.2058
21245W        W38092  10.799  12.300   0.871 -0.0953  0.0984  0.0635
21246W        W38093   0.978   0.511   4.741 -0.3048  0.2100 -0.2104
21247W        W38094   5.176   8.368   3.372 -0.0964 -0.0037  0.0580
21248W        W38095   5.131  11.304  16.175  0.1142 -0.2338  0.0177
21249W        W38096  17.733   8.051   2.774 -0.0939 -0.0232  0.2533
21250W        W38097   8.729   2.947   3.872  0.0983  0.1961 -0.0705
21251W        W38098  17.984   5.168  13.489  0.2551  0.2073 -0.0476
21252W        W38099  16.489  15.119   5.543  0.1955 -0.2321  0.0732
21253W        W38100  16.832   1.588   4.497 -0.0189  0.2152 -0.1899
21254W        W38101  17.625   7.654  14.159 -0.1208 -0.1656 -0.0673
21255W        W38102   7.990   1.295   3.849  0.0220 -0.0672  0.4450
21256W        W38103   2.446  15.881   3.150  0.1435 -0.1289 -0.3975
21257W        W38104   7.667  14.487   1.774 -0.0859 -0.1579  0.0065
21258W        W38105   9.560  12.721   0.779 -0.1301 -0.0761  0.0198
21259W        W38106   8.282   7.270   3.234 -0.0548  0.1469  0.1051
21260W        W38107   1.395   3.737   4.813  0.2841  0.0169 -0.1172
21261W        W38108   3.746   6.288   0.806  0.0869 -0.2323 -0.3619
21262W        W38109  12.051  18.109  12.462 -0.1634 -0.2949 -0.0139
21263W        W38110   7.949   2.770  11.353 -0.0195  0.0373 -0.1107
21264W        W38111  11.151   2.278   5.075  0.3225  0.2116  0.0410
21265W        W38112   8.694   2.601  12.379  0.3208 -0.2190 -0.2586
21266W        W38113  17.112  14.822   0.016 -0.0861  0.0020 -0.3694
21267W        W38114   4.386   1.850   0.890 -0.1576 -0.1866  0.2161
21268W        W38115  15.200  12.790  12.302 -0.0899 -0.0207  0.1365
21269W        W38116  13.291   4.984   0.865  0.1555 -0.4168 -0.0033
21270W        W38117   2.191  17.948  15.646  0.0366  0.0897  0.0275
21271W        W38118  10.100   0.922   2.420  0.2657  0.0126  0.3134
21272W        W38119   8.310   6.939   0.458  0.0128 -0.2186  0.0190
21273W        W38120   4.623   9.369   4.666  0.0998  0.1787  0.2115
21274W        W38121   6.686   3.475   2.211 -0.0445  0.0942 -0.0116
21275W        W38122  12.642  17.358  12.363 -0.0557 -0.0307 -0.1480
21276W        W38123   8.324  16.798   5.872  0.2961  0.4160 -0.1674
21277W        W38124  17.788  13.611  15.782  0.0819  0.0092  0.0224
21278W        W38125   1.038   8.062  12.003  0.2223 -0.2703 -0.0052
21279W        W38126  11.507  15.632  13.429 -0.0956  0.2258  0.0325
21280W        W38127   8.298  12.829  13.881  0.0542 -0.1633 -0.1347
21281W        W38128  10.250  17.286  13.159  0.0522 -0.1212  0.1492
21282W        W38129   3.673   8.338   0.723  0.0153 -0.2170 -0.0787
21283W        W38130  17.866   8.435   3.176 -0.2289 -0.0465  0.0787
21284W        W38131   6.678  13.852   4.872 -0.2464  0.1051 -0.0874
21285W        W38132   5.279  13.370   3.563  0.2159  0.0373 -0.0348
21286W        W38133  16.003   3.278  13.811 -0.1333  0.1755 -0.1333
21287W        W38134  10.892  15.607   5.130  0.1727 -0.1094 -0.2059
21288W        W38135  11.294   5.155  12.702 -0.1286  0.2669  0.2225
21289W        W38136   6.382   6.267  14.994 -0.0368  0.1508 -0.1541
21290W        W38137  15.343   5.700  11.158  0.1233  0.0991  0.3167
21291W        W38138   3.844   9.160   2.399  0.1152 -0.2353  0.0737
21292W        W38139   2.403   8.237   2.326 -0.0670  0.3112  0.1707
21293W        W38140  14.778  10.001   1.387  0.0296 -0.0583  0.2528
21294W        W38141  10.804  11.971   1.700  0.0971 -0.1705 -0.0863
21295W        W38142   7.337  14.503   5.458 -0.0425  0.0778 -0.1214
21296W        W38143  15.223  16.259  12.120 -0.1593  0.0144 -0.1233
21297W        W38144   5.006  15.059   0.275  0.0914  0.1956  0.2096
21298W        W38145  15.732  13.374   4.548 -0.0639 -0.0275  0.1902
21299W        W38146   2.308   5.706   1.316 -0.0602 -0.2651 -0.1254
21300W        W38147  12.483   9.719   0.191  0.1737 -0.5026 -0.1879
21301W        W38148   1.978   9.412   2.015 -0.1791 -0.0516 -0.3653
21302W        W38149   4.820   8.614   4.309  0.1736 -0.1228  0.3321
21303W        W38150  13.672  16.505   3.392  0.0119  0.0048  0.1785
21304W        W38151  16.813   2.649  13.550 -0.1775 -0.1585 -0.1243
21305W        W38152  15.939   6.033   4.629  0.1603  0.5426  0.0429
21306W        W38153  17.830   3.917  14.892  0.1776  0.1036 -0.1578
21307W        W38154   0.715  10.257  12.719 -0.0096  0.2307  0.1457
21308W        W38155  13.943   6.775   1.802  0.0724  0.0198  0.1272
21309W        W38156   2.850   2.662   4.733  0.1688 -0.0970 -0.3615
21310W        W38157  17.945   5.152   2.768  0.0833 -0.0518 -0.0305
21311W        W38158   7.482   8.816  13.701 -0.2921  0.0411  0.3214
21312W        W38159  15.427   2.437   3.021  0.0141 -0.1333 -0.0283
21313W        W38160  16.342  17.961   1.568 -0.0078  0.0449 -0.4248
21314W        W38161   0.732   7.535  13.271  0.0706  0.0352 -0.2155
21315W        W38162  12.268  15.474  13.660  0.1142  0.0919  0.2705
21316W        W38163   2.393  14.180   0.775 -0.1503 -0.0155 -0.0763
21317W        W38164   5.538  14.810   1.526  0.4446 -0.0398  0.2271
21318W        W38165  15.504  17.911  16.254 -0.1825 -0.1087  0.0974
21319W        W38166   7.629   7.803   3.558  0.1024 -0.1067  0.0376
21320W        W38167   9.381   0.030   4.895  0.2137  0.1752  0.0293
21321W        W38168   1.543  17.372   1.720 -0.0294  0.2173  0.0738
21322W        W38169  17.361   2.413  15.171  0.1655  0.0485  0.1369
21323W        W38170   9.780   8.620   4.239  0.0370 -0.0555 -0.2055
21324W        W38171   2.967   3.478  14.781 -0.3761 -0.0319  0.0692
21325W        W38172  17.892  13.098  11.909  0.0640 -0.0568  0.0025
21326W        W38173   0.417  13.625  14.997 -0.4346  0.1129 -0.0465
21327W        W38174  16.410  12.745   4.828 -0.3561 -0.0923 -0.0261
21328W        W38175  17.622   3.897  12.866 -0.0870  0.3216 -0.0444
21329W        W38176   0.370  14.574   0.650  0.0362  0.0101  0.0093
21330W        W38177   2.552   4.648  16.028  0.1987  0.0578  0.2050
21331W        W38178   6.902   1.637  11.300  0.0684 -0.1025 -0.0937
21332W        W38179  12.790   4.360  15.967  0.0294  0.2727  0.2753
21333W        W38180  15.897   6.298  11.203  0.0146  0.2504  0.3370
21334W        W38181   0.186   6.522   0.293  0.0329 -0.0038 -0.1078
21335W        W38182  18.348  12.357  14.772  0.1152 -0.0995  0.1558
21336W        W38183  16.290   6.436  16.219  0.2262 -0.0091 -0.2041
21337W        W38184  14.481   6.197   1.217 -0.1640 -0.1432  0.0540
21338W        W38185  13.049   5.745  11.373  0.1688 -0.1497 -0.0634
21339W        W38186   2.453  10.800   0.481 -0.2815 -0.0774  0.1382
21340W        W38187   8.066  14.810  14.928 -0.2230  0.2444  0.0469
21341W        W38188  12.897  10.530   0.944  0.2303 -0.1683 -0.1804
21342W        W38189   9.307  12.216  11.874 -0.0870 -0.2590 -0.0549
21343W        W38190  17.445   3.146   4.751  0.1047 -0.2827 -0.2417
21344W        W38191   1.601  11.944  15.014  0.1796 -0.2237 -0.1648
21345W        W38192  12.979   5.416   0.864  0.2642 -0.0612  0.2735
21346W        W38193   3.190  15.965   3.317  0.1375 -0.1729  0.4852
21347W        W38194   3.985  17.306  13.730 -0.2207 -0.1875 -0.1909
21348W        W38195   3.430  15.820   1.153 -0.0128 -0.0280 -0.1969
21349W        W38196  17.465  11.655  15.464  0.3894  0.2515 -0.2616
21350W        W38197  18.405  14.533  13.257 -0.0061  0.0821  0.0338
21351W        W38198  12.528   4.517  14.057  0.0724 -0.2446 -0.0342
21352W        W38199  13.995   7.230  11.564  0.0084  0.0421 -0.2960
21353W        W38200   2.294   5.102  12.240  0.1888 -0.1578  0.0250
21354W        W38201   6.222   4.244   3.878  0.0279 -0.0549  0.0221
21355W        W38202  10.098  13.040  12.703  0.0027 -0.0745 -0.1731
21356W        W38203  16.680   4.928   2.127  0.0286  0.0598  0.3191
21357W        W38204  16.821   1.756  14.357  0.2181 -0.1315  0.2345
21358W        W38205  13.247  12.047   0.910 -0.2734 -0.0079  0.2734
21359W        W38206   5.826  17.033   3.718  0.2314 -0.1505  0.1285
21360W        W38207  12.879  12.064   2.716  0.0170  0.0831  0.1105
21361W        W38208   1.255   5.170   4.462  0.1770 -0.0785 -0.0642
21362W        W38209  13.828  15.398   2.046  0.1018  0.0197  0.0594
21363W        W38210   6.791   4.599   3.401  0.2081 -0.0261 -0.2465
21364W        W38211  12.958   1.946  12.372 -0.2859  0.2097  0.6571
21365W        W38212   6.467  11.278   3.999  0.2279  0.3828  0.3237
21366W        W38213   6.845   5.460  16.282 -0.0838  0.0232 -0.0133
21367W        W38214  11.725  13.578   5.412 -0.1305 -0.1637 -0.4207
21368W        W38215  14.925   8.520  11.948 -0.0712  0.0584 -0.1673
21369W        W38216  15.174  17.021  12.179  0.0594 -0.1675 -0.1962
21370W        W38217   7.219  12.305   2.667  0.1662 -0.4486 -0.1992
21371W        W38218  15.659  17.424   1.833 -0.9163  0.1792  0.1718
21372W        W38219   4.565  12.676   0.211 -0.2670  0.3179  0.0598
21373W        W38220  14.859  15.635   1.627  0.1531  0.0897  0.0749
21374W        W38221   2.267   2.124   4.004  0.1863  0.0049 -0.1959
21375W        W38222  16.784  17.288  14.180 -0.1259 -0.1553 -0.1899
21376W        W38223  16.777   0.169  13.235  0.0134 -0.0262 -0.0978
21377W        W38224  10.140   2.834  15.132  0.1768  0.2540  0.2631
21378W        W38225  15.790   8.189   3.174  0.0092  0.1519 -0.0813
21379W        W38226   9.002  13.692  16.116 -0.0501  0.3246 -0.0426
21380W        W38227   3.171  11.355   1.425  0.0114 -0.0240 -0.0811
21381W        W38228   1.021   6.013  12.674  0.1066  0.2178  0.1111
21382W        W38229  12.729   7.452  13.808  0.2185 -0.0706  0.3169
21383W        W38230   4.972   7.488  11.163  0.1631  0.1984  0.2537
21384W        W38231  13.887   0.244   3.242  0.0042 -0.0905 -0.0386
21385W        W38232   4.530   1.319   2.125  0.0401 -0.0053 -0.3370
21386W        W38233   1.161  17.119   4.154  0.1352 -0.2592  0.0917
21387W        W38234   3.196  10.634  14.727 -0.0953  0.0746 -0.1111
21388W        W38235  13.087   5.611  15.781  0.0371  0.1068 -0.0260
21389W        W38236   9.613   3.752   3.091  0.2825  0.0410 -0.0576
21390W        W38237  11.265  13.175   4.734  0.1664  0.0180 -0.1571
21391W        W38238   2.410   8.920   0.183  0.0325 -0.2543  0.3018
21392W        W38239   6.575  13.482   2.302 -0.1242 -0.0519 -0.0339
21393W        W38240  15.171  12.352  15.943 -0.1731  0.2272  0.1537
21394W        W38241  18.412  10.855   0.995  0.0552 -0.1027  0.1590
21395W        W38242   0.874   2.354  14.870 -0.0497  0.0920  0.0795
21396W        W38243   7.198  11.095  14.337 -0.3961 -0.1455 -0.0158
21397W        W38244   0.607  11.868  12.148 -0.1580  0.1833 -0.0726
21398W        W38245  15.553  13.768   4.105  0.1904 -0.5249  0.1073
21399W        W38246  12.841  16.975  12.752  0.0830 -0.2538  0.1900
21400W        W38247   6.152  13.336   0.049 -0.0205  0.1810 -0.1344
21401W        W38248   0.700  11.951  15.848  0.1098  0.1324  0.4194
21402W        W38249  11.383  15.521   5.893  0.1541  0.2779 -0.0697
21403W        W38250  17.986  14.941   2.183 -0.2123  0.1003  0.0652
21404W        W38251  14.515   3.742  10.952 -0.2764  0.1106 -0.0574
21405W        W38252  13.800  17.465  14.081  0.0137 -0.0889  0.2256
21406W        W38253  13.216  13.603  15.026 -0.0977 -0.0368  0.0715
21407W        W38254   2.582   4.831  12.599 -0.1939 -0.0058 -0.4909
21408W        W38255   3.611   2.107   4.649  0.2289  0.2084  0.0177
21409W        W38256   7.940   7.616   3.024 -0.0306 -0.2000  0.0034
21410W        W38257  12.477  16.766   2.416  0.0073 -0.0516 -0.1348
21411W        W38258  17.715  17.069  16.349 -0.1272  0.0101 -0.1836
21412W        W38259  10.841  13.127  16.104 -0.1724 -0.1244  0.1252
21413W        W38260  13.395  13.019  15.648  0.3435  0.0788 -0.3029
21414W        W38261  13.489  11.004  14.947 -0.0388 -0.1161 -0.1063
21415W        W38262   7.541  17.139   6.510 -0.0410 -0.0862 -0.0791
21416W        W38263  12.501  17.738   0.087  0.0964  0.0527  0.2960
21417W        W38264   3.698   0.196   5.434  0.1095  0.0068 -0.0831
21418W        W38265   1.680   5.179  11.635  0.0919 -0.0993 -0.3038
21419W        W38266   1.026   1.228   5.214 -0.0149 -0.2229  0.1160
21420W        W38267   6.786   3.378  14.910 -0.1764  0.0601 -0.0946
21421W        W38268  13.141   4.301   5.626 -0.2224  0.0110 -0.0499
21422W        W38269   8.481  15.801  12.040  0.1749 -0.2050  0.3024
21423W        W38270   3.132  18.110  15.617  0.1986  0.0171  0.2902
21424W        W38271   3.913   5.267   4.453  0.0858  0.3391 -0.0701
21425W        W38272  17.080   9.685   5.186  0.1435  0.2339  0.0687
21426W        W38273  10.357   3.203   5.020 -0.2535 -0.3065  0.2154
21427W        W38274   4.071   0.054  16.155 -0.0712 -0.0788  0.0490
21428W        W38275  14.416   2.718   4.655 -0.1264  0.1833 -0.3211
21429W        W38276  15.232   9.148  14.039 -0.1784 -0.2737  0.0308
21430W        W38277  12.808   8.484  13.143  0.1229 -0.1208 -0.1140
21431W        W38278  13.103   7.890   4.405 -0.0093 -0.4774  0.1554
21432W        W38279   1.714  12.923   3.239  0.0248  0.2953  0.0949
21433W        W38280   5.831  17.474  13.622  0.1448  0.0295 -0.0476
21434W        W38281  17.640   8.621   2.237  0.0946  0.3585 -0.3134
21435W        W38282   7.227   4.098   3.692  0.1502 -0.0483  0.1917
21436W        W38283   1.941  15.159   2.162  0.1053  0.2376 -0.0348
21437W        W38284  18.007  12.906  16.308  0.0665  0.0338 -0.1071
21438W        W38285  15.352   6.067   3.076  0.1114 -0.1596 -0.0885
21439W        W38286  17.106   3.283   2.971  0.0144  0.0696  0.2375
21440W        W38287   1.869  15.372  15.199  0.2341 -0.1234 -0.1705
21441W        W38288   1.490  10.393  11.080  0.0120  0.1411 -0.0858
21442W        W38289   9.616   0.987   2.405 -0.0061  0.2716 -0.0332
21443W        W38290  11.001   4.166  12.219 -0.1508 -0.1941  0.2149
21444W        W38291  12.482   4.294   0.920  0.4398 -0.2462 -0.2644
21445W        W38292  14.580  14.804   0.573 -0.0828  0.2824  0.3921
21446W        W38293  13.988  11.944  16.095 -0.2568 -0.0413  0.0718
21447W        W38294   2.765   3.347   5.160 -0.3619  0.2192  0.1204
21448W        W38295   8.300  18.109   5.005 -0.1232 -0.0783  0.3298
21449W        W38296  18.313  13.488   2.468 -0.3388  0.2055  0.2873
21450W        W38297  11.346   2.468  15.172  0.0650  0.1348 -0.1796
21451W        W38298  15.331   2.648  12.857  0.1436  0.0943 -0.1799
21452W        W38299  16.745  15.567  11.805  0.0042 -0.0037  0.0259
21453W        W38300   8.571   5.111   0.506 -0.0802  0.3156  0.2371
21454W        W38301  17.347  18.163   2.297 -0.2180 -0.1777 -0.0137
21455W        W38302   5.853  10.588   5.389  0.2533 -0.2672  0.2825
21456W        W38303  11.904   9.834   2.888 -0.3743  0.0093 -0.0213
21457W        W38304   8.569  14.933  15.079 -0.1974  0.1414  0.4717
21458W        W38305  14.476  14.799  15.174  0.2216 -0.0774 -0.0908
21459W        W38306  14.021  11.602   2.362 -0.0596 -0.0970 -0.2751
21460W        W38307   1.975   3.841   1.740 -0.0736  0.2008  0.0272
21461W        W38308  14.105  13.439   2.893 -0.0957 -0.2741  0.1253
21462W        W38309   8.933   2.106   2.053 -0.1290  0.1275 -0.0805
21463W        W38310   1.439   3.506   4.356 -0.2224 -0.0898  0.0202
21464W        W38311  17.357   6.228   2.592 -0.0309  0.2416 -0.1155
21465W        W38312  14.585  11.129   4.243  0.1311  0.0739 -0.0174
21466W        W38313  11.896   0.595   4.382 -0.0753 -0.3524  0.2235
21467W        W38314  12.165  16.393  14.712 -0.1724  0.0330 -0.0813
21468W        W38315  10.592   1.011  13.654 -0.0597 -0.2377  0.0999
21469W        W38316   9.658  14.947   4.950 -0.0767 -0.1363 -0.0039
21470W        W38317  10.283  16.333  15.103  0.1419  0.0239  0.1948
21471W        W38318   7.270   3.520  11.384 -0.1466 -0.2989  0.1127
21472W        W38319  11.499   2.799  15.617 -0.0711 -0.0383 -0.2264
21473W        W38320  13.093   9.344   0.404  0.3274 -0.0035 -0.0476
21474W        W38321  13.436  12.677   0.335 -0.2564 -0.1399  0.2704
21475W        W38322   0.838  10.836  14.791 -0.4831  0.1018 -0.0690
21476W        W38323   9.715   0.321   1.045  0.1822 -0.4825  0.0685
21477W        W38324   6.707   5.580  13.263  0.2351  0.1210 -0.0684
21478W        W38325  13.868   9.291   3.521  0.0472  0.2676  0.0724
21479W        W38326  13.683   2.723   2.127  0.0238  0.0036  0.0278
21480W        W38327  13.102   9.555   1.757 -0.0696  0.1675  0.2434
21481W        W38328  16.333   9.049   5.021 -0.0344  0.0908 -0.0170
21482W        W38329   1.738  12.979   4.931 -0.1778  0.2471 -0.2302
21483W        W38330   8.289   6.821  11.755 -0.1516 -0.1555 -0.1216
21484W        W38331   4.453   9.925   0.261  0.0998 -0.1435  0.0246
21485W        W38332   2.011  15.141  13.925 -0.1410 -0.1215 -0.0638
21486W        W38333  14.583   8.283  12.369  0.1077  0.0182 -0.2666
21487W        W38334  10.395   3.141  12.461 -0.2086 -0.2592  0.1139
21488W        W38335   4.610   8.540   5.104  0.1188  0.0891 -0.2389
21489W        W38336  14.514  12.435   0.940  0.3272 -0.1825  0.2868
21490W        W38337   6.188  13.713   4.373  0.0647  0.2475 -0.0723
21491W        W38338   7.980   2.630   0.702  0.1724 -0.0830  0.2407
21492W        W38339  16.441   5.338   3.163  0.2168  0.0778 -0.3449
21493W        W38340   6.901  10.575  15.132 -0.1983  0.0467  0.1501
21494W        W38341  13.132  14.744  15.264 -0.1199  0.0499  0.2060
21495W        W38342   3.422   7.354   4.450 -0.1794 -0.1287 -0.1316
21496W        W38343   7.157   0.587  13.894 -0.3327 -0.2453  0.0739
21497W        W38344   1.884  10.129  11.468 -0.1458 -0.0123  0.0446
21498W        W38345  15.951  11.808  15.077 -0.0614 -0.0339 -0.0189
21499W        W38346  18.054   9.433  12.258  0.0458 -0.0661 -0.2541
21500W        W38347  15.394   9.061  15.909  0.1620  0.0627 -0.0909
21501W        W38348   0.949  12.878  15.634  0.1258 -0.2381  0.0026
21502W        W38349  13.924   8.065   4.819  0.2489  0.0472 -0.0223
21503W        W38350  17.380   5.193  12.688  0.0721 -0.1542 -0.2345
21504W        W38351  17.680  13.428   3.667  0.2835 -0.3385 -0.1886
21505W        W38352   6.200   7.067  12.417  0.0983 -0.0942 -0.2774
21506W        W38353  11.347  11.606  12.905  0.0030  0.2150  0.0935
21507W        W38354   7.201   9.016   1.138  0.1043 -0.1669  0.1532
21508W        W38355   2.371   7.785  14.445  0.0783  0.0011  0.0637
21509W        W38356  16.391   5.857  12.009 -0.1626  0.0216 -0.2174
21510W        W38357  15.137   8.028   4.232  0.1221  0.0954  0.2394
21511W        W38358   3.097   0.205  12.690  0.3067  0.1853 -0.2145
21512W        W38359  11.884   5.232   3.485  0.0296  0.0926 -0.4543
21513W        W38360   5.542   3.802  11.159 -0.1330  0.1009  0.0127
21514W        W38361  16.127   8.080  15.382  0.1826  0.0203 -0.1580
21515W        W38362  10.890   8.860  12.874 -0.0003 -0.0803  0.0334
21516W        W38363   9.848  18.000   2.008  0.4258 -0.1065 -0.0276
21517W        W38364  10.964  18.352   4.272 -0.2164 -0.2002  0.0378
21518W        W38365  12.983  17.478   0.274 -0.1492  0.0545  0.1903
21519W        W38366  10.291  10.730  15.002 -0.1675 -0.0533  0.0227
21520W        W38367  12.877  14.532  12.731 -0.0207  0.1641 -0.2043
21521W        W38368  18.401  10.721  13.025  0.2460  0.0955 -0.2912
21522W        W38369   1.322   0.073   1.402  0.1705 -0.0490 -0.1547
21523W        W38370   6.543  10.212   4.267  0.0310 -0.0030  0.0290
21524W        W38371  12.301  15.895  12.148 -0.0068  0.2210  0.0822
21525W        W38372   8.821  13.285   1.814  0.0656 -0.3394  0.0661
21526W        W38373  11.964   8.845   4.289  0.1607  0.0681  0.0146
21527W        W38374   5.734  16.998   1.196  0.2155 -0.0513  0.1973
21528W        W38375  17.737   4.141  12.453 -0.0178  0.3652 -0.0206
21529W        W38376  11.911  12.445  12.598  0.0479 -0.1202  0.0360
21530W        W38377   5.728   5.415  13.027 -0.0904 -0.0022  0.1513
21531W        W38378  13.361  11.969   3.893  0.0620  0.1181 -0.0023
21532W        W38379  17.739  18.154  12.666  0.1956  0.4670 -0.1343
21533W        W38380   4.320  16.151   1.434 -0.0318 -0.1175  0.0321
21534W        W38381   2.662   0.090  14.423 -0.0666  0.0886  0.3874
21535W        W38382   7.137   3.977  11.270  0.2377 -0.0397 -0.0703
21536W        W38383  15.728   0.049   4.340  0.1551  0.1114 -0.0912
21537W        W38384  11.128  13.669  11.869  0.0360  0.3447 -0.3320
21538W        W38385  12.952  11.068   2.495  0.0251  0.0947 -0.1763
21539W        W38386   0.488   1.532  12.938  0.0398 -0.1054  0.0358
21540W        W38387   6.068   3.808  12.932 -0.2923  0.0013 -0.0085
21541W        W38388  12.190   8.049   0.631 -0.1966 -0.0418  0.0125
21542W        W38389   5.022  10.176  15.994  0.1074 -0.0734  0.0574
21543W        W38390   1.454   8.303   3.461 -0.3278 -0.0676  0.0203
21544W        W38391  14.698  11.845   1.646 -0.0545 -0.0802  0.2134
21545W        W38392  15.524   8.461   1.139  0.0207 -0.0281  0.3239
21546W        W38393   3.478  16.275   0.349 -0.3325 -0.0719 -0.0090
21547W        W38394   1.134  16.283   4.701  0.1360  0.0836 -0.2910
21548W        W38395   4.630   6.174  16.066  0.0360  0.1222  0.0244
21549W        W38396   4.104   1.687  14.891  0.3494 -0.0213 -0.1245
21550W        W38397   5.103  15.246   2.199  0.0329  0.0693  0.0717
21551W        W38398  12.949  15.158  13.717 -0.1874  0.1455 -0.1854
21552W        W38399  12.819   7.150  13.315 -0.0599  0.1701  0.0405
21553W        W38400  10.554  10.896  16.283 -0.0514  0.1864 -0.2896
21554W        W38401   2.169  14.686   5.152 -0.0745  0.2374 -0.1888
21555W        W38402  13.622   3.843   1.793  0.3860  0.0458 -0.1062
21556W        W38403   8.217  12.083   2.368  0.1794 -0.0023  0.1095
21557W        W38404  15.391   5.861  14.107 -0.1505 -0.0493 -0.4356
21558W        W38405   5.409   5.623  12.117  0.4562 -0.2939 -0.1799
21559W        W38406  16.332  14.915   5.148  0.2975  0.0568  0.1934
21560W        W38407   1.002  10.628  15.952  0.0998  0.1116 -0.2034
21561W        W38408   7.662  14.376  14.668  0.0822 -0.0256 -0.0356
21562W        W38409   8.529   5.821  13.834 -0.1253  0.2320  0.1363
21563W        W38410  12.510   5.800   2.716 -0.2846  0.0719 -0.0122
21564W        W38411   0.492  17.886   0.452  0.0008  0.1558  0.3035
21565W        W38412   9.042   9.209   4.422 -0.1129  0.1310 -0.1428
21566W        W38413   0.518   4.848   2.873  0.3069 -0.0701 -0.0988
21567W        W38414  15.823  17.876  13.954  0.4205  0.3091 -0.3213
21568W        W38415  12.116   2.693   1.149  0.1763  0.0846  0.1132
21569W        W38416  14.484   5.764   4.281  0.0454  0.2235  0.1892
21570W        W38417  11.313   8.301   5.765 -0.2879  0.0264  0.1202
21571W        W38418   6.649   7.101  13.261 -0.2632  0.1615  0.0651
21572W        W38419  12.069   2.084   1.515  0.0643 -0.0488  0.1643
21573W        W38420   8.539  14.397  16.294  0.0834 -0.2195 -0.2088
21574W        W38421   2.822  17.548   2.447  0.1180  0.0027  0.0120
21575W        W38422  17.157  14.539   1.505  0.1358  0.3483 -0.0015
21576W        W38423   5.705  16.262   0.133  0.1296 -0.1889  0.0279
21577W        W38424   6.874  11.424  13.366 -0.0853  0.1211 -0.0994
21578W        W38425   1.832   3.011   0.727  0.1344  0.1201  0.2907
21579W        W38426   7.551   3.861  15.848  0.0014  0.3562 -0.0326
21580W        W38427   0.595  13.194   1.000 -0.0555  0.2038  0.4245
21581W        W38428  10.349   2.824   1.331 -0.0827  0.0272  0.0715
21582W        W38429  18.141   9.437   0.625 -0.0143  0.0386  0.0809
21583W        W38430   7.527   5.375   0.764  0.2771  0.0627 -0.0714
21584W        W38431  14.147  13.790   3.796 -0.0215  0.1645  0.1268
21585W        W38432  13.529   1.136  10.971 -0.0873 -0.0107  0.1790
21586W        W38433  14.684   6.491   5.099 -0.2798  0.1064 -0.1873
21587W        W38434   8.626   8.441  13.683  0.2536 -0.3072  0.1965
21588W        W38435  14.575   7.083  15.914  0.1403 -0.2198 -0.3346
21589W        W38436  14.357   6.053  12.608 -0.1988  0.2332 -0.1214
21590W        W38437   3.628  12.640   1.173 -0.1151 -0.0754 -0.2984
21591W        W38438   9.919  12.727   3.540 -0.2596 -0.0301 -0.1143
21592W        W38439   7.902  17.741  13.355 -0.1496  0.5141 -0.0284
21593W        W38440   9.399   8.313  11.788  0.2188 -0.1152 -0.1678
21594W        W38441  16.456  17.772   3.238  0.3301 -0.1096 -0.0121
21595W        W38442  11.993   8.721   2.274 -0.1374  0.3335  0.2363
21596W        W38443   6.840   9.772   3.133 -0.2713 -0.0041  0.0808
21597W        W38444   2.515   9.027   0.638  0.2627 -0.0615  0.0228
21598W        W38445   2.035  16.447  13.500 -0.2116  0.0989 -0.2100
21599W        W38446  15.146  17.980   4.656 -0.1248 -0.2331 -0.1176
21600W        W38447  14.829  16.553   0.555  0.0473 -0.0072  0.1785
21601W        W38448   5.540   7.537   1.877  0.3354 -0.0825  0.0687
21602W        W38449   5.198  13.175  14.249  0.0365 -0.3562 -0.0905
21603W        W38450   9.000   4.070  15.551  0.0036  0.1359  0.1190
21604W        W38451   9.684   5.815   0.223 -0.0253  0.3683  0.1293
21605W        W38452   6.458  15.699  12.372  0.0699  0.0094 -0.0171
21606W        W38453  15.118   7.331  10.822  0.4990 -0.2520  0.2296
21607W        W38454  18.311  13.302  15.055  0.4575 -0.0536  0.1188
21608W        W38455   6.548  11.158   3.488 -0.1144 -0.0187 -0.0754
21609W        W38456   6.283   4.208  12.201  0.0967 -0.0019 -0.0362
21610W        W38457  16.735   6.589  10.764 -0.0006 -0.0860 -0.3060
21611W        W38458  14.815   0.456  13.181  0.1441 -0.2378  0.0623
21612W        W38459   0.435  13.149   4.879  0.1520 -0.0950  0.1049
21613W        W38460   7.246   8.597   0.326 -0.0221  0.0485  0.1904
21614W        W38461  14.951  17.968  12.407 -0.1531  0.1889  0.2770
21615W        W38462  11.448  10.002  11.267  0.0338 -0.3495 -0.2399
21616W        W38463   3.943   4.471  12.931  0.0254  0.0883  0.0581
21617W        W38464  13.546  18.127  12.561 -0.3024 -0.0232  0.2492
21618W        W38465  11.066   6.515   1.197  0.1196 -0.3049 -0.3369
21619W        W38466   8.051  18.416  12.557 -0.2092  0.1314 -0.5479
21620W        W38467  14.702   3.737  15.476 -0.1144  0.2299 -0.0506
21621W        W38468   5.445   8.158   0.492 -0.1864  0.0284 -0.2315
21622W        W38469   4.220  15.574  13.662  0.1742 -0.1169  0.1888
21623W        W38470  12.569   0.729   0.784 -0.0187  0.0181 -0.2674
21624W        W38471  14.629  15.938  15.176  0.3806  0.1382 -0.1149
21625W        W38472   2.297  16.843  13.731 -0.0150  0.0960  0.1265
21626W        W38473   4.116  17.062  16.000  0.0356 -0.0901 -0.1766
21627W        W38474  12.684  16.792  13.270 -0.0956 -0.2271  0.0465
21628W        W38475  12.321   5.590   1.606 -0.2351 -0.1934  0.1241
21629W        W38476  10.342   0.480   2.848 -0.4114  0.1658  0.2476
21630W        W38477  10.580   6.959  14.243  0.0623  0.1730 -0.0220
21631W        W38478  10.525   5.253   3.522 -0.1734  0.0845 -0.1131
21632W        W38479  13.120   1.584   2.489  0.0574 -0.3342 -0.1229
21633W        W38480   8.721  10.960  11.560  0.0642 -0.0846  0.1702
21634W        W38481  13.631  10.399  14.229 -0.0578  0.0359 -0.0919
21635W        W38482   1.657  11.514   2.816  0.1957  0.0824 -0.2733
21636W        W38483   7.887   6.637   0.505 -0.2504 -0.2259  0.1530
21637W        W38484   7.397   8.284   5.971  0.0682 -0.4482  0.0131
21638W        W38485  16.989  14.360   4.312 -0.1643 -0.3521  0.1675
21639W        W38486  16.864   5.390  10.203 -0.1776  0.5331 -0.0607
21640W        W38487   8.345  17.623   2.679  0.1346 -0.2704  0.2857
21641W        W38488  15.581  12.100   4.471  0.3214  0.2868 -0.0812
21642W        W38489   5.436  14.540   1.127  0.2191 -0.0074 -0.1006
21643W        W38490  12.669   3.224   5.427 -0.1724  0.0821 -0.3125
21644W        W38491   9.489  17.292  12.781  0.1435  0.0802 -0.1414
21645W        W38492   0.840  14.081   4.377 -0.2395  0.1591  0.2617
21646W        W38493   8.239  18.021  15.782  0.0566 -0.0626  0.1697
21647W        W38494  11.429  14.669  15.899  0.1645 -0.1651  0.3510
21648W        W38495   2.222  10.902   4.092 -0.3592  0.2631  0.3595
21649W        W38496   2.182  12.481  14.476 -0.0224 -0.1055 -0.2063
21650W        W38497   0.307  11.341   0.927 -0.2603  0.2993  0.4581
21651W        W38498   7.729  13.611  13.640  0.1351 -0.2348  0.0686
21652W        W38499   1.495   4.288  15.597  0.1070  0.0832  0.4524
21653W        W38500   2.907  15.451  14.655  0.1969  0.0459  0.1642
21654W        W38501   3.871   2.580  14.907 -0.3216  0.1174  0.3018
21655W        W38502  16.112  16.431   1.377 -0.0035 -0.4993  0.2944
21656W        W38503   8.249   9.879   3.759  0.0503 -0.0132 -0.0471
21657W        W38504  16.042   7.370   1.457  0.0581  0.1048  0.3399
21658W        W38505   6.777  16.105   3.295  0.3299 -0.0033  0.3727
21659W        W38506  14.902  14.535  15.779 -0.1851 -0.3867  0.0847
21660W        W38507   5.245  17.925  12.147  0.3308  0.2847  0.0797
21661W        W38508   6.156  16.669  16.256  0.1698 -0.2533 -0.0431
21662W        W38509  15.088   2.296  11.170  0.2268  0.1851 -0.5008
21663W        W38510   2.695   3.795   2.737  0.1432 -0.2306 -0.3492
21664W        W38511   6.633   3.295  15.367 -0.3025 -0.2378  0.0047
21665W        W38512   3.576   3.586  16.349  0.2175  0.0418  0.3929
21666W        W38513  11.773  15.090  11.896  0.1604 -0.1010  0.2794
21667W        W38514  16.993   0.671   4.646 -0.0919 -0.1769  0.0168
21668W        W38515  17.984   5.760   3.506  0.0345  0.3624 -0.0022
21669W        W38516   6.091   7.359   4.314  0.0560 -0.3485 -0.3355
21670W        W38517   6.615  14.584   4.985  0.0310 -0.0844  0.0630
21671W        W38518  17.228   9.212   0.879 -0.0203  0.0682 -0.2916
21672W        W38519  15.902  11.792   5.538  0.0321 -0.1719 -0.1926
21673W        W38520   7.820   5.199   4.133 -0.0097 -0.0798  0.0938
21674W        W38521  18.128  13.631  12.765 -0.3063  0.0788 -0.1712
21675W        W38522   4.281   6.784  12.386  0.0205  0.0554 -0.2832
21676W        W38523  12.569  17.248  14.445 -0.2530 -0.1013  0.3427
21677W        W38524   6.799  12.676   0.351  0.1681 -0.3416 -0.2137
21678W        W38525   4.688  15.391   0.629 -0.0643 -0.1213 -0.1553
21679W        W38526  14.119  13.632  12.120  0.0060  0.3093  0.1090
21680W        W38527   9.529   6.198  15.687  0.0746  0.2162 -0.1392
21681W        W38528   6.627   9.435  12.704  0.1765 -0.0772  0.1538
21682W        W38529  15.205  15.505  13.442  0.0607  0.3874 -0.0227
21683W        W38530  14.059  13.266   0.593 -0.0937 -0.1283 -0.2244
21684W        W38531  11.512  17.766  12.453 -0.1039 -0.1196 -0.0037
21685W        W38532  16.206  14.584   1.454 -0.0756 -0.3002  0.2548
21686W        W38533   3.009   8.880  12.497 -0.0674  0.0919  0.2015
21687W        W38534  11.170  14.975   1.780 -0.1991 -0.0380  0.0965
21688W        W38535   5.740  15.031  15.977 -0.3194 -0.0455 -0.0408
21689W        W38536  11.420   2.222  13.092 -0.3079  0.1712  0.0323
21690W        W38537   6.003   6.817   2.629 -0.2751  0.0374 -0.1919
21691W        W38538  17.787   6.673  15.743 -0.2528 -0.1136  0.1996
21692W        W38539  15.210  15.827   2.295 -0.0318  0.1482  0.1421
21693W        W38540  17.089  16.221   4.183  0.0499  0.1108  0.1056
21694W        W38541   8.917   3.892   1.550  0.0372 -0.1468 -0.0463
21695W        W38542  18.164  11.251  11.717 -0.1741  0.2349  0.0042
21696W        W38543  11.667   6.187  15.659  0.1150  0.0195  0.0986
21697W        W38544  17.355  10.124   3.778 -0.4579  0.1464  0.0751
21698W        W38545  13.589   0.847  11.754 -0.0896  0.2059 -0.1828
21699W        W38546   7.507   8.306  13.687  0.0801 -0.1817  0.3000
21700W        W38547   1.119  13.550   4.512  0.2872  0.0039 -0.0661
21701W        W38548  14.027   9.817  13.659  0.2875 -0.0445 -0.0135
21702W        W38549   8.592   3.331   1.987  0.0802  0.0543  0.1893
21703W        W38550   0.790  13.858   5.172 -0.0895 -0.0705  0.0800
21704W        W38551  15.024   2.714   2.254 -0.1422  0.1394  0.1077
21705W        W38552   5.014  17.570   1.482 -0.0304 -0.0410  0.3264
21706W        W38553   1.954   6.636   0.471 -0.1101  0.0165  0.0439
21707W        W38554   1.880   5.461  10.730  0.2273  0.1193 -0.2145
21708W        W38555  13.115   5.220  15.171 -0.1545  0.1140  0.0611
21709W        W38556  10.557   6.669   2.539 -0.1412  0.0836 -0.1931
21710W        W38557   2.939   7.292  13.427  0.3840  0.0036  0.0785
21711W        W38558  13.434   3.089   1.792  0.2122 -0.0125 -0.2649
21712W        W38559  17.559  17.082  13.212 -0.1072  0.6626  0.2768
21713W        W38560  12.706   0.426  11.686 -0.0107  0.1182 -0.2481
21714W        W38561   1.983   6.956   0.045 -0.2072  0.1450  0.2136
21715W        W38562  11.576   1.985  12.279 -0.3235 -0.2427  0.0969
21716W        W38563   1.507   6.502  13.515  0.4043  0.1006  0.1234
21717W        W38564  11.701  14.625   1.979 -0.1440 -0.0253 -0.3021
21718W        W38565  15.701  13.985   0.387  0.0831  0.0463 -0.3340
21719W        W38566   3.667   9.257   3.603 -0.0532 -0.1393 -0.0791
21720W        W38567   2.268  16.323  16.041 -0.1769  0.1290 -0.2230
21721W        W38568   9.492  18.253  15.967 -0.3794  0.2084  0.0614
21722W        W38569  17.778  12.288  14.352  0.0028  0.1256 -0.1429
21723W        W38570  17.511  15.575   3.996  0.0233  0.1255 -0.1367
21724W        W38571  18.244   7.603   1.130 -0.1884 -0.0500  0.3499
21725W        W38572   9.508  12.734   0.256 -0.0399 -0.0835  0.0451
21726W        W38573   0.507  17.102   3.093  0.0506  0.0941  0.0880
21727W        W38574   7.654   6.483  14.301  0.0702 -0.0995 -0.3751
21728W        W38575  13.818  13.930  11.770 -0.1382 -0.1224 -0.0766
21729W        W38576   6.270  16.175   3.473 -0.0522  0.2148  0.1129
21730W        W38577   8.438  11.244  14.493 -0.0896 -0.0552 -0.1165
21731W        W38578  12.984  17.617  12.142 -0.0042 -0.2342  0.2425
21732W        W38579  16.816   5.104  11.147  0.4651 -0.0717 -0.0011
21733W        W38580   0.640  12.493   2.011 -0.0186  0.0062 -0.2736
21734W        W38581  17.520   3.496   4.363 -0.2858 -0.3182 -0.2961
21735W        W38582  14.792  15.805   3.069  0.0734  0.0038 -0.0780
21736W        W38583   1.814   5.324   2.015 -0.1212 -0.1000 -0.1525
21737W        W38584  16.057   6.075  12.429  0.1168  0.0442 -0.0114
21738W        W38585  10.726   2.853   2.409  0.2602  0.1365 -0.0643
21739W        W38586   1.233   3.796  11.804 -0.1653  0.0761 -0.1978
21740W        W38587  14.693   2.874  13.323 -0.0830  0.1689  0.0343
21741W        W38588   4.139  15.223   3.147 -0.0697  0.1171 -0.0036
21742W        W38589  17.569   1.075  15.244 -0.1277 -0.1060  0.1308
21743W        W38590   5.931   4.059   2.072  0.0183  0.1904 -0.0757
21744W        W38591  11.184   0.381   4.150  0.1754 -0.0335 -0.3260
21745W        W38592  13.324   3.178   2.296 -0.0285 -0.0941 -0.1692
21746W        W38593  13.136   8.614  12.691  0.1199 -0.0371 -0.0586
21747W        W38594   6.324   2.886   3.358  0.0134 -0.2032 -0.1480
21748W        W38595   7.148  17.640   0.400 -0.1171 -0.1051 -0.2179
21749W        W38596   1.034   4.879   4.134  0.2412 -0.4057  0.1594
21750W        W38597  17.637   6.610   1.127 -0.0135  0.1046 -0.1188
21751W        W38598  15.325  15.342   1.265 -0.0909 -0.0687  0.3161
21752W        W38599   5.573  11.789   4.041 -0.0538  0.2761  0.5264
21753W        W38600  11.712  10.757   3.059 -0.0386 -0.0381  0.0693
21754W        W38601   1.094   1.965  13.254  0.2011 -0.1819  0.1244
21755W        W38602   5.160  14.597  12.881  0.2513  0.2434 -0.2680
21756W        W38603  10.620   6.762  11.727  0.1268 -0.2217  0.0842
21757W        W38604   3.893  10.168  15.158 -0.1534  0.3141 -0.0667
21758W        W38605  15.540   0.263   5.638 -0.0335  0.2325  0.1846
21759W        W38606  17.385  16.212   4.650  0.0235  0.0603  0.1111
21760W        W38607   6.281   1.639  14.335 -0.2046  0.0364  0.1441
21761W        W38608   3.180   1.279   1.625  0.0349  0.0084 -0.1413
21762W        W38609   4.441   3.810  15.833  0.0790 -0.0349 -0.1222
21763W        W38610   3.668  14.646   5.595  0.1771 -0.1355  0.0764
21764W        W38611  12.095  13.593   0.131  0.2340  0.1734 -0.2824
21765W        W38612   9.570  15.031  14.862  0.4542 -0.1781 -0.2846
21766W        W38613   6.244   8.139  14.265 -0.2335  0.1205  0.2492
21767W        W38614   2.796  16.024   4.630  0.0553 -0.0007  0.0127
21768W        W38615   6.708  14.636   6.382  0.1617  0.1336 -0.2731
21769W        W38616   4.617  16.827  12.451  0.4975 -0.0924 -0.1617
21770W        W38617   9.390  18.193   1.944 -0.0897  0.1231  0.0118
21771W        W38618   3.380   0.693  13.736  0.2567 -0.0497 -0.1621
21772W        W38619   3.909   1.122  14.292 -0.0902 -0.0296  0.0512
21773W        W38620   3.368   6.628  11.717 -0.0605 -0.1402  0.0009
21774W        W38621   5.282   3.094   4.037  0.1150 -0.0090  0.0700
21775W        W38622   4.394   8.808   3.226 -0.1458  0.1809  0.0047
21776W        W38623  10.952   4.073   1.338  0.3079  0.2018 -0.1372
21777W        W38624   2.828   8.584  13.471 -0.2232  0.3267  0.1441
21778W        W38625   2.644   5.930   3.505 -0.0721 -0.1004 -0.3529
21779W        W38626   2.728   7.796   3.271  0.3021 -0.3703  0.2051
21780W        W38627   7.040  13.485   4.070  0.0152  0.2173 -0.1944
21781W        W38628   9.124  14.624   1.458 -0.1629 -0.0528 -0.0253
21782W        W38629  17.492   8.013  16.071 -0.0849  0.1868  0.0305
21783W        W38630   6.613   5.629  14.179 -0.4148  0.0034 -0.0619
21784W        W38631   7.664  12.438   2.917  0.2569 -0.0242  0.0340
21785W        W38632   8.868   9.283  11.945  0.1080 -0.3278 -0.0670
21786W        W38633  13.109   9.631   5.031  0.1551  0.2768  0.1567
21787W        W38634   5.626  16.259   5.772 -0.2671  0.1995  0.0704
21788W        W38635   7.784   6.683  11.822  0.1688 -0.2231  0.3132
21789W        W38636   4.087  11.357   3.202 -0.3157 -0.0882 -0.2330
21790W        W38637  17.226   6.884  14.583 -0.0350 -0.1512 -0.0178
21791W        W38638  11.086   3.651  14.595  0.1044 -0.0143 -0.2188
21792W        W38639   6.823   8.189   2.200 -0.2480 -0.1048 -0.1350
21793W        W38640   8.534   5.625  15.103 -0.1359  0.0209  0.0353
21794W        W38641   0.417   1.701   0.756 -0.0825  0.0112  0.1897
21795W        W38642   7.329   6.148   0.070  0.1383 -0.0831 -0.2531
21796W        W38643   8.774   5.329   2.211 -0.1155 -0.0544  0.3225
21797W        W38644   7.528   3.242   0.058  0.0299  0.0750 -0.1181
21798W        W38645   0.991  18.412  15.503 -0.1190 -0.2083 -0.5235
21799W        W38646   0.537  15.606  13.697  0.1114  0.2875  0.0511
21800W        W38647   9.491   2.017  12.307 -0.3320 -0.2215 -0.0724
21801W        W38648   1.452  15.224  14.063  0.0343 -0.0471  0.0235
21802W        W38649   5.397   5.882   1.326  0.1915  0.1656 -0.0082
21803W        W38650   1.691   0.444   4.607  0.0567 -0.2380 -0.1404
21804W        W38651  12.525   0.521   3.156  0.1910  0.0192 -0.1095
21805W        W38652  10.151   2.525   0.318  0.1381 -0.0878 -0.2564
21806W        W38653  12.103   1.686  11.120 -0.0791  0.5193  0.0389
21807W        W38654   5.896   2.788   0.976 -0.0304 -0.2532 -0.0453
21808W        W38655   0.821   9.434   3.726  0.2008 -0.0741 -0.0594
21809W        W38656  16.954  12.049  16.083 -0.0510 -0.1837 -0.3914
21810W        W38657  18.270   4.123   2.579  0.3911 -0.1171 -0.2018
21811W        W38658   0.616   5.386   2.178  0.0183  0.2981  0.1155
21812W        W38659  18.244  16.683  11.770  0.4419  0.0615  0.2464
21813W        W38660   7.593   3.085   3.172 -0.2660 -0.2236 -0.2054
21814W        W38661  11.886   9.108   5.716 -0.3835  0.1271 -0.2108
21815W        W38662   9.360  13.929  16.376 -0.0010  0.1958 -0.1642
21816W        W38663  13.392   8.459   2.312 -0.1640  0.0148  0.0500
21817W        W38664   4.079  16.714   5.483 -0.2171 -0.0088 -0.2635
21818W        W38665   9.177  15.012   3.337 -0.4027  0.0698 -0.0390
21819W        W38666   2.294   4.100  14.521 -0.0164  0.2826  0.1080
21820W        W38667   2.732   2.302   1.761  0.1045  0.1689  0.0158
21821W        W38668   1.784  15.419   1.214  0.0122 -0.1335 -0.1880
21822W        W38669   4.056   8.818  12.952  0.0427  0.0292 -0.0443
21823W        W38670   5.637   9.367   4.240 -0.0771  0.1131 -0.0841
21824W        W38671   9.168  15.713   3.949 -0.1098 -0.2333  0.1848
21825W        W38672   1.740   3.634  10.479 -0.0743  0.1871 -0.1607
21826W        W38673   6.337   7.558  12.412 -0.4534 -0.0426 -0.0084
21827W        W38674  15.065   1.132   4.372 -0.0611  0.3171 -0.4514
21828W        W38675   3.814   1.630   4.515 -0.0520 -0.2311  0.4928
21829W        W38676  14.186   5.897  11.715 -0.0273 -0.0874 -0.0634
21830W        W38677   2.494  15.356   0.495  0.4259  0.1201  0.0929
21831W        W38678   7.166   4.213   0.081  0.1274 -0.4099 -0.3155
21832W        W38679  10.749   0.403   2.456 -0.1793  0.0073 -0.0689
21833W        W38680  10.536  14.199   3.484  0.1611 -0.1981 -0.2623
21834W        W38681   2.861   8.238   0.123  0.0894 -0.2002 -0.1654
21835W        W38682   8.769  12.963  14.735  0.0522  0.2221 -0.2627
21836W        W38683   8.976   4.031  16.053  0.1736  0.0804 -0.1728
21837W        W38684  11.857  16.516  13.683  0.0207  0.1473  0.0545
21838W        W38685  18.144   9.252   3.900 -0.0653 -0.0574  0.1080
21839W        W38686   4.546   5.669  13.145  0.1950 -0.1145  0.0312
21840W        W38687  10.812  12.884  15.490 -0.1207 -0.2012 -0.3618
21841W        W38688  17.833   2.992  11.012 -0.1003 -0.1602  0.0013
21842W        W38689   9.173  14.904   1.048 -0.1453  0.1098  0.0500
21843W        W38690  11.306  17.822   0.547 -0.4359  0.0111  0.1515
21844W        W38691  12.655   2.810   2.830 -0.3452  0.3689 -0.1418
21845W        W38692   7.890  18.363  15.913 -0.0435  0.0030  0.1673
21846W        W38693   1.940   2.352   2.693 -0.4524  0.2796  0.1714
21847W        W38694  11.673   9.654   2.242  0.2369  0.0847  0.1427
21848W        W38695   8.532   7.932   2.606 -0.1290 -0.0070  0.3910
21849W        W38696   4.375  16.205   3.522 -0.1969  0.0765  0.0854
21850W        W38697  13.559  11.904   4.520 -0.0041 -0.2577 -0.2046
21851W        W38698  18.308   7.385   0.646  0.1569  0.0925  0.1032
21852W        W38699  13.140   6.434   3.298  0.0997 -0.1191  0.0933
21853W        W38700   0.471   0.382   3.095  0.3301  0.0559 -0.2439
21854W        W38701  17.255   1.283   3.207 -0.2197  0.1652 -0.1872
21855W        W38702   2.202   7.293  11.636  0.2657  0.4491  0.0515
21856W        W38703   9.087   8.887   3.461 -0.1158 -0.0865  0.1564
21857W        W38704   5.464  10.660   4.232 -0.1655  0.3179 -0.0425
21858W        W38705  11.320  12.658   4.340 -0.2575  0.0344  0.0172
21859W        W38706  16.401  13.077  11.349  0.0080 -0.5603 -0.0751
21860W        W38707   0.123   2.888   3.555 -0.1178 -0.0029 -0.0136
21861W        W38708   7.150   7.276  14.070  0.1912  0.0125  0.0705
21862W        W38709  11.614   7.835   5.565 -0.5856 -0.4123 -0.2468
21863W        W38710  17.956  15.404   3.539 -0.0219  0.0289 -0.2651
21864W        W38711  15.312  17.337  14.858  0.0231 -0.1546 -0.0264
21865W        W38712  11.307  15.915  16.012 -0.2099  0.2200 -0.2854
21866W        W38713   1.234  10.237  11.481 -0.1137 -0.4113  0.3119
21867W        W38714  18.143   0.876   4.790 -0.2468  0.0420  0.2788
21868W        W38715   2.162  18.211  11.797  0.1924  0.0108  0.0884
21869W        W38716  15.016  11.794   5.092 -0.1436  0.1401 -0.1505
21870W        W38717  17.912  18.226   0.921  0.0182  0.0081 -0.0031
21871W        W38718   2.941  13.227  12.170  0.3071  0.2469 -0.2594
21872W        W38719  10.288   4.638  14.804  0.1005 -0.0818 -0.1276
21873W        W38720  14.152   8.126  11.995  0.0949  0.2903  0.1011
21874W        W38721  13.647  13.147   0.409  0.0670 -0.0398 -0.1944
21875W        W38722   8.917  17.951   5.514 -0.1529 -0.0879 -0.2107
21876W        W38723   7.681   7.971   1.925  0.0894  0.3478  0.1553
21877W        W38724   9.378   4.419  15.640 -0.1717  0.0352 -0.2161
21878W        W38725   8.628   2.941  12.738 -0.0766 -0.1584 -0.3778
21879W        W38726  18.070   6.511   0.643 -0.0863 -0.0484 -0.1653
21880W        W38727  15.776   2.814   4.856  0.1139 -0.0353  0.2407
21881W        W38728   8.950  16.710   6.274 -0.1880 -0.0192  0.0156
21882W        W38729  15.057  11.460  13.186  0.0201  0.0239 -0.1399
21883W        W38730  18.402  15.562  13.243 -0.1065  0.1447 -0.0853
21884W        W38731   0.167   8.873  15.118  0.0579 -0.0081 -0.0847
21885W        W38732  10.303  13.136  11.927 -0.1720 -0.0182  0.1970
21886W        W38733  16.471   8.976   1.754  0.2363  0.3551  0.2072
21887W        W38734  16.290   3.352   1.663 -0.0207 -0.0950  0.0839
21888W        W38735   0.264   1.341  12.424  0.1356 -0.2425  0.0086
21889W        W38736   9.958  14.199   4.070 -0.1217 -0.2188  0.0591
21890W        W38737   2.989   2.391  14.121  0.1231 -0.0057  0.1291
21891W        W38738   6.894  13.974  13.772  0.0303 -0.0313  0.0494
21892W        W38739   8.577  14.274   3.491 -0.0256  0.2433  0.1059
21893W        W38740  17.837  10.393   0.941  0.1634  0.0161 -0.0997
21894W        W38741   1.847  17.249   0.412 -0.4290 -0.0240 -0.1587
21895W        W38742  14.072  11.366   4.019 -0.1550 -0.0722 -0.3030
21896W        W38743   4.717   2.227   2.046 -0.1700  0.0065 -0.2231
21897W        W38744  14.993  12.360  15.446  0.2199  0.0967 -0.0876
21898W        W38745   3.349   1.093  13.466 -0.0126 -0.2336  0.1653
21899W        W38746   5.236   0.791   4.641 -0.0561 -0.4516  0.0757
21900W        W38747   9.200  15.333  12.336  0.0935  0.2312 -0.1717
21901W        W38748   2.499  10.261  12.262 -0.1511 -0.1828  0.1331
21902W        W38749   9.483  12.205   1.998 -0.3687 -0.2610  0.1459
21903W        W38750  15.112   0.718  13.527 -0.1647 -0.1215 -0.1427
21904W        W38751  11.575  16.087  13.455 -0.0809 -0.0647  0.0626
21905W        W38752   8.378  13.767   3.493  0.1531 -0.2278 -0.0155
21906W        W38753   6.875   0.132   3.818 -0.5210  0.1519 -0.0628
21907W        W38754   2.580  14.206   3.938  0.0310 -0.3324  0.2442
21908W        W38755   8.750   7.126   0.153  0.1155 -0.1362 -0.0004
21909W        W38756  14.481   9.749  13.448 -0.1393 -0.4748 -0.1020
21910W        W38757  11.385   4.007   5.459  0.1204  0.1028  0.2072
21911W        W38758  12.395  15.805  15.587  0.1842 -0.0642 -0.2162
21912W        W38759  18.355   0.451   4.810  0.3655  0.0658 -0.4275
21913W        W38760  15.153  17.321   3.436 -0.1573  0.2824  0.0093
21914W        W38761   6.009   2.167   4.892 -0.0111  0.2466  0.0310
21915W        W38762  11.319   2.825   0.033  0.0221  0.1518 -0.2542
21916W        W38763   6.098  10.121  13.105 -0.1727 -0.0441 -0.1864
21917W        W38764   7.551  16.628  13.649 -0.2290  0.0618  0.1510
21918W        W38765  11.535   9.261  13.761  0.0412 -0.1552  0.1337
21919W        W38766  13.710   2.792  15.118 -0.1169  0.1209 -0.1639
21920W        W38767   7.173  15.057  15.792  0.1263  0.2456  0.2074
21921W        W38768  16.257  14.634  13.233 -0.0136 -0.1392  0.0516
21922W        W38769   1.826  12.372   4.942 -0.1684 -0.2433  0.2823
21923W        W38770  15.730   2.984   3.003 -0.1239  0.1290 -0.1925
21924W        W38771  16.518  15.593   3.853  0.0839  0.1678 -0.0358
21925W        W38772   8.780   7.398   1.113 -0.1479  0.0009  0.0275
21926W        W38773  14.870   8.897   0.883  0.2188 -0.0020 -0.4852
21927W        W38774   7.680  12.585  14.733  0.1909  0.2490 -0.1460
21928W        W38775  16.305  15.152   0.067  0.0072 -0.2783  0.1821
21929W        W38776  13.074  17.976   5.220 -0.0300  0.0810 -0.2435
21930W        W38777   3.346   1.280  11.118 -0.1342 -0.1349 -0.0286
21931W        W38778  13.912   6.141   0.292 -0.0941 -0.0237  0.0045
21932W        W38779  12.321  10.197  16.025 -0.0388 -0.4092 -0.3421
21933W        W38780   4.345  14.577   0.868 -0.2409  0.3638  0.0555
21934W        W38781  12.789   8.714   0.373  0.2187 -0.1050 -0.0818
21935W        W38782   9.654   4.965   2.908  0.0641  0.0587 -0.2790
21936W        W38783  10.513   1.803   5.449 -0.0862  0.2241 -0.0635
21937W        W38784   8.466  14.070   4.543  0.5711  0.1089 -0.1132
21938W        W38785  17.307  17.493   4.136 -0.0705  0.0354  0.2351
21939W        W38786  10.734  17.257   2.174 -0.2359 -0.3098 -0.0585
21940W        W38787   3.471  13.394   1.806 -0.2698 -0.2592 -0.0241
21941W        W38788   6.528   2.352   0.558 -0.0216 -0.1477 -0.1500
21942W        W38789   6.019   6.319   2.862  0.1444 -0.1495 -0.1761
21943W        W38790  14.215  12.497   4.982  0.1374  0.0334 -0.1593
21944W        W38791   6.229  12.723  15.056  0.2228  0.3095  0.1473
21945W        W38792   8.847   1.642   4.945 -0.5027  0.0629  0.1239
21946W        W38793   0.699   3.009  15.914 -0.0669  0.1202  0.0031
21947W        W38794  10.887  13.148  14.609 -0.0413 -0.2514  0.2194
21948W        W38795  13.828   2.932   2.965  0.2054  0.2936  0.3274
21949W        W38796  11.552  17.827   6.111  0.1936  0.1993 -0.0783
21950W        W38797  16.000   5.961  13.101 -0.1502  0.2425 -0.0490
21951W        W38798  14.369  10.519   3.061  0.0908  0.0376 -0.1412
21952W        W38799   4.913  14.218   5.876  0.2163 -0.2229  0.2169
21953W        W38800  16.757   9.134  14.700  0.0147  0.0903  0.0636
21954W        W38801  13.653   5.993  14.848  0.1279 -0.0452  0.2983
21955W        W38802   1.721  10.915   1.010  0.2685  0.1530 -0.0020
21956W        W38803   3.188  15.349   2.047 -0.1731  0.0567  0.0769
21957W        W38804   4.978  10.671  12.926 -0.3100 -0.0585 -0.0354
21958W        W38805   9.424   9.477  14.676  0.1677 -0.3117  0.3452
21959W        W38806   7.679  10.464   2.300 -0.1949 -0.0490 -0.0581
21960W        W38807   9.270   8.768   4.408  0.0169 -0.0727  0.2411
21961W        W38808  11.200   8.634   1.373  0.0400  0.0190  0.0574
21962W        W38809   1.539  14.842   2.357  0.1472  0.2769 -0.0936
21963W        W38810  11.706   4.554   4.207  0.1974  0.3044 -0.1338
21964W        W38811   2.425   5.408   3.404 -0.1296  0.0523  0.0386
21965W        W38812   3.247   6.086   0.822  0.5156  0.1898 -0.0952
21966W        W38813  14.055   9.862   1.419  0.0189  0.0857 -0.1587
21967W        W38814   3.245   7.103  14.673 -0.2290 -0.0862  0.1110
21968W        W38815  14.562   0.782  15.415 -0.2269  0.2216  0.5134
21969W        W38816  14.284   6.645  15.298 -0.2508 -0.3231 -0.0593
21970W        W38817   1.235   6.430   0.981  0.1258 -0.4364 -0.1815
21971W        W38818   3.799   1.966   3.815 -0.1465 -0.0484  0.1413
21972W        W38819  13.153   7.654  15.485  0.1152 -0.3850  0.0396
21973W        W38820  13.239   5.587  11.975 -0.2707 -0.1566 -0.1665
21974W        W38821  13.127   4.768   3.958 -0.0753  0.1052  0.0561
21975W        W38822   7.096  18.005  13.024 -0.1235  0.3172 -0.1995
21976W        W38823  12.994   4.700   5.322 -0.1916 -0.1409  0.4401
21977W        W38824   9.098   8.214   0.614 -0.3139  0.1327 -0.2174
21978W        W38825   0.516   3.102  11.784 -0.1842  0.0093  0.0894
21979W        W38826   6.396  16.742   4.361 -0.2470 -0.0216 -0.3051
21980W        W38827  12.202  15.071   1.350  0.0641  0.1461 -0.0956
21981W        W38828   9.456  13.372   4.032 -0.1685 -0.0181 -0.3009
21982W        W38829   6.250  11.974   4.560  0.1104 -0.1888  0.1449
21983W        W38830  14.423  10.449  14.075  0.0420  0.1930 -0.0542
21984W        W38831  11.437  10.019   3.091 -0.2095  0.1210 -0.0972
21985W        W38832   5.104  16.083  15.129 -0.1609 -0.4542  0.1575
21986W        W38833   3.558   7.199   3.164  0.1454  0.2496 -0.1588
21987W        W38834  14.020   6.539  14.291 -0.1124 -0.6049 -0.1586
21988W        W38835   3.276   8.283  14.809  0.0229  0.1359  0.1844
21989W        W38836   2.750   7.517  15.759  0.0891  0.1990 -0.3834
21990W        W38837  18.287  11.234   3.433 -0.3222 -0.0364 -0.0478
21991W        W38838   8.879  11.903  15.011  0.3654 -0.4718 -0.1438
21992W        W38839   8.790   5.113   1.007  0.0937  0.2225  0.1620
21993W        W38840   4.557  16.523   4.133 -0.1557  0.1164  0.2662
21994W        W38841  11.631  11.927   3.625  0.2235 -0.2336  0.0374
21995W        W38842   0.747   8.521   2.301 -0.1731  0.0972 -0.0042
21996W        W38843   9.796  12.309   0.883  0.1326 -0.0932 -0.0251
21997W        W38844   1.263   1.154   1.245 -0.0282  0.0149  0.0483
21998W        W38845   8.163   5.512   3.353  0.3017  0.0869  0.1323
21999W        W38846   4.035  10.051   2.981 -0.2585  0.1334 -0.2730
22000W        W38847  14.287  10.201   0.603  0.1007 -0.0613 -0.2106
22001W        W38848  10.526  13.091  12.981  0.0462  0.2065 -0.3418
22002W        W38849  13.285   8.261  12.998  0.2659  0.3003 -0.2268
22003W        W38850   8.203  11.838   0.920 -0.1789  0.3520  0.0630
22004W        W38851  15.340   7.456  15.277 -0.2777  0.5617 -0.1273
22005W        W38852   0.099   4.088   4.843  0.1416 -0.1206  0.2613
22006W        W38853   0.466  15.794  13.218 -0.2869  0.0884 -0.2423
22007W        W38854   4.548  10.943  14.887 -0.0979  0.2849 -0.1351
22008W        W38855  15.486  10.647   4.647  0.1376 -0.0198  0.0817
22009W        W38856   3.883   4.668   4.254 -0.0623  0.3902  0.1690
22010W        W38857  17.963  12.973  15.142  0.2094 -0.3599 -0.0387
22011W        W38858  13.714  16.534  13.868  0.4725  0.1220  0.0522
22012W        W38859   5.591  17.596  14.063 -0.0977  0.1075  0.1508
22013W        W38860   5.203   7.380   3.402  0.1297  0.2958  0.3835
22014W        W38861   7.171   5.595   1.872  0.0374  0.0189 -0.1622
22015W        W38862   5.837  14.153  15.335 -0.0918 -0.0480  0.1142
22016W        W38863   5.275  17.542   2.010 -0.2271  0.0410  0.0823
22017W        W38864   4.411   9.653  13.662  0.0569 -0.1059 -0.0713
22018W        W38865  17.476   6.211   3.285 -0.1898  0.0321 -0.2065
22019W        W38866   3.920  16.982   1.496 -0.1472  0.0212  0.1469
22020W        W38867  11.233   1.848   3.593  0.1252  0.0007 -0.0517
22021W        W38868  10.994  11.116   1.241 -0.1223  0.3036 -0.0131
22022W        W38869  12.693   2.055   5.574  0.3891 -0.0333  0.0889
22023W        W38870  14.661   5.862   1.582  0.1672  0.4713 -0.0134
22024W        W38871  15.700  15.433  12.220  0.0009  0.0867  0.0538
22025W        W38872   4.150  14.345  16.129  0.1853 -0.1816  0.1536
22026W        W38873  17.101   6.124  16.166 -0.1328 -0.2539  0.0871
22027W        W38874  12.670   6.076  14.924  0.0383  0.2891  0.1503
22028W        W38875   3.450  15.841  13.433  0.0608  0.0318 -0.0808
22029W        W38876   9.717  13.758  13.352 -0.0388 -0.0535  0.2179
22030W        W38877  16.413   9.164   5.868  0.0166 -0.3291  0.4718
22031W        W38878   6.720  10.688   0.663 -0.1927  0.3438 -0.2433
22032W        W38879  10.176  10.586   1.190 -0.1835 -0.0350  0.3056
22033W        W38880   6.611   8.947   0.160 -0.1305 -0.0070  0.4279
22034W        W38881   8.446   1.511   3.580  0.0449 -0.4446 -0.2598
22035W        W38882  17.689   7.448  11.126  0.1315  0.0961  0.2345
22036W        W38883   6.352  14.740  14.203 -0.3339 -0.3629 -0.0876
22037W        W38884   1.697   2.021  14.355  0.0572  0.1356 -0.0568
22038W        W38885   6.649   1.851  12.506  0.2828  0.0672 -0.2287
22039W        W38886  13.008  13.583   4.404 -0.1772 -0.0746 -0.0920
22040W        W38887  13.768   3.105   2.489  0.0845 -0.1583  0.0196
22041W        W38888   0.584  17.329   5.055  0.4024 -0.0992  0.0582
22042W        W38889   0.899   4.573  15.933 -0.1617  0.2341  0.3497
22043W        W38890   7.180   9.202   3.527 -0.2868 -0.1179  0.0495
22044W        W38891   2.261   1.993  10.217 -0.4315 -0.3204 -0.0871
22045W        W38892   9.302   0.739   5.399  0.1497 -0.2953  0.3028
22046W        W38893  13.116   4.679  14.725  0.3307 -0.2020  0.0825
22047W        W38894   6.963   7.559   2.937 -0.3511  0.2247  0.0083
22048W        W38895   0.349  12.322   4.359  0.1359 -0.3541 -0.0429
22049W        W38896  16.097   4.543  11.388 -0.2651 -0.1763  0.0257
22050W        W38897   5.598  17.517   1.300 -0.0179  0.0909 -0.2127
22051W        W38898  16.178  16.675   4.821  0.0370 -0.0410  0.1427
22052W        W38899  13.696   3.576   9.978 -0.1638 -0.0651 -0.2122
22053W        W38900   7.286  10.832   1.506 -0.1121  0.0681  0.1480
22054W        W38901   5.959  10.726  12.308  0.3394  0.0821  0.1616
22055W        W38902   2.767  13.241   4.233  0.1021  0.2891  0.0883
22056W        W38903   4.008   6.083  11.927 -0.2935 -0.1433  0.1262
22057W        W38904   9.291   0.821   0.293 -0.2014  0.3959 -0.2340
22058W        W38905  14.240  17.462   1.142 -0.2260 -0.0022 -0.0560
22059W        W38906   8.321  10.063   1.747  0.3296 -0.0064  0.0514
22060W        W38907  10.912  14.592  14.853  0.3831 -0.0098 -0.1324
22061W        W38908  11.348   1.149   3.118  0.2001 -0.4276  0.0515
22062W        W38909   6.239   9.996   5.055  0.2337 -0.2769  0.1426
22063W        W38910  11.428   1.114  15.472 -0.1272  0.0304  0.0147
22064W        W38911  16.431   4.542   5.081 -0.1471  0.1652 -0.0104
22065W        W38912  12.177   8.719   5.630  0.1257  0.0729 -0.0728
22066W        W38913   1.238   8.815   4.473 -0.1334 -0.1032 -0.1878
22067W        W38914  11.966   3.495  11.457 -0.2685  0.3298  0.0674
22068W        W38915   1.582  11.689  15.495  0.2240  0.2200  0.1307
22069W        W38916   5.667   7.692   5.312  0.0692 -0.0265 -0.0913
22070W        W38917   7.141   1.150   6.601 -0.0385 -0.0329 -0.1042
22071W        W38918  18.121   6.082  13.424 -0.2331 -0.0363  0.0368
22072W        W38919   1.537  10.010  15.691 -0.0223 -0.0781 -0.0705
22073W        W38920   5.414   8.793  11.742 -0.2078  0.6495  0.0881
22074W        W38921   9.960   0.138  13.680 -0.0526 -0.2257 -0.1053
22075W        W38922  18.313   7.856   2.062  0.1862 -0.0250 -0.0519
22076W        W38923  12.324   0.309   4.137  0.1254 -0.0916 -0.2519
22077W        W38924  10.706   2.841   4.940  0.0394 -0.1487  0.0191
22078W        W38925  17.573  14.950   1.404  0.2418  0.0558 -0.1257
22079W        W38926   4.867   8.686   1.203 -0.1850  0.0838  0.3551
22080W        W38927   9.808  17.524  15.398 -0.0061  0.0097  0.2050
22081W        W38928   4.018   7.195   3.517 -0.1890  0.0681 -0.1462
22082W        W38929  16.667  10.241  12.653 -0.0133  0.0477  0.1336
22083W        W38930   6.031   0.143  11.782  0.2488  0.0867 -0.1472
22084W        W38931  11.040   9.804  13.212 -0.1040 -0.0170 -0.1815
22085W        W38932   4.879  13.971   6.397 -0.1190  0.4047  0.0897
22086W        W38933   1.738  11.294   0.091 -0.1897 -0.0526 -0.2990
22087W        W38934  16.550   0.700   0.818  0.1279  0.1412  0.1385
22088W        W38935  11.221  14.237  12.696 -0.0018  0.3662  0.1936
22089W        W38936   6.305   8.749   3.705  0.0484 -0.4542 -0.1520
22090W        W38937  13.436   2.633   2.894 -0.0400 -0.1007  0.1283
22091W        W38938  13.505   5.068  12.621 -0.1318  0.0184 -0.3057
22092W        W38939  13.286   0.639  15.885  0.2275 -0.1096  0.0494
22093W        W38940   9.140  12.851  13.228 -0.2060  0.0411 -0.0908
22094W        W38941   9.128  13.138   5.697 -0.1725  0.0630 -0.0372
22095W        W38942  14.084   0.711   3.559 -0.1066  0.1078  0.2650
22096W        W38943  14.395  11.423   4.636  0.0124 -0.0551 -0.1987
22097W        W38944   2.230  14.587  15.432 -0.1650  0.2267  0.1894
22098W        W38945   2.008  13.617   2.656  0.0495 -0.1009  0.1445
22099W        W38946   0.518  17.287  11.847 -0.1740  0.0549 -0.1613
22100W        W38947  10.083  13.434  15.678  0.0461  0.0552  0.2082
22101W        W38948  11.430  15.087  14.764  0.2569 -0.2234 -0.3426
22102W        W38949   3.218  11.198   4.375 -0.1435  0.1278 -0.2090
22103W        W38950  11.519  12.745   3.890 -0.2458 -0.1262 -0.4067
22104W        W38951  17.426  16.963   4.534 -0.1366  0.1964  0.1039
22105W        W38952  13.825   9.388   4.434 -0.1516 -0.1360 -0.1287
22106W        W38953  11.080   6.294   3.751  0.1198  0.1129 -0.0041
22107W        W38954   5.954  17.411  12.637 -0.0380 -0.3851 -0.0334
22108W        W38955   6.613  12.921   2.372 -0.1843  0.2714  0.1352
22109W        W38956   7.415  11.504   2.846 -0.0167  0.0530 -0.1311
22110W        W38957  13.008  15.086  15.659  0.3125  0.0983 -0.1013
22111W        W38958   3.897   9.847   0.684 -0.2161  0.0179 -0.1071
22112W        W38959   8.114   6.851   3.558 -0.0267 -0.0449  0.4289
22113W        W38960  16.027  14.301   0.582 -0.0378  0.4321  0.1056
22114W        W38961   8.975   1.503  11.698 -0.1781 -0.1034 -0.0298
22115W        W38962   5.761  13.817  14.321 -0.0874  0.1790 -0.1374
22116W        W38963   0.935   2.015   0.425 -0.0865  0.0081  0.1127
22117W        W38964   4.630  16.772   3.592 -0.1090  0.0404 -0.5892
22118W        W38965  12.113   2.976  12.888 -0.1924 -0.0748 -0.1203
22119W        W38966  12.518   0.783   5.104 -0.0029 -0.1834 -0.2540
22120W        W38967  10.228  14.456   4.977 -0.3435  0.1492 -0.3033
22121W        W38968  10.478  11.347  16.052 -0.1939  0.2252 -0.0151
22122W        W38969   6.690   5.610  14.990  0.1380  0.0416 -0.0612
22123W        W38970  15.091   3.056   5.292  0.1171  0.3747  0.0654
22124W        W38971  18.117   4.728   2.408 -0.2253  0.2760 -0.2103
22125W        W38972  15.113   5.800  13.255  0.1329 -0.0429 -0.1174
22126W        W38973  18.391  17.364  12.379 -0.1105 -0.1821 -0.0851
22127W        W38974   7.370  14.680   5.898 -0.2708 -0.1211  0.3700
22128W        W38975  18.049  11.706   1.563  0.3277 -0.1955  0.1216
22129W        W38976  12.361  14.452   4.608  0.0402 -0.0784  0.0411
22130W        W38977  14.470   9.575   4.451 -0.2870  0.1243  0.3478
22131W        W38978  12.642  10.893  16.089  0.0681  0.1960 -0.0592
22132W        W38979   2.802  14.418   1.549  0.0702 -0.0947  0.2749
22133W        W38980   0.072   9.757  15.019  0.1700  0.0282  0.0796
22134W        W38981  16.381   1.046   0.496  0.0024 -0.1100 -0.1650
22135W        W38982   2.517   2.952  11.626 -0.1015 -0.1236  0.0311
22136W        W38983   6.294   7.607   1.567 -0.2258  0.0423  0.1185
22137W        W38984   1.191   4.199  15.939 -0.0616  0.0502 -0.0507
22138W        W38985   3.668  17.322   2.995 -0.1088 -0.2705 -0.0719
22139W        W38986   4.591  18.349  16.171  0.1666  0.4762 -0.0105
22140W        W38987  15.231   4.742  16.104  0.2487 -0.1801  0.1775
22141W        W38988   2.077  11.643   0.062 -0.0483  0.0025 -0.3983
22142W        W38989  17.925   0.954  12.385 -0.1957  0.0403 -0.0273
22143W        W38990   9.201  13.775   5.413 -0.3785  0.1425  0.1617
22144W        W38991  15.654   0.022   3.261  0.0402  0.2404 -0.0001
22145W        W38992  18.318   2.067  11.341  0.1313  0.0513  0.2272
22146W        W38993  13.110   8.597  15.832  0.0516  0.0159  0.0187
22147W        W38994  10.630  17.202   0.151  0.1461  0.0006  0.2583
22148W        W38995   3.833  11.819   3.279 -0.1723 -0.2110 -0.5501
22149W        W38996  12.584  11.439  15.042 -0.1903  0.1712 -0.1137
22150W        W38997  13.393  13.818  16.016 -0.0592  0.0455  0.2252
22151W        W38998  14.996   6.029   1.117 -0.1160  0.1626 -0.1531
22152W        W38999  16.577  13.372   3.914 -0.0279 -0.1241 -0.1624
22153W        W39000  10.402  15.459  13.568 -0.0196  0.2936  0.0813
22154W        W39001  13.322  10.244  13.005 -0.1439  0.0372  0.1211
22155W        W39002   4.965   0.928  12.079  0.5320  0.2504  0.0405
22156W        W39003   4.507   8.144   0.401  0.1892  0.0154  0.4992
22157W        W39004  17.475  15.121   3.757 -0.1985 -0.4323  0.2982
22158W        W39005  15.189  10.728  12.191  0.0299 -0.2182  0.0010
22159W        W39006   8.073  16.501  15.225 -0.0239 -0.0785  0.1472
22160W        W39007  10.738   0.630   1.917  0.0802  0.0735 -0.2336
22161W        W39008   3.091  18.415  15.192 -0.4043 -0.0289  0.0489
22162W        W39009   9.855   4.178   3.420 -0.1557 -0.2169  0.1093
22163W        W39010  15.683   0.451  11.240  0.0038 -0.1381  0.0890
22164W        W39011   1.688   0.456  13.923 -0.1372 -0.2804 -0.0287
22165W        W39012   5.782  10.272  12.520  0.1331  0.2654  0.1970
22166W        W39013   7.416   0.182  14.088 -0.0677 -0.0376 -0.2598
22167W        W39014  13.614   8.000   0.283 -0.1689  0.0811  0.1632
22168W        W39015  17.687  11.998   1.821 -0.2021 -0.2059 -0.2064
22169W        W39016   5.648   0.278   6.025 -0.1235 -0.0974 -0.0393
22170W        W39017  17.548   4.914  14.196  0.1489  0.0016  0.2595
22171W        W39018  16.956  16.965  13.653 -0.1041 -0.3182 -0.0820
22172W        W39019  18.074  17.550  14.468 -0.1692  0.0989 -0.0016
22173W        W39020   0.862  12.889  15.065  0.0557  0.1325 -0.2670
22174W        W39021   9.364  11.630  14.116  0.0293  0.0445  0.1884
22175W        W39022  10.114  10.048   1.796 -0.1107  0.1032  0.0595
22176W        W39023  16.190  11.360  15.019 -0.2037 -0.0575 -0.0698
22177W        W39024  15.303   5.624   2.410  0.2106  0.1270 -0.0878
22178W        W39025  15.237   3.063  14.466  0.2870 -0.0389  0.0055
22179W        W39026  12.938  11.232  15.656  0.0259 -0.0523  0.1532
22180W        W39027   3.805  17.380   5.841 -0.2639  0.0417  0.1687
22181W        W39028   0.408   0.206   5.870 -0.0834 -0.0617  0.0892
22182W        W39029  15.120   4.755  15.642 -0.1516 -0.0590  0.1844
22183W        W39030   7.544   1.239   4.911  0.1951  0.0573  0.2887
22184W        W39031  12.482  11.890   0.812  0.0788  0.0844  0.2802
22185W        W39032  10.331  16.852  15.181 -0.0442  0.1462  0.0216
22186W        W39033  17.195   5.944  12.701  0.1174 -0.2101 -0.0230
22187W        W39034  14.709   0.385  12.268  0.0430 -0.1517  0.1263
22188W        W39035   4.827   7.546  10.207 -0.2902  0.4365 -0.3203
22189W        W39036   2.019   2.390  15.992  0.1475  0.1749  0.0951
22190W        W39037  12.680   9.843  14.260  0.2786  0.0705  0.0863
22191W        W39038   6.566  11.183  16.058  0.0334  0.1182 -0.2133
22192W        W39039   2.105   4.793   5.389 -0.3352  0.2883  0.0125
22193W        W39040   5.181   4.733   1.159 -0.3424 -0.4040 -0.1222
22194W        W39041   0.699   0.015   3.406  0.2802 -0.1376  0.1364
22195W        W39042   6.127  18.254  13.699  0.3824 -0.3914 -0.2921
22196W        W39043   3.434   8.128   2.165 -0.1166 -0.3416 -0.1158
22197W        W39044   0.311  11.195  15.887 -0.0207  0.0349 -0.0770
22198W        W39045   9.799   2.719  14.201  0.2153  0.0582 -0.2513
22199W        W39046   0.742   9.534   0.690 -0.0477  0.2919 -0.1964
22200W        W39047  10.993  10.900   2.032  0.2551 -0.3192 -0.0729
22201W        W39048   8.385   4.118   0.882  0.1748  0.0038  0.0513
22202W        W39049   8.986  16.096   1.294 -0.1931  0.0617 -0.0535
22203W        W39050   1.664   5.725  15.264 -0.1488 -0.2574  0.0242
22204W        W39051  15.699  15.668  15.481  0.1581  0.1292 -0.0805
22205W        W39052   3.540   2.761   1.416  0.1007 -0.2935  0.2922
22206W        W39053   4.217   2.479  13.502  0.1386 -0.1914 -0.2900
22207W        W39054  16.124  16.400   3.242  0.0971  0.2037  0.0504
22208W        W39055   9.165  10.585  14.846 -0.0830 -0.2216  0.0140
22209W        W39056  11.989   7.077   2.957 -0.3854  0.0696 -0.0432
22210W        W39057  14.031  11.082   2.755 -0.1051  0.2724 -0.0910
22211W        W39058   2.726   3.379   2.315 -0.0509  0.0901 -0.2374
22212W        W39059   5.859   5.798   5.697  0.2653 -0.2395 -0.1399
22213W        W39060   7.254   6.243   3.987 -0.4235 -0.0452  0.1954
22214W        W39061  16.048  14.136  11.909 -0.0604 -0.0395  0.1163
22215W        W39062   1.364   3.698  16.028 -0.1090 -0.0173 -0.2929
22216W        W39063   2.962   2.070  13.112  0.2163  0.3547  0.3499
22217W        W39064   9.780   4.786   2.466  0.0674 -0.1202  0.0390
22218W        W39065   3.350   9.849  12.197 -0.1626  0.0911  0.0095
22219W        W39066  10.840   6.023  12.898  0.1409 -0.1873 -0.4521
22220W        W39067  17.296   6.839  12.784 -0.1414  0.1559  0.0954
22221W        W39068   2.105  13.346  14.618  0.1514  0.2240  0.1029
22222W        W39069  17.429  15.571   5.084  0.1347 -0.0022 -0.1437
22223W        W39070  12.091   3.900  15.574 -0.0276  0.0943  0.0626
22224W        W39071   2.571  14.252   2.232  0.0205  0.1806  0.0651
22225W        W39072  18.354  18.357  15.455 -0.0796 -0.0190 -0.1356
22226W        W39073  16.691  12.155   4.589 -0.0091  0.0055 -0.0233
22227W        W39074   8.149   2.922  14.256  0.2559  0.0561 -0.0512
22228W        W39075   1.181   7.278  13.941  0.3878  0.2726 -0.2474
22229W        W39076   9.353   0.914   2.863  0.0844  0.3795 -0.1640
22230W        W39077   5.648  14.659   0.670  0.0443 -0.0047  0.2215
22231W        W39078  12.005  13.278   6.247 -0.1986 -0.1313  0.4221
22232W        W39079  15.182   7.572  11.682 -0.2043 -0.1800  0.1344
22233W        W39080  12.442  12.203  13.005  0.0073  0.1343 -0.2034
22234W        W39081   2.803   9.236   0.259  0.0761 -0.2976 -0.0087
22235W        W39082   2.428   7.764  12.716  0.1830  0.0165  0.0251
22236W        W39083  13.147   8.609   3.428  0.2478  0.1800 -0.0258
22237W        W39084   6.771   1.092  12.144  0.2530 -0.0047  0.3814
22238W        W39085  16.862   4.680  14.705 -0.1140 -0.0479 -0.0927
22239W        W39086  18.124   5.121  16.307  0.2543  0.2024 -0.0687
22240W        W39087   9.585  17.930  11.877 -0.1802  0.1858 -0.2065
22241W        W39088  16.810  12.200  14.200 -0.0782 -0.0419  0.0283
22242W        W39089   2.689  10.847   2.029  0.0628 -0.1267  0.1363
22243W        W39090  12.564  18.190  15.054  0.0497 -0.0875 -0.0998
22244W        W39091   8.238   8.436  12.646  0.0351  0.1097  0.1283
22245W        W39092   1.188   3.877  14.379 -0.0386  0.0760  0.1200
22246W        W39093  12.735   6.781   0.540 -0.3103 -0.0035 -0.1574
22247W        W39094   3.540  15.226   3.669  0.1751  0.4439  0.1664
22248W        W39095   0.466   6.220  12.505 -0.0198  0.0426  0.1300
22249W        W39096  12.212   7.621   3.142 -0.1933 -0.5052 -0.1185
22250W        W39097   4.401  15.344   5.659  0.0487  0.0576 -0.4762
22251W        W39098   0.470  15.700  11.857 -0.1569  0.0329 -0.0089
22252W        W39099  10.731   5.419  12.031 -0.1453  0.2808  0.0562
22253W        W39100   4.190  14.632   5.313  0.0048 -0.1764 -0.3518
22254W        W39101   6.536  13.815  12.944 -0.1049  0.1353 -0.0948
22255W        W39102   4.972   1.661   4.455 -0.0533 -0.1370  0.1567
22256W        W39103  10.537   7.515  11.588  0.2750 -0.0501  0.0578
22257W        W39104  15.012   1.474  15.598  0.1493 -0.1230  0.1816
22258W        W39105   6.021  17.519   4.336 -0.1110  0.0543 -0.0640
22259W        W39106   1.904   4.534  15.175  0.1522 -0.2088 -0.3282
22260W        W39107  12.328   0.869  15.603  0.3430  0.0848 -0.1642
22261W        W39108  10.750  11.478   2.588 -0.0676  0.3469 -0.1083
22262W        W39109  11.505   5.769   1.951 -0.0176  0.0138 -0.3037
22263W        W39110   5.866   7.923  11.908 -0.2125  0.0340  0.0478
22264W        W39111  10.304   3.026   2.717  0.1791 -0.1072 -0.2901
22265W        W39112  12.487   3.596  12.305  0.1838 -0.0152  0.1056
22266W        W39113   7.303  10.873  15.427  0.3192  0.0837  0.0032
22267W        W39114  16.137  17.541   4.236  0.1169 -0.3246 -0.1001
22268W        W39115  10.527   8.212   3.310  0.0308  0.0892 -0.1504
22269W        W39116   0.017  12.796   2.361  0.2943  0.0225 -0.2016
22270W        W39117  15.837  14.972  16.368 -0.1031  0.1513 -0.0558
22271W        W39118   1.423  14.230  14.000  0.0578 -0.0995  0.0089
22272W        W39119  17.270  14.198   2.234 -0.1794  0.3414 -0.3394
22273W        W39120   2.825  18.289   4.957  0.1655  0.2179 -0.0910
22274W        W39121   7.872   6.837  12.629 -0.1568  0.0782  0.1186
22275W        W39122  16.111   3.905   0.833  0.0748  0.0341 -0.0819
22276W        W39123   1.220   3.377  15.663  0.0711  0.0763  0.0075
22277W        W39124  11.595  14.126   2.871 -0.0598  0.0363 -0.0740
22278W        W39125   0.301  13.909  14.597  0.1027  0.1380 -0.3453
22279W        W39126  11.473   0.147  12.323  0.1797  0.2390  0.2589
22280W        W39127  14.492  10.257  11.264 -0.2103  0.1720 -0.3842
22281W        W39128   4.305   0.063   4.274 -0.1048  0.0477  0.1222
22282W        W39129  17.903  10.009   1.784  0.0273  0.1444 -0.0294
22283W        W39130  18.043   8.991  15.169 -0.0101 -0.1402  0.1529
22284W        W39131  16.785   4.123  13.276  0.1361  0.0787 -0.1726
22285W        W39132   5.635   2.309   1.579  0.1531  0.2390  0.2598
22286W        W39133   8.146   2.985  10.312 -0.0060 -0.2169 -0.2713
22287W        W39134  11.581  10.757  15.935  0.0570 -0.0708 -0.2964
22288W        W39135  17.693   5.697  13.441 -0.1027 -0.0574  0.3015
22289W        W39136   6.340  17.421  14.699  0.2176  0.1829  0.0530
22290W        W39137   7.197  10.268   2.520 -0.1089 -0.0504 -0.0555
22291W        W39138   6.615  10.712   3.363 -0.0882 -0.2484  0.0775
22292W        W39139   7.619  14.064   0.110 -0.2006 -0.1197 -0.2590
22293W        W39140   1.996  18.285   2.979  0.3487  0.1140 -0.1533
22294W        W39141  12.605   2.581   4.110 -0.5313  0.0243 -0.0812
22295W        W39142   0.397  12.948   2.059  0.1635  0.1103  0.3215
22296W        W39143  15.005   4.239   4.296 -0.2114 -0.0960 -0.2169
22297W        W39144   0.461   6.507   4.941  0.1154  0.0293  0.0558
22298W        W39145   4.748   8.919   2.334 -0.1716  0.1300 -0.0977
22299W        W39146  16.467   2.986  12.483  0.2173  0.0284 -0.0869
22300W        W39147  14.948  16.212  11.544  0.2107  0.3204  0.0743
22301W        W39148   9.938  11.458   4.667 -0.0484  0.2451 -0.0334
22302W        W39149  15.359   9.542  14.988  0.0980 -0.2612 -0.1921
22303W        W39150  17.998   7.507  11.708  0.0122  0.0103 -0.0540
22304W        W39151  14.654   5.467   2.035  0.0236  0.0972  0.0028
22305W        W39152   9.622  15.579  12.572  0.0595  0.5060  0.2837
22306W        W39153   9.832  16.535   0.047 -0.4168 -0.1641  0.3258
22307W        W39154  14.382   5.182   0.069 -0.3900 -0.1633 -0.1473
22308W        W39155   1.275  17.589  15.169 -0.0583 -0.4213 -0.1510
22309W        W39156   4.662  10.957   3.229 -0.0395  0.0321 -0.4430
22310W        W39157   3.682  10.922  14.880  0.3105 -0.1103  0.0857
22311W        W39158   4.239  13.596   2.543 -0.0763  0.2630 -0.0422
22312W        W39159  10.864   1.255  14.006 -0.3502  0.1587  0.1428
22313W        W39160   1.697  11.050  14.479 -0.0177 -0.2889 -0.2072
22314W        W39161   2.505   7.962  15.744  0.1931  0.3821  0.1559
22315W        W39162  14.130   3.690   1.928 -0.2007  0.3376  0.1679
22316W        W39163   4.687  17.424   4.571 -0.2241  0.1447 -0.3054
22317W        W39164  18.347  11.012  13.458 -0.0657  0.5878  0.0154
22318W        W39165   1.923   1.680   2.110  0.0985 -0.0963 -0.0585
22319W        W39166   8.275  18.360   4.293  0.0901 -0.1667 -0.0486
22320W        W39167   6.848  17.250  13.354  0.4171  0.1480  0.0019
22321W        W39168  11.605   1.584  11.367 -0.1295  0.0235 -0.0129
22322W        W39169   2.268   5.775   5.721  0.1271 -0.2404  0.1970
22323W        W39170   4.158  12.575   4.496 -0.2803  0.0818 -0.1013
22324W        W39171  12.176  15.686  14.631  0.0061  0.2075 -0.1191
22325W        W39172   5.161   0.328   4.415  0.2597 -0.1349  0.1121
22326W        W39173  18.203   8.314  13.815  0.1987 -0.3454 -0.2311
22327W        W39174   2.196  12.732   2.432  0.2501  0.2134 -0.0094
22328W        W39175   8.850   3.861   4.856  0.2304  0.1559 -0.0126
22329W        W39176  11.730   4.079  13.631 -0.2057  0.0796 -0.0258
22330W        W39177   4.905   2.605  15.669 -0.0613 -0.0891 -0.1371
22331W        W39178   0.279   1.471  16.041  0.3499  0.1603  0.2736
22332W        W39179  12.274  13.105  16.331  0.2973 -0.2325  0.0755
22333W        W39180  11.087   1.712   2.231  0.0497 -0.0262  0.0304
22334W        W39181  16.589   7.965   4.146  0.0327  0.3108  0.2698
22335W        W39182   1.528  11.823   0.743  0.1059  0.0799  0.3456
22336W        W39183  18.027   8.136  10.410  0.3070  0.0854  0.1158
22337W        W39184  14.357   3.429  14.526 -0.0415 -0.0749 -0.1188
22338W        W39185  11.388  16.670  12.626  0.0468 -0.0960 -0.0894
22339W        W39186   1.441   0.732  14.293  0.0160  0.1099 -0.2187
22340W        W39187   8.002  12.354   3.501  0.1697  0.0746 -0.3061
22341W        W39188  16.761   2.112   3.092  0.0528  0.1646 -0.0892
22342W        W39189  18.235  16.837   5.419 -0.1661  0.0046 -0.0881
22343W        W39190  13.097  15.354   5.975  0.0383 -0.1849  0.1058
22344W        W39191  17.224  14.214   3.339  0.4023  0.1350 -0.0893
22345W        W39192  17.251   4.141  13.461 -0.0382 -0.0483 -0.2633
22346W        W39193   8.157   7.973   1.698 -0.0729 -0.4330  0.3945
22347W        W39194   3.983   7.257  10.370  0.0584 -0.0099  0.4138
22348W        W39195   7.780  15.263  14.919  0.0831  0.0858  0.2391
22349W        W39196   2.437   9.778   3.651  0.1976 -0.1651  0.0404
22350W        W39197   2.534   0.944   1.335 -0.1154 -0.0879 -0.0262
22351W        W39198   4.585  12.778   0.723  0.1191 -0.1760 -0.0656
22352W        W39199   8.337  10.344   3.989  0.2114  0.2153 -0.1637
22353W        W39200  10.010  15.259   4.726  0.1254 -0.2752  0.0915
22354W        W39201  11.342   0.632  15.817  0.0859  0.3652 -0.2610
22355W        W39202  15.191  13.359   2.333  0.1101  0.0509  0.0343
22356W        W39203  13.743   7.622   3.436  0.0595  0.0232 -0.0760
22357W        W39204  13.616   9.250  12.143  0.2677 -0.2244 -0.3609
22358W        W39205  16.304   3.770   3.910 -0.2854 -0.1394 -0.4803
22359W        W39206   0.539  14.241  15.579  0.0952  0.1488  0.1645
22360W        W39207  11.357  11.077   3.866 -0.0384 -0.2823 -0.1462
22361W        W39208   6.909  18.050   3.709  0.1084  0.1984  0.1056
22362W        W39209   0.767   6.999  12.090  0.2811  0.0312  0.3043
22363W        W39210  16.814   9.112   2.106 -0.3120  0.4559  0.0034
22364W        W39211  10.066   7.353  10.863  0.2006 -0.2498 -0.0661
22365W        W39212   4.903  10.350   1.828 -0.0071  0.0904 -0.0519
22366W        W39213  11.643   3.395   2.563  0.0280 -0.2352  0.5553
22367W        W39214   8.871  12.719   3.803  0.3561 -0.2330  0.1320
22368W        W39215  11.440   1.372   0.113 -0.3860 -0.4121 -0.2133
22369W        W39216  10.142  16.133   4.859  0.0057  0.1450  0.1599
22370W        W39217   7.766  12.602   0.530  0.1646  0.0731  0.2227
22371W        W39218   0.468   1.491  15.347  0.1395 -0.0102 -0.1031
22372W        W39219  16.164   1.386  11.959 -0.2601  0.2252  0.2207
22373W        W39220  17.757  12.968   1.994 -0.0711  0.0171  0.0315
22374W        W39221  16.268  18.324  13.747  0.4225  0.0065 -0.2740
22375W        W39222  18.083   7.147  10.853  0.2460  0.1615  0.1320
22376W        W39223   8.338   6.379  16.069  0.1354 -0.0107 -0.1913
22377W        W39224  11.582   7.808  13.158 -0.2390 -0.1157 -0.4801
22378W        W39225   1.260  16.282   5.392 -0.2138  0.2870  0.1326
22379W        W39226  16.610   1.791   2.548 -0.3693  0.1821  0.2707
22380W        W39227  18.061   2.053  13.419  0.2589  0.2829 -0.0608
22381W        W39228  18.174  13.785   4.807 -0.1162 -0.2509  0.3243
22382W        W39229   2.436  17.690   1.810 -0.1937 -0.2022 -0.2206
22383W        W39230  11.909   5.293   1.612  0.4827  0.0795  0.0454
22384W        W39231   8.926  11.011  13.332 -0.2389 -0.0848 -0.1236
22385W        W39232   0.943   3.794  14.827  0.0585  0.0228 -0.0790
22386W        W39233  14.582  14.890  10.691  0.0410 -0.0868 -0.1122
22387W        W39234   9.838  13.183  15.168  0.0438 -0.3377  0.0250
22388W        W39235  14.992   5.220   3.312  0.1840  0.2243 -0.1477
22389W        W39236  10.128   8.594   2.180 -0.0973  0.2010  0.5011
22390W        W39237   4.966   7.447  15.102 -0.4125  0.1710  0.1611
22391W        W39238   6.378  13.289  15.499 -0.1627 -0.0031 -0.0307
22392W        W39239   2.943   9.981   4.879 -0.3118 -0.1262  0.1671
22393W        W39240   1.767  16.265   5.373 -0.0966 -0.1422 -0.2775
22394W        W39241   4.177   5.074   3.341 -0.0639  0.0122 -0.2423
22395W        W39242   3.441  15.596  15.673  0.1671 -0.2449  0.0425
22396W        W39243   9.623   9.690  13.562 -0.2761  0.0691  0.1593
22397W        W39244   0.891   3.743  11.466  0.4705  0.4041  0.1107
22398W        W39245  17.518   0.816  11.794 -0.0072 -0.0030 -0.3046
22399W        W39246   3.865  16.384   1.416  0.0990  0.0579 -0.0370
22400W        W39247   7.239  10.010   3.661  0.1152 -0.2418  0.2368
22401W        W39248   5.737   3.275   3.818  0.1765 -0.3366  0.0032
22402W        W39249   0.111   6.592  12.672  0.1034  0.1727  0.1707
22403W        W39250  15.332  14.003   4.530  0.1663  0.1046  0.3630
22404W        W39251   9.263  12.438   3.859 -0.1305  0.0472 -0.0284
22405W        W39252   1.280   5.924  13.416 -0.0966 -0.2693  0.0873
22406W        W39253  15.697  11.669   2.012  0.3312  0.0625  0.2127
22407W        W39254   3.896   2.878  13.603  0.1340  0.2248  0.0837
22408W        W39255   4.062   7.368   2.062 -0.1720  0.4108 -0.1018
22409W        W39256  10.143   2.870   2.230 -0.0096 -0.0723  0.0046
22410W        W39257  13.045   9.874  15.083  0.1544  0.0118  0.2644
22411W        W39258   1.297   1.514   3.558  0.3686  0.3152  0.2462
22412W        W39259   4.497  18.214   2.153 -0.0414  0.2949 -0.0660
22413W        W39260   9.447  14.979   5.425 -0.3795 -0.0831 -0.2361
22414W        W39261  17.911  12.582  14.819 -0.5097 -0.3785 -0.0742
22415W        W39262   5.441  13.273  15.352 -0.2348  0.2183  0.2259
22416W        W39263   7.529   3.788   3.927 -0.1631  0.1965  0.2369
22417W        W39264  12.403  13.895   2.839  0.1479 -0.2565 -0.1354
22418W        W39265  16.855   9.063  13.716  0.0859  0.0258 -0.0659
22419W        W39266   1.990   8.263  12.600  0.0189  0.1015 -0.0527
22420W        W39267  12.136   0.480  15.264 -0.2427 -0.0412 -0.0750
22421W        W39268  12.677  14.117   5.654  0.0649 -0.2253  0.2602
22422W        W39269  17.901   3.690   0.039  0.4686  0.2951  0.0859
22423W        W39270   8.287   2.042  15.341 -0.1102  0.0066 -0.1651
22424W        W39271   2.949   6.732  15.414  0.3427  0.3843 -0.4346
22425W        W39272   8.988  15.816  15.139 -0.3374 -0.0421  0.0960
22426W        W39273   3.528  16.187  14.335  0.0261 -0.2973  0.2354
22427W        W39274   6.434  12.856   0.072  0.1584  0.0890 -0.6071
22428W        W39275  13.123   2.885   3.980  0.1760 -0.1362  0.1959
22429W        W39276   1.130  15.465   2.899 -0.0493  0.1156  0.0195
22430W        W39277   4.288   8.467  14.111 -0.2988 -0.0508 -0.2337
22431W        W39278   8.649   6.929  12.173 -0.0879  0.2409  0.0583
22432W        W39279   9.907   6.304   5.457 -0.2547 -0.0419  0.2048
22433W        W39280  17.315   7.927  14.446 -0.3103  0.2444  0.2748
22434W        W39281   5.990   6.329   2.325  0.1486  0.0080  0.2045
22435W        W39282   7.029   0.354   1.171 -0.1018 -0.0670  0.0366
22436W        W39283  10.395  14.223   4.546  0.0264 -0.0427  0.1882
22437W        W39284   7.661  15.372   5.172 -0.2128  0.0597  0.0426
22438W        W39285  10.608   1.229   4.688  0.2485  0.2147 -0.3905
22439W        W39286   0.093  12.434   1.987 -0.1383 -0.1672 -0.3326
22440W        W39287  15.104   4.737   0.898 -0.0810 -0.0414 -0.2148
22441W        W39288   1.779   6.718   2.820  0.2509  0.2843  0.0052
22442W        W39289   0.444   4.317   5.178 -0.1470 -0.4667  0.0086
22443W        W39290   6.070  17.410   1.141 -0.1000  0.0835 -0.0308
22444W        W39291   3.452   5.941   0.407 -0.2316 -0.1669  0.4667
22445W        W39292   7.304  11.855   2.498 -0.2008 -0.0505  0.0072
22446W        W39293   9.712  17.652   3.272 -0.2309 -0.0797 -0.1325
22447W        W39294  15.097   4.586   0.273  0.1078  0.1732 -0.1699
22448W        W39295  12.346  18.233   2.348 -0.1006 -0.1789 -0.0466
22449W        W39296  12.477  16.992   2.926  0.0774  0.0880 -0.1034
22450W        W39297  11.432   8.047  14.425 -0.0925 -0.2314  0.1864
22451W        W39298   9.747   7.460  15.885  0.0627  0.2193 -0.4412
22452W        W39299  17.234  18.301   4.142 -0.1564  0.3079 -0.2164
22453W        W39300  10.832   7.397   3.297  0.0333 -0.0139 -0.1582
22454W        W39301   7.485   2.320  15.182 -0.0159 -0.3924  0.0206
22455W        W39302   7.772   0.466   2.231 -0.3038 -0.0539 -0.0103
22456W        W39303  16.964  12.976  12.377 -0.3378 -0.0126 -0.1406
22457W        W39304  14.777  16.668   4.598 -0.2206  0.0507 -0.0492
22458W        W39305  12.863  16.618   1.907 -0.1917 -0.1092 -0.1516
22459W        W39306   6.573   8.632  14.210 -0.0994  0.0030  0.4139
22460W        W39307  14.838  11.011  13.095 -0.0527  0.1462  0.1769
22461W        W39308   1.064  13.946   4.816 -0.2251 -0.0047  0.1077
22462W        W39309   0.470   4.963  11.838  0.0576  0.1196  0.0394
22463W        W39310   1.152   4.082   3.906 -0.1183  0.0100  0.2712
22464W        W39311  16.674  16.988  15.257  0.3169 -0.0142  0.2395
22465W        W39312  15.076  11.067  12.613  0.3510  0.0228 -0.0832
22466W        W39313   4.362   9.903   4.434 -0.1847  0.0026  0.2714
22467W        W39314   9.734   9.636   1.688 -0.1532  0.1064 -0.0201
22468W        W39315   2.403   6.584   0.191 -0.0447  0.1565 -0.2859
22469W        W39316   1.793   6.739  15.077  0.1751 -0.3907  0.1138
22470W        W39317  10.582   8.653   1.890 -0.0839  0.2238  0.1439
22471W        W39318   5.904  15.241   3.810 -0.1759  0.0286  0.0417
22472W        W39319   0.738  10.162  15.234  0.1499  0.0346  0.0554
22473W        W39320   3.872  17.343   0.008  0.2387 -0.4951 -0.1616
22474W        W39321   3.688   1.887   2.272 -0.1933 -0.1842 -0.0367
22475W        W39322  16.917  18.179   1.359  0.1892  0.0009 -0.1076
22476W        W39323   4.875  18.029  11.656  0.0153  0.1162 -0.1417
22477W        W39324   2.351  17.229  12.393  0.3240  0.2667  0.0533
22478W        W39325   7.492  11.562  11.836 -0.1325  0.4372  0.1905
22479W        W39326  10.008  13.374  13.747  0.2014  0.2090 -0.3260
22480W        W39327   3.383   3.794  12.259  0.2911  0.3260 -0.2050
22481W        W39328   9.736   8.184   4.873 -0.1605 -0.0387 -0.2765
22482W        W39329   0.345   4.175  13.938 -0.1311  0.0312  0.1720
22483W        W39330   1.506   7.704  11.888  0.0422  0.2093 -0.0073
22484W        W39331   9.137  14.175  16.027  0.0049 -0.0657 -0.0198
22485W        W39332   7.081   9.131   0.345 -0.3357  0.1802 -0.3416
22486W        W39333   3.560   3.221  14.019 -0.0172 -0.2282  0.2336
22487W        W39334   0.744  17.640   0.918 -0.4545  0.1740 -0.0657
22488W        W39335  17.169  18.372  15.525  0.1379  0.1787 -0.0128
22489W        W39336   3.909  15.435  11.723 -0.3366 -0.0223  0.2233
22490W        W39337   2.460  13.275  15.944 -0.0519 -0.0519  0.0743
22491W        W39338   4.460  15.093   5.261 -0.0321  0.3325  0.0513
22492W        W39339  13.174   4.148   3.253  0.2185 -0.4058 -0.1374
22493W        W39340  12.246  10.031  11.627 -0.0558  0.1836  0.1025
22494W        W39341   9.187   6.913  14.999  0.0242  0.1017  0.0051
22495W        W39342   9.151   2.663  15.329 -0.1991  0.0244 -0.0186
22496W        W39343   8.253  17.919  10.674  0.0110  0.0216  0.2501
22497W        W39344  11.657  17.059  13.031  0.1147 -0.4552  0.1108
22498W        W39345   3.594   6.477   3.611 -0.2074 -0.0346 -0.1088
22499W        W39346  16.132  16.013  14.304 -0.3415 -0.0396 -0.0241
22500W        W39347   9.870  15.545  14.925 -0.0159 -0.0822  0.3454
22501W        W39348   5.620   2.372   1.051 -0.0898 -0.1428  0.0167
22502W        W39349  13.543   9.774   0.377 -0.1934 -0.2269  0.1378
22503W        W39350   2.828   4.925   4.760 -0.0961 -0.4427 -0.0899
22504W        W39351  15.260  16.631  13.419 -0.0174  0.0255 -0.1138
22505W        W39352   3.337   6.969  15.158 -0.0768  0.2332 -0.3079
22506W        W39353  13.837   4.519  14.250  0.1224  0.4183  0.1798
22507W        W39354   7.482  14.085  13.135 -0.1833 -0.0582 -0.2556
22508W        W39355   6.296  16.131  15.370 -0.1625 -0.0907 -0.0699
22509W        W39356   5.217  16.812  12.860  0.4546  0.1087  0.0065
22510W        W39357   0.210   3.833   9.486  0.1379 -0.0446 -0.0298
22511W        W39358  14.645   5.771  12.374  0.0950 -0.0198  0.1551
22512W        W39359  18.280   6.962   0.943 -0.0474 -0.1613  0.0960
22513W        W39360   8.236  13.327  11.523  0.3387 -0.0607  0.1703
22514W        W39361   0.195   1.852  15.714 -0.1408  0.0239 -0.0726
22515W        W39362  13.573   0.625   1.067  0.2164 -0.1636 -0.2585
22516W        W39363   6.384   0.352   0.429  0.0449 -0.2671  0.2100
22517W        W39364   9.221   3.536   1.246 -0.0752 -0.0112  0.3741
22518W        W39365  15.350  13.574  16.072  0.1233  0.1618 -0.3935
22519W        W39366  15.884   4.748  15.150  0.0504  0.4367  0.1017
22520W        W39367   2.851  15.331   2.411  0.3955 -0.1689  0.1851
22521W        W39368  15.843   1.303  13.556  0.1578  0.4224  0.1223
22522W        W39369   8.613   0.083   3.777 -0.4147  0.0928 -0.2395
22523W        W39370   0.681   2.307   1.391 -0.1405  0.0614  0.3186
22524W        W39371   7.355   9.600  12.807  0.0635  0.0261 -0.3916
22525W        W39372  11.683   5.629  15.583 -0.1258  0.1563  0.4818
22526W        W39373  16.239   5.463   1.438 -0.0267  0.2996  0.0054
22527W        W39374  14.327   4.513  13.511 -0.0204 -0.1018  0.2432
22528W        W39375  15.754  10.256   1.969  0.0949 -0.3023  0.0059
22529W        W39376   8.642  10.732  14.475 -0.0882  0.0181 -0.0521
22530W        W39377   5.072  18.404  11.938  0.2962  0.2008 -0.0202
22531W        W39378  12.446  10.198   1.061 -0.1156  0.0633  0.0071
22532W        W39379   6.102   1.030   1.939 -0.2261  0.0895  0.4750
22533W        W39380   3.573   3.129  11.259  0.0631 -0.3824 -0.0256
22534W        W39381  14.646   1.201  11.770 -0.0622  0.0368 -0.1294
22535W        W39382   5.019  10.500  14.792 -0.0914 -0.4944 -0.1715
22536W        W39383  17.234   5.135  15.375 -0.0846 -0.1187  0.2841
22537W        W39384  12.181  11.694  15.287  0.0961  0.2735 -0.3215
22538W        W39385  15.873   5.382  15.183  0.1373 -0.2729 -0.0150
22539W        W39386  16.346   0.066   0.427 -0.2237  0.1395 -0.1742
22540W        W39387  15.283   0.830  14.863 -0.1346 -0.1599  0.1080
22541W        W39388   5.367   5.448  15.537 -0.0002  0.3743  0.1948
22542W        W39389  14.307   9.602  14.649  0.1774  0.3249  0.0216
22543W        W39390  15.903  11.444  12.155 -0.1087  0.2223 -0.2853
22544W        W39391   7.092   7.817   0.944 -0.0436  0.2254 -0.1300
22545W        W39392   0.776  13.457  12.212  0.2373  0.0433  0.0752
22546W        W39393  18.081   8.659  12.376 -0.1690  0.1278  0.4080
22547W        W39394   7.407   2.262   0.409  0.1779  0.0126 -0.1777
22548W        W39395  11.266   7.450  12.324 -0.1613 -0.1429 -0.1952
22549W        W39396  16.652   3.584   4.219  0.1232 -0.1077  0.4096
22550W        W39397   5.947  15.037  11.685 -0.0496 -0.0558  0.1276
22551W        W39398   9.834  16.483   3.770 -0.1802 -0.1258 -0.1143
22552W        W39399   8.761   8.862   4.613  0.1233  0.0696 -0.0813
22553W        W39400   9.784   1.998  11.627 -0.3486 -0.1594  0.3828
22554W        W39401   3.514  14.476   3.251  0.0805  0.0389  0.1511
22555W        W39402   1.084   2.059   2.297  0.0762 -0.3032  0.0785
22556W        W39403  16.877   5.474   2.847 -0.0249 -0.2816  0.2304
22557W        W39404  11.905   6.989  13.030  0.2825  0.2771  0.1350
22558W        W39405  16.640   3.649  13.283 -0.0540  0.0625  0.1014
22559W        W39406  10.327  13.921   3.990  0.1550  0.1364 -0.1919
22560W        W39407  12.636  10.947  11.449  0.1091 -0.0039  0.0144
22561W        W39408   4.641   7.222   0.573 -0.0546 -0.0378  0.0181
22562W        W39409  16.684   9.950   1.327 -0.1120  0.0370  0.0048
22563W        W39410  16.490  18.360   3.187 -0.0712  0.0390 -0.2276
22564W        W39411  13.653  16.757   5.489 -0.0984  0.1134  0.0833
22565W        W39412   4.733  10.617   3.767  0.1474  0.1584  0.0299
22566W        W39413   9.002   8.231   1.170  0.0219 -0.4949  0.2438
22567W        W39414   2.276   9.168  14.373  0.0114  0.1533 -0.2551
22568W        W39415   4.677   8.026   2.267  0.0493 -0.0256  0.3047
22569W        W39416   2.103  11.560   3.108  0.2582  0.3466  0.3091
22570W        W39417  16.570  15.435  15.747  0.0476 -0.2010 -0.1189
22571W        W39418   2.343   6.133   0.493  0.0678 -0.0537 -0.0078
22572W        W39419   2.113   5.933   3.439 -0.0405 -0.0690 -0.2317
22573W        W39420  14.404  15.552   2.961  0.0245 -0.0858  0.1380
22574W        W39421   7.344  11.951  13.992 -0.0119  0.0112 -0.0359
22575W        W39422  18.175   7.725  14.118 -0.0593 -0.3149 -0.2978
22576W        W39423   5.743   9.073  13.084  0.1806  0.0165 -0.0508
22577W        W39424  13.694  15.740   4.445  0.0958 -0.1112 -0.2187
22578W        W39425  12.358   0.934  13.050 -0.2654  0.0539 -0.0598
22579W        W39426  10.665   9.708   4.455  0.2843 -0.1283 -0.1065
22580W        W39427  13.882   0.002  12.273  0.1919  0.0767  0.0280
22581W        W39428  10.071   5.869  14.486  0.1442  0.0751  0.2089
22582W        W39429  14.373  16.354   0.403 -0.0057  0.0403  0.1307
22583W        W39430   0.019   9.530   3.098  0.0047 -0.2605 -0.0220
22584W        W39431  11.346  14.897   2.246 -0.3703 -0.1066 -0.0238
22585W        W39432  15.978   3.368   3.158 -0.1754  0.0140 -0.3156
22586W        W39433   2.918  13.266   4.781  0.0772 -0.1797  0.0875
22587W        W39434   3.159   7.581  13.745  0.0700 -0.3311 -0.0246
22588W        W39435  17.968   6.207  11.998 -0.0923 -0.2364  0.0475
22589W        W39436  18.028   8.807   3.539  0.1993 -0.3071  0.0719
22590W        W39437   9.826   7.037  11.930 -0.0072  0.1236  0.0579
22591W        W39438  10.358   9.055   3.439 -0.1562  0.0032 -0.1738
22592W        W39439   4.067   6.221   3.653  0.0714 -0.0796  0.0215
22593W        W39440   8.085   1.298   3.319 -0.0614  0.1480  0.0163
22594W        W39441  15.459   3.289   4.863 -0.2324 -0.2558  0.0400
22595W        W39442   8.892   4.272   0.912  0.0130 -0.0534 -0.1708
22596W        W39443  11.701   7.325  13.751  0.0928 -0.0178  0.0130
22597W        W39444   2.663  11.480  12.543 -0.0396  0.1489 -0.3753
22598W        W39445   0.606   8.860   1.910 -0.0141 -0.0554  0.2079
22599W        W39446   9.361   7.702   0.763 -0.1261  0.1765 -0.1434
22600W        W39447   0.549   2.953   1.817  0.1018 -0.1461  0.5854
22601W        W39448  16.861   2.994  12.179 -0.4385 -0.0003 -0.2414
22602W        W39449   7.635   4.983   2.482 -0.0480 -0.0624  0.0886
22603W        W39450  15.007   3.219   2.187 -0.0940 -0.1156 -0.0834
22604W        W39451  17.466   4.729   5.125  0.0909  0.0703 -0.0260
22605W        W39452   6.014  15.503   3.301  0.1357  0.1962  0.2621
22606W        W39453   7.488   8.214  14.513 -0.0773  0.2064 -0.0766
22607W        W39454   6.207   3.533  16.219  0.1355  0.6906  0.2839
22608W        W39455   1.605   6.436  11.582  0.4607 -0.2557  0.1579
22609W        W39456  16.223  15.818   1.215 -0.1033 -0.2000  0.0496
22610W        W39457  16.609   1.336  12.826  0.0262  0.0005  0.1448
22611W        W39458  17.983   8.203  12.443  0.3377  0.1220  0.2552
22612W        W39459   4.878   2.097   1.507  0.0835 -0.0816 -0.2213
22613W        W39460   4.438  16.176  15.906  0.4322 -0.1090 -0.1176
22614W        W39461  10.840   8.999  15.374  0.0668 -0.0223 -0.1626
22615W        W39462   7.884  13.473  14.773 -0.1260  0.0591 -0.0733
22616W        W39463   7.982  10.190  13.774  0.0479 -0.2889  0.1875
22617W        W39464   7.944   3.612  15.650 -0.1716  0.0478  0.0757
22618W        W39465  11.486  16.068   2.810  0.0932 -0.1912 -0.0996
22619W        W39466  10.841  12.534  13.830 -0.0858  0.4703 -0.2256
22620W        W39467   2.810  10.517   4.052 -0.0532 -0.0291 -0.2143
22621W        W39468   9.121   1.063  14.789 -0.1264 -0.0331  0.1221
22622W        W39469  17.583  15.937   5.594 -0.2177  0.2737 -0.3528
22623W        W39470   3.660   8.426  15.068 -0.1970  0.1022 -0.2835
22624W        W39471  17.878  10.683  13.194  0.0189 -0.1638 -0.1377
22625W        W39472   8.539   5.476   4.059 -0.0541 -0.1176  0.0568
22626W        W39473  15.591   6.668  15.890 -0.1672  0.0272  0.2133
22627W        W39474   3.235   1.660   2.065 -0.0516 -0.1177  0.1915
22628W        W39475   0.314   7.008  13.576 -0.2730 -0.0023  0.1076
22629W        W39476   5.819  16.520   1.027 -0.1771 -0.1659 -0.1732
22630W        W39477   2.590  11.830   0.975  0.3227 -0.1384 -0.0968
22631W        W39478  16.192   1.478   0.860 -0.3063 -0.0579  0.1151
22632W        W39479   9.005   2.783  14.294  0.1054  0.0580  0.2222
22633W        W39480  17.688   6.247   0.761 -0.0654 -0.1015 -0.0242
22634W        W39481   4.005  11.939  12.088 -0.0451  0.2481 -0.0875
22635W        W39482  18.346   7.539  14.523 -0.0185  0.0210  0.0894
22636W        W39483   5.667   5.401   5.373  0.1121  0.1507 -0.3869
22637W        W39484   5.318   8.441   4.100  0.0301  0.0146 -0.2118
22638W        W39485   0.148   5.995   0.217  0.0142  0.4123  0.0785
22639W        W39486  15.479  18.198  14.812  0.0720  0.0528 -0.0845
22640W        W39487   9.628  11.822  14.617  0.1204  0.1964 -0.0221
22641W        W39488  10.387   9.277   4.139 -0.0244 -0.0655  0.1040
22642W        W39489   4.392  11.923  12.804  0.2580  0.1548 -0.1128
22643W        W39490  14.518   0.043  14.701  0.0301 -0.2810 -0.0755
22644W        W39491  14.550  16.222   0.944  0.2704 -0.0454  0.0401
22645W        W39492   3.600  13.698  12.175 -0.2710 -0.1380 -0.1274
22646W        W39493  15.160   9.629  14.140 -0.2811 -0.1099 -0.1212
22647W        W39494  12.414  13.490  13.790 -0.1958 -0.2325  0.1842
22648W        W39495  11.480  10.110  13.335  0.2326 -0.3181  0.2846
22649W        W39496   5.082  14.512   6.249  0.3120  0.1686 -0.0253
22650W        W39497   3.736  15.110  14.330 -0.1374 -0.1424 -0.0389
22651W        W39498  11.827   6.731   4.128  0.2826 -0.2311  0.3518
22652W        W39499   1.963   8.462   3.269  0.1070  0.0871 -0.1690
22653W        W39500   1.316   4.177  14.030  0.2456 -0.0720 -0.2353
22654W        W39501   7.065  14.252   6.260 -0.3860 -0.1651 -0.1368
22655W        W39502  10.670  13.201   3.839  0.0916  0.1935  0.1978
22656W        W39503   6.975   9.896  13.562  0.2249  0.0899 -0.3265
22657W        W39504  10.472   5.709  13.197  0.2134  0.3535  0.2221
22658W        W39505   5.307   2.756   3.241 -0.0238 -0.1710 -0.2339
22659W        W39506  13.067   5.062   0.217  0.0490 -0.0246 -0.1709
22660W        W39507   7.812  13.328   0.638 -0.0996 -0.0801  0.0865
22661W        W39508   1.981   8.321   3.756  0.0307 -0.2146  0.0566
22662W        W39509   5.195   5.949   0.889 -0.1776  0.2048 -0.2845
22663W        W39510  13.733  18.409  11.579  0.0780 -0.0327 -0.1282
22664W        W39511  12.328  17.505  11.964 -0.1332 -0.1954 -0.1638
22665W        W39512   6.557   6.018   1.190  0.1557  0.0768  0.0311
22666W        W39513  16.131  14.263   3.010 -0.0562 -0.0833 -0.1277
22667W        W39514   8.067  14.928   5.361 -0.1974  0.1462 -0.1481
22668W        W39515   2.680   8.828  15.267  0.0355 -0.1685  0.0109
22669W        W39516   3.470  17.069  14.399 -0.1094  0.0136  0.1506
22670W        W39517   4.057  17.692  12.594  0.0876  0.0299 -0.2876
22671W        W39518   9.042  15.484   4.492 -0.2076 -0.0083 -0.0829
22672W        W39519  10.073  12.788  15.413 -0.1244 -0.1087  0.0416
22673W        W39520  12.637   5.511   5.197  0.0027  0.0045  0.1825
22674W        W39521   2.682  16.334   4.172 -0.1048  0.4106  0.0480
22675W        W39522  15.312   3.547  12.121  0.0184 -0.0500  0.0885
22676W        W39523  15.651   0.317  14.114  0.0290  0.2970  0.2419
22677W        W39524  12.221  11.117  12.013 -0.0122 -0.1619  0.0944
22678W        W39525   7.186  15.798  13.657 -0.0080  0.1923 -0.0378
22679W        W39526  16.065   6.742   3.623  0.0745 -0.0546 -0.2402
22680W        W39527  17.521   4.398  12.826  0.0105 -0.4294 -0.0455
22681W        W39528  10.141   0.014  14.527  0.2720  0.3582 -0.1029
22682W        W39529   8.015  17.699  16.120 -0.1248 -0.3299  0.1541
22683W        W39530   1.005  17.996   4.228  0.3365 -0.0646  0.2042
22684W        W39531  15.463   6.352   0.292  0.1238  0.2423 -0.2264
22685W        W39532  11.075  17.729  12.689 -0.1183  0.0205  0.2096
22686W        W39533  12.760   4.025  12.341  0.2767  0.2173  0.0788
22687W        W39534  10.273  17.532  12.311 -0.1979  0.0109  0.1101
22688W        W39535   5.100  12.922  15.435 -0.0586  0.2656  0.4876
22689W        W39536  15.136   2.194  14.334  0.5676  0.0439 -0.0399
22690W        W39537   7.729  16.664  12.638  0.2120 -0.0930 -0.0129
22691W        W39538   1.180  11.854  12.182 -0.5402  0.0216 -0.0692
22692W        W39539  15.004   8.804  13.798  0.2162 -0.3605 -0.2744
22693W        W39540   4.607  14.269   1.580  0.5024 -0.2765  0.3527
22694W        W39541   9.030  17.249   4.277 -0.0642  0.0558 -0.0577
22695W        W39542  15.943   9.131  11.024 -0.1453 -0.0628 -0.1217
22696W        W39543  16.342  10.059  15.431 -0.1598  0.2610  0.0520
22697W        W39544  17.341   0.356   4.893  0.0897  0.0610 -0.0971
22698W        W39545  16.026   4.978   3.839 -0.1701 -0.0528 -0.0677
22699W        W39546   8.531   1.740  12.092  0.3221 -0.2419 -0.2534
22700W        W39547  13.764   5.661   4.250  0.4627 -0.0823 -0.0408
22701W        W39548  12.875   7.593  12.340  0.3186  0.2255  0.1912
22702W        W39549  12.037   3.721   2.668 -0.2273  0.1686  0.1669
22703W        W39550  11.079   1.266  11.520 -0.0589  0.3243  0.2677
22704W        W39551   1.528   8.372   4.733  0.0539  0.0107 -0.0197
22705W        W39552   8.205   0.594  15.609 -0.0028 -0.0124  0.1939
22706W        W39553   2.969  14.176  16.285  0.0885 -0.0669  0.1093
22707W        W39554  12.095   9.231   3.954  0.0804  0.1723  0.0445
22708W        W39555  10.932   2.232  15.058  0.0540  0.1316  0.0573
22709W        W39556   4.204   3.964  11.346  0.1396  0.2152 -0.0462
22710W        W39557   8.440   0.377   3.364 -0.1235  0.0238 -0.3998
22711W        W39558   5.224   4.554   2.979  0.2063 -0.3244 -0.3298
22712W        W39559   4.910  11.086   3.665  0.3844 -0.0286  0.3395
22713W        W39560   7.730   9.988   3.691 -0.0445  0.3621  0.3367
22714W        W39561  12.141  16.866   1.592  0.0512 -0.2645 -0.1344
22715W        W39562   2.319   1.004  11.544 -0.0827 -0.0775  0.2587
22716W        W39563  17.389  10.285   2.691 -0.2298  0.1150  0.0041
22717W        W39564  14.391  17.636  15.446  0.1068 -0.1226 -0.1149
22718W        W39565  16.100   6.958   5.025  0.1386 -0.1984 -0.2121
22719W        W39566  14.471  10.789   5.923 -0.2298  0.3076  0.0265
22720W        W39567  10.948  14.800   5.471 -0.0300  0.1727 -0.2846
22721W        W39568  13.307   3.888  11.735  0.0748 -0.0748  0.1431
22722W        W39569  14.195   6.404  11.867 -0.0738 -0.0613  0.2029
22723W        W39570  18.281  15.917   0.694 -0.2000  0.1444 -0.1472
22724W        W39571  14.102   4.101  13.320 -0.0134  0.2801 -0.3589
22725W        W39572  13.160  12.063   0.314 -0.0103  0.1308 -0.2138
22726W        W39573   5.964   3.791   3.797  0.3000 -0.1503 -0.0929
22727W        W39574  13.961   1.426  15.529  0.2125  0.0050 -0.2358
22728W        W39575   9.124   5.307   0.336  0.3145  0.0715  0.0414
22729W        W39576   2.147   6.282   5.793  0.1155 -0.3638  0.2670
22730W        W39577   6.506   1.825  11.656 -0.4756 -0.0884  0.1387
22731W        W39578   2.651  17.701  15.567 -0.2626  0.1049  0.3488
22732W        W39579  17.716  16.474   3.376 -0.1545 -0.1429  0.3629
22733W        W39580   4.284   1.027   0.259  0.0431 -0.2110 -0.3017
22734W        W39581   4.358  12.909   5.568  0.2043  0.1263  0.0509
22735W        W39582  17.382   5.154   1.210  0.0847  0.0625  0.2791
22736W        W39583   4.933  17.016   3.183  0.2663  0.0618  0.0810
22737W        W39584  13.368  16.776   4.334  0.1009 -0.0555  0.3413
22738W        W39585   7.452  12.781   4.800 -0.3480 -0.1071 -0.2143
22739W        W39586   2.863   0.770   2.976  0.2024  0.1034 -0.0669
22740W        W39587   2.352   8.646  12.786  0.0262 -0.1871 -0.3234
22741W        W39588   8.623   3.774   5.488  0.2562 -0.0620  0.5133
22742W        W39589  16.839   7.279   3.459 -0.2099  0.1413 -0.1238
22743W        W39590   0.937   5.360   1.208 -0.0134  0.0205 -0.2117
22744W        W39591   0.446  11.886  14.320 -0.1608 -0.2407  0.2366
22745W        W39592  15.539   0.385   5.164 -0.0983 -0.0917  0.1961
22746W        W39593   4.409  17.601  13.746 -0.0073 -0.2953  0.5865
22747W        W39594   7.239   4.926   6.099  0.1391 -0.2738 -0.3312
22748W        W39595  16.074   9.224   1.672  0.1842  0.0958 -0.0912
22749W        W39596  17.311  10.999   2.715  0.3884 -0.0938  0.0611
22750W        W39597   3.639   2.606   5.875 -0.1110 -0.1130 -0.0334
22751W        W39598  15.725   9.344   2.060  0.1056  0.1708  0.0905
22752W        W39599   6.422  12.946   4.231  0.0004 -0.2401  0.0292
22753W        W39600  13.704   3.637   3.768  0.1632  0.0716 -0.1975
22754W        W39601  11.733   1.606  14.704 -0.0849  0.2281  0.0965
22755W        W39602   2.587   7.192   4.483 -0.0128 -0.1156  0.0320
22756W        W39603  17.442  10.702  15.980  0.5415  0.2413  0.1622
22757W        W39604  13.534  11.865   1.685 -0.0559  0.3195 -0.2361
22758W        W39605   0.869  13.987   1.284 -0.1055 -0.2736  0.1856
22759W        W39606   8.638   9.657  12.244 -0.3208  0.3421  0.2492
22760W        W39607  10.282   6.118   3.052  0.1025 -0.1198  0.1646
22761W        W39608  14.294  10.050   5.036 -0.1783  0.0163  0.0648
22762W        W39609  13.903   1.768  12.883 -0.0458 -0.2909 -0.1058
22763W        W39610   1.393   1.574   5.382 -0.3610 -0.1840 -0.1686
22764W        W39611  13.819  16.128  16.202  0.1564 -0.0746 -0.1253
22765W        W39612   8.940  14.838   2.884 -0.1345  0.5166  0.0368
22766W        W39613  12.389  12.394   4.112 -0.1357  0.0552 -0.0997
22767W        W39614  17.430   0.841  15.656  0.0469 -0.3227  0.2899
22768W        W39615  10.974   7.922  14.071 -0.0457  0.0953 -0.0313
22769W        W39616  12.263   1.940   5.352 -0.2566  0.0636 -0.0359
22770W        W39617   9.064  17.402   1.243  0.1025 -0.2601  0.0591
22771W        W39618  12.105   3.650  15.980 -0.0730  0.1489  0.1637
22772W        W39619   4.068  13.840  12.413  0.0756  0.1308  0.0698
22773W        W39620  14.290   8.850  11.493  0.1899  0.2919 -0.2525
22774W        W39621  11.110  15.944  13.917  0.0952  0.0107  0.1155
22775W        W39622   1.658  16.959  16.160  0.1610  0.0143 -0.1619
22776W        W39623  10.052  11.761  16.103  0.1283 -0.1451 -0.0053
22777W        W39624  14.482   1.420  14.331 -0.0188  0.0924 -0.0317
22778W        W39625  12.789   3.293  15.335  0.1181  0.0116  0.0753
22779W        W39626   3.177  15.784  13.852 -0.3305 -0.0889 -0.0966
22780W        W39627   4.935   4.221   1.000 -0.1179  0.4186 -0.0347
22781W        W39628  16.491   9.374  14.273 -0.1271  0.2489  0.4522
22782W        W39629   0.617  15.205   6.102  0.1715 -0.0570 -0.3102
22783W        W39630   0.996   2.940   2.982 -0.0422 -0.1476 -0.0109
22784W        W39631  10.493  10.393  12.787  0.1232  0.0166 -0.2461
22785W        W39632   7.429   1.255   4.425  0.3526 -0.1694 -0.0294
22786W        W39633   5.979   4.426   2.987  0.4228 -0.3649  0.2504
22787W        W39634  11.655   7.636   3.585  0.1241  0.0362  0.0392
22788W        W39635   2.415  11.121  15.533 -0.1129  0.1367 -0.6807
22789W        W39636  12.032   3.986  12.951 -0.2079 -0.2772 -0.0565
22790W        W39637   2.846   5.924  14.174  0.1111 -0.0574 -0.1821
22791W        W39638   6.905   0.446   4.720 -0.0709  0.1001 -0.1690
22792W        W39639   0.349  14.804   5.509  0.0850  0.2274 -0.0603
22793W        W39640  10.549   5.013  13.633  0.1729 -0.2024  0.2256
22794W        W39641   0.064   7.095  12.663 -0.2669 -0.0925 -0.6078
22795W        W39642   2.572   0.487   1.604 -0.0497  0.0863 -0.0782
22796W        W39643  17.933   0.201  16.338 -0.2596 -0.2568 -0.1098
22797W        W39644  14.488  13.950   4.826 -0.6055  0.1586  0.0785
22798W        W39645   3.641   1.526   1.647  0.2056 -0.0590 -0.0268
22799W        W39646   5.066   7.782   1.741 -0.0682  0.0659 -0.0232
22800W        W39647  16.274   3.444   2.719 -0.0382 -0.1423 -0.0577
22801W        W39648   5.395  12.731   3.368  0.0752 -0.0843 -0.0202
22802W        W39649   9.461   8.436   1.069 -0.1910  0.0763  0.0719
22803W        W39650  14.076  17.791   0.018  0.0280  0.1174  0.3690
22804W        W39651   3.910  17.626   4.332  0.1936 -0.3541  0.2372
22805W        W39652   2.738   6.428  14.157  0.0882  0.1056  0.0829
22806W        W39653  18.419   2.046   3.507  0.1220  0.3101 -0.2982
22807W        W39654   4.821  15.734   3.182 -0.1660  0.0551  0.3886
22808W        W39655   6.563   7.421   0.374 -0.5167 -0.0222 -0.3666
22809W        W39656   4.785  11.368  11.694  0.0562 -0.2826  0.2081
22810W        W39657   0.807   6.525  12.137  0.1474 -0.2024 -0.0828
22811W        W39658  15.963   9.272   3.883 -0.1397  0.4401 -0.2089
22812W        W39659  16.225   7.420  10.483  0.3677 -0.2695 -0.2311
22813W        W39660   9.466  10.966  14.089 -0.3149  0.0229 -0.0722
22814W        W39661   0.974   2.492   1.031  0.0985  0.2183  0.0839
22815W        W39662  13.454  11.713   0.619 -0.1016  0.1561 -0.0901
22816W        W39663   2.893   5.708  15.574 -0.1685  0.1350  0.0611
22817W        W39664   6.301   3.176   2.678  0.3039  0.1655  0.1184
22818W        W39665  17.911   1.604   4.260  0.1036  0.2001 -0.0331
22819W        W39666   1.986   9.579  16.072  0.3178  0.0457  0.2145
22820W        W39667   9.318  18.040   3.038 -0.2143 -0.2067 -0.1707
22821W        W39668   0.430   7.186  11.158  0.0172 -0.3528 -0.0215
22822W        W39669   5.594  16.005   3.152  0.1636 -0.1116  0.1172
22823W        W39670  15.953  10.577  13.282 -0.0410  0.0411 -0.1153
22824W        W39671   6.280   1.644  15.264  0.2983  0.1874 -0.0200
22825W        W39672  12.376  11.984   5.456 -0.1655 -0.0194 -0.3965
22826W        W39673  13.883  13.860   2.916 -0.0045 -0.1198  0.0327
22827W        W39674   0.721  18.026   4.674  0.1535  0.0707 -0.2050
22828W        W39675   3.527   9.042   1.451  0.1680  0.0735 -0.0932
22829W        W39676   3.897  14.939   4.507 -0.3043 -0.0702 -0.1708
22830W        W39677  12.927   1.471   0.920  0.0054  0.1846  0.1983
22831W        W39678   9.195  11.298   5.386  0.1132 -0.1126  0.0313
22832W        W39679   7.047   7.462   1.288 -0.1649 -0.1245  0.3457
22833W        W39680  11.523  16.373   4.571 -0.1369 -0.1480  0.3345
22834W        W39681   2.916   3.970  15.649 -0.0894  0.0242 -0.0764
22835W        W39682  16.945   8.046  16.227  0.1176 -0.1247  0.0858
22836W        W39683   9.643  15.491   0.276  0.1440 -0.0795  0.0753
22837W        W39684   7.951   8.684   5.368 -0.0801 -0.1511  0.0661
22838W        W39685   9.844   3.124   0.086  0.0161  0.0984  0.0684
22839W        W39686   2.164   9.591   4.550 -0.1507  0.1043  0.4143
22840W        W39687  14.083   1.624  15.991  0.1507 -0.0618 -0.2214
22841W        W39688  12.189   1.789  13.484  0.0025  0.1874 -0.1577
22842W        W39689  13.022   2.325   4.196 -0.2068 -0.0814 -0.0917
22843W        W39690   2.632   6.314   1.412  0.0332  0.0311 -0.1406
22844W        W39691  17.324  15.421   5.551 -0.2708 -0.1220 -0.2702
22845W        W39692   0.290  16.758   0.562  0.1120  0.0299  0.0903
22846W        W39693   6.282  11.825   0.240 -0.3644  0.1674 -0.1378
22847W        W39694   6.801   7.124  15.379 -0.1762  0.0289 -0.1895
22848W        W39695   8.865   9.630   2.316 -0.1531  0.1541  0.0571
22849W        W39696  10.469   0.800   3.568  0.0519  0.1228  0.2717
22850W        W39697   1.255  12.701   4.868 -0.1956  0.1248 -0.2457
22851W        W39698  10.069  11.517   2.096 -0.0514  0.1959  0.0143
22852W        W39699   9.361   3.770  12.920 -0.1106 -0.1622 -0.1326
22853W        W39700   8.045   4.379   2.145 -0.0077 -0.0093  0.0751
22854W        W39701  16.513   3.875  12.648  0.2500  0.2430 -0.2594
22855W        W39702   4.946   3.331  15.170 -0.3613 -0.0022  0.1407
22856W        W39703   2.114  18.158   5.431  0.0747 -0.2693 -0.1862
22857W        W39704  12.569   9.269   1.083 -0.1473  0.0495 -0.0067
22858W        W39705  14.108   1.609   2.880 -0.0703 -0.1464 -0.0841
22859W        W39706   3.234   6.785  14.232  0.0680  0.0266  0.0520
22860W        W39707  15.079  13.323  13.862 -0.0588 -0.3413 -0.3467
22861W        W39708  12.228  11.913   1.766  0.1865 -0.0182  0.2178
22862W        W39709   1.966  10.675  14.299  0.0181 -0.0810  0.0908
22863W        W39710   7.156   2.377   3.537 -0.0673 -0.0423  0.2160
22864W        W39711  16.098   9.243  13.519  0.0579  0.0900 -0.1423
22865W        W39712  11.612  10.609   4.109 -0.0484  0.7645 -0.0149
22866W        W39713   0.730   6.227  10.728  0.0572  0.0364  0.3467
22867W        W39714  14.410   0.565  11.553  0.0217  0.1294  0.1143
22868W        W39715   6.544   8.918  13.594 -0.0128  0.2480 -0.1905
22869W        W39716  15.494   0.811   2.422  0.2499 -0.0705 -0.0393
22870W        W39717  12.165   3.085  11.139 -0.1640 -0.2715  0.1965
22871W        W39718  13.625   4.240   9.798 -0.1953 -0.1931 -0.4219
22872W        W39719   0.039  14.036  15.118  0.0647 -0.2121 -0.1168
22873W        W39720  15.423  11.847  13.270 -0.1020 -0.0977 -0.1518
22874W        W39721  15.309  13.544   3.667  0.2002  0.2071 -0.1272
22875W        W39722  17.985   0.835  15.073  0.1056 -0.2867 -0.1302
22876W        W39723   9.555   1.122   3.712 -0.0355  0.1076  0.2516
22877W        W39724  12.270  15.311   3.587 -0.1336 -0.1969  0.0988
22878W        W39725  17.390   8.711   3.351  0.4874 -0.3143 -0.0563
22879W        W39726  16.511  11.209  15.617 -0.1833  0.2268 -0.1179
22880W        W39727   2.221   0.388  14.379  0.0672 -0.0637  0.0242
22881W        W39728  17.350   7.281   3.568  0.2245  0.0965 -0.0308
22882W        W39729   5.790   1.805   0.110 -0.0820 -0.1798  0.0920
22883W        W39730   7.134  17.705  14.132  0.1681 -0.1862 -0.0240
22884W        W39731  11.685  16.977  14.431  0.1811  0.0531  0.1496
22885W        W39732  16.551  16.213  13.534 -0.0628 -0.2477  0.1095
22886W        W39733  15.525  10.510  13.099  0.1255  0.4212 -0.0567
22887W        W39734   0.409   9.923  13.959 -0.1984 -0.4116  0.3007
22888W        W39735  18.261   2.918  11.305 -0.0805  0.0522 -0.2542
22889W        W39736  10.036   5.102  12.282  0.1209  0.2724  0.1271
22890W        W39737  12.401   6.042  15.452  0.0570 -0.1239  0.4064
22891W        W39738   6.099   0.096   4.370 -0.0313 -0.2039  0.2755
22892W        W39739   6.007  10.021  15.144 -0.0108  0.2019  0.0725
22893W        W39740   3.520  13.666  15.322 -0.2600  0.0883 -0.1544
22894W        W39741  14.116   8.779   0.580  0.3071  0.1124  0.0410
22895W        W39742  10.736  14.793   3.523  0.0828  0.0466  0.0111
22896W        W39743  10.625  14.033  13.530 -0.1118  0.3641 -0.0443
22897W        W39744   6.280   8.193  11.656  0.3145  0.2566 -0.1839
22898W        W39745  13.829   0.445  12.505 -0.0898 -0.0834  0.1990
22899W        W39746   9.794  11.352  12.290 -0.0841  0.0622 -0.1694
22900W        W39747   3.863  10.392   4.211  0.0699  0.1165 -0.2510
22901W        W39748   9.739   2.272   0.114 -0.1539 -0.3764 -0.0493
22902W        W39749   8.236   3.868  14.355  0.0144 -0.0690  0.4318
22903W        W39750  16.611   5.196  14.735  0.0853 -0.2101  0.1848
22904W        W39751   1.418   8.368  11.099  0.1447  0.0099 -0.5342
22905W        W39752  10.210   0.399   1.219  0.1659 -0.2648  0.1969
22906W        W39753  13.066  10.493  15.148 -0.2092 -0.1931  0.3495
22907W        W39754   2.408   0.141   2.817  0.1811  0.2074 -0.0361
22908W        W39755   5.284  16.189  11.927  0.3126 -0.0196  0.1984
22909W        W39756   1.171  17.766  12.764  0.0268  0.0684  0.0910
22910W        W39757  15.256   4.941  13.300  0.1122 -0.0632  0.2364
22911W        W39758  13.602   9.272   1.915  0.1759  0.2189  0.0873
22912W        W39759  17.771  14.139   4.581 -0.1199 -0.1951 -0.2364
22913W        W39760   2.577   4.546  13.071 -0.2823 -0.1869  0.0711
22914W        W39761  12.965  13.071   4.429 -0.3256  0.3487  0.0510
22915W        W39762   5.565   5.668   2.296 -0.1082 -0.0796 -0.2619
22916W        W39763   8.306   1.833  13.248 -0.1274 -0.2259 -0.1330
22917W        W39764   4.629   4.892   3.425  0.1383 -0.2922 -0.0730
22918W        W39765   2.602  10.042   4.096 -0.0885 -0.1340 -0.1568
22919W        W39766   5.727  10.383   4.962 -0.1144  0.2238 -0.1075
22920W        W39767   8.750  11.519  15.564 -0.3248  0.2529 -0.2018
22921W        W39768   2.648  12.992   2.197 -0.1399  0.1584 -0.0665
22922W        W39769  13.177   8.299   0.364 -0.1048 -0.2218  0.1981
22923W        W39770   7.688  17.072   3.585 -0.2501  0.0024  0.2386
22924W        W39771  14.785   7.947  15.987  0.1450  0.1498  0.1237
22925W        W39772   7.656   6.999   4.899 -0.0812  0.0120  0.0802
22926W        W39773   5.745  15.383   4.691  0.1491 -0.1173 -0.2290
22927W        W39774  14.776   5.071  11.198 -0.1009  0.1420  0.0934
22928W        W39775  17.974  14.506  13.585  0.2818  0.2194 -0.2111
22929W        W39776   0.219   2.971   4.156  0.1162  0.1121  0.0293
22930W        W39777  13.763   8.333   5.465 -0.1398 -0.1695  0.1156
22931W        W39778  16.385  11.837  12.803 -0.2990  0.2376 -0.0999
22932W        W39779   7.405   3.750  16.363 -0.0552 -0.0826 -0.0063
22933W        W39780   6.652  17.191   2.668  0.0702  0.0639  0.0227
22934W        W39781  15.761  12.835  15.386 -0.1686 -0.4621 -0.0107
22935W        W39782   5.797   1.045  14.008  0.2532 -0.1703 -0.0248
22936W        W39783   8.468   4.169   1.941  0.1416 -0.0758  0.1443
22937W        W39784  11.917  15.727   3.574 -0.0283  0.2067 -0.2931
22938W        W39785   2.245   2.152  11.923 -0.3228 -0.0657  0.1993
22939W        W39786  14.852   4.235   3.824 -0.0396 -0.2252 -0.1537
22940W        W39787  14.974   9.792  11.909  0.3753 -0.0081 -0.3334
22941W        W39788   1.574  13.630  12.544  0.1610  0.0652 -0.1518
22942W        W39789   5.079  13.707  13.736 -0.0275 -0.2367  0.1273
22943W        W39790   5.103  14.671   5.750 -0.1603  0.1056 -0.1210
22944W        W39791   3.458   3.317  15.334 -0.0326  0.1974  0.0071
22945W        W39792   3.089  16.919  12.398  0.0403  0.0447  0.3094
22946W        W39793  16.161  18.028   3.684 -0.0365  0.0509 -0.1448
22947W        W39794  12.905  17.572  16.129  0.2874 -0.5527 -0.3115
22948W        W39795  17.087  12.605  14.711  0.1861  0.2198  0.0980
22949W        W39796   5.930   2.424  11.613 -0.2238 -0.1741 -0.0832
22950W        W39797   5.677   3.095  14.724 -0.0719  0.0793  0.2499
22951W        W39798   2.094   5.178  15.432 -0.2813 -0.1569 -0.0886
22952W        W39799   9.548  10.639   5.158  0.0940 -0.3113  0.0847
22953W        W39800  15.626   3.918   2.087  0.0179 -0.2484  0.2479
22954W        W39801   6.041   1.410  14.819  0.0766 -0.1197 -0.4927
22955W        W39802  12.491  17.127  13.595 -0.1264 -0.2688 -0.1503
22956W        W39803  10.556  12.303   1.428  0.1316 -0.3218 -0.0425
22957W        W39804  11.710  16.308  12.876 -0.0358  0.1198  0.4102
22958W        W39805  17.987   1.495  11.828  0.2126  0.1285  0.2138
22959W        W39806   1.133   2.492   0.410  0.1509  0.0655  0.2207
22960W        W39807  14.226  17.665   3.744  0.1454 -0.0918  0.0111
22961W        W39808  16.656  15.304  13.596  0.0929  0.0060 -0.1597
22962W        W39809   9.220  17.018   0.183 -0.1650 -0.0599 -0.0835
22963W        W39810   1.624  16.892  15.643 -0.1166  0.0234 -0.3237
22964W        W39811  11.450   1.187  13.236  0.0185 -0.3003 -0.0765
22965W        W39812  16.147   2.513   4.898 -0.0255  0.3431 -0.0201
22966W        W39813  14.927  13.203  14.969 -0.0291  0.0003 -0.1379
22967W        W39814   3.778   0.962  12.533 -0.0904  0.0374  0.1519
22968W        W39815  13.268  15.265  15.037  0.0614  0.1918  0.1360
22969W        W39816   6.567   3.684   5.195 -0.0486 -0.0120  0.0023
22970W        W39817   4.771   8.032   2.794 -0.2666  0.2343 -0.2101
22971W        W39818   0.064  11.976  13.243  0.3841 -0.0679 -0.3269
22972W        W39819  17.043   7.444  10.857 -0.0180 -0.2095 -0.1159
22973W        W39820   2.751   3.116  15.705  0.0683  0.1267 -0.2943
22974W        W39821   8.134  16.662   4.498  0.1200 -0.0748 -0.0576
22975W        W39822  15.209  11.776  16.112 -0.1062  0.0367  0.0067
22976W        W39823  13.964  11.879   0.636 -0.0396 -0.4172  0.1657
22977W        W39824  16.436   2.292  11.878  0.0905 -0.0040  0.0002
22978W        W39825  11.986  12.713  11.813  0.0246 -0.1975  0.0870
22979W        W39826   0.608   8.102   4.406  0.1482  0.0757 -0.2307
22980W        W39827   0.009  10.080  12.127  0.0646 -0.0499 -0.0365
22981W        W39828  14.756   1.751  11.328 -0.0937  0.2708  0.0211
22982W        W39829  16.301  17.244   4.606 -0.1811  0.2561  0.1919
22983W        W39830  15.457  14.590  15.798  0.1261 -0.0837 -0.0155
22984W        W39831   8.163   9.730   0.932  0.0642  0.0220 -0.0700
22985W        W39832  11.465   3.711  14.313  0.1363 -0.3165  0.1022
22986W        W39833   4.939  10.242   4.852  0.1587 -0.1759 -0.0524
22987W        W39834   2.323   7.142   3.081  0.2381  0.0688  0.1505
22988W        W39835   4.882  15.820   6.264 -0.0289 -0.1707  0.0107
22989W        W39836  10.363  11.561   4.418  0.1879 -0.0771 -0.3212
22990W        W39837  10.921   1.118  13.139 -0.0041  0.2651  0.1696
22991W        W39838   7.926  13.244   5.809  0.0392  0.1597 -0.1059
22992W        W39839  15.976   7.188   0.467 -0.1042  0.2017 -0.0128
22993W        W39840  12.528   3.688   5.398  0.0578  0.0571 -0.0769
22994W        W39841   7.368   1.439  12.749  0.1798  0.1149  0.1664
22995W        W39842   6.071   2.234   0.806  0.1628  0.0114  0.1006
22996W        W39843  18.006  12.290   5.541  0.2638 -0.0684 -0.3032
22997W        W39844   6.608  14.208   2.431 -0.0686 -0.2496 -0.0444
22998W        W39845   7.251   6.056   2.231 -0.1193 -0.0174 -0.4838
22999W        W39846  11.820  17.808  15.912 -0.0278 -0.1154 -0.2523
23000W        W39847  11.716  14.640  11.476  0.3202 -0.0291 -0.0086
23001W        W39848  13.392   7.730  13.880  0.0431  0.0060 -0.1622
23002W        W39849  15.432  11.249  14.806 -0.1089  0.0337 -0.3131
23003W        W39850   8.941   0.973  11.640 -0.0410  0.4050 -0.1924
23004W        W39851   8.874   9.684   4.273 -0.1049 -0.3001 -0.1085
23005W        W39852  16.597  17.158  10.952  0.0010  0.4944 -0.1307
23006W        W39853   5.956  11.403   3.852 -0.0454  0.1115  0.2563
23007W        W39854  10.830   5.113  12.438  0.0019 -0.0165 -0.0141
23008W        W39855   7.009  13.108   5.480 -0.2500  0.0713 -0.1981
23009W        W39856   7.812   5.452   2.517 -0.1430  0.0047  0.2279
23010W        W39857  18.342   1.260   5.113 -0.1190  0.0147  0.0578
23011W        W39858   0.612   6.569   3.733 -0.4103 -0.1798 -0.3041
23012W        W39859  14.021   6.907  11.920  0.0165  0.0276  0.0925
23013W        W39860  12.592   6.525   2.074 -0.2315 -0.1588  0.0971
23014W        W39861   7.515   7.531  11.818 -0.0434  0.2449 -0.0624
23015W        W39862  15.195   5.367  16.284  0.3034 -0.2511  0.1858
23016W        W39863   5.047   2.963   2.822 -0.1821 -0.5085 -0.0096
23017W        W39864  18.352  15.021  13.173  0.3440  0.0638  0.1510
23018W        W39865   5.436  10.392   0.531  0.0939 -0.2554  0.2456
23019W        W39866  17.657   0.161   4.437  0.0179 -0.0535 -0.1977
23020W        W39867   4.472   7.627  15.070 -0.4562 -0.0481  0.0754
23021W        W39868   4.272  15.150  12.060  0.3495  0.5226 -0.0081
23022W        W39869   7.369   0.009  15.837 -0.0130 -0.0073 -0.1804
23023W        W39870  16.722  14.267  12.506  0.0964 -0.1552 -0.1490
23024W        W39871   1.369  12.763  13.006  0.0366 -0.2209  0.0536
23025W        W39872   6.723   9.419  16.365  0.0510 -0.0400 -0.2891
23026W        W39873   3.611   1.444  13.651 -0.0057  0.0384  0.2205
23027W        W39874   8.334  10.644  16.218 -0.1060  0.0473  0.1459
23028W        W39875   0.165   6.408  16.172 -0.3179  0.1858  0.2486
23029W        W39876   8.570   2.878  14.476  0.0288 -0.4580 -0.3371
23030W        W39877  16.844   7.240   1.555 -0.2206 -0.1783  0.0901
23031W        W39878   1.318  16.781  11.886 -0.0323  0.1874 -0.1498
23032W        W39879   9.137   4.785  11.906 -0.1304 -0.3615  0.2786
23033W        W39880   6.248   2.739  12.367 -0.0421  0.2986 -0.1556
23034W        W39881   2.030   1.777   3.723 -0.2852  0.0201 -0.1206
23035W        W39882  11.885  11.388   1.037  0.3025  0.0760 -0.0827
23036W        W39883   1.287  15.049   3.185 -0.0418 -0.0927  0.1208
23037W        W39884  17.863   6.707  14.267  0.1119 -0.1985 -0.0239
23038W        W39885   3.392   9.996   0.746 -0.1157  0.1551 -0.1529
23039W        W39886   9.551  17.082  13.764  0.1801 -0.0750  0.1032
23040W        W39887  17.562  10.026  16.360  0.1530  0.1743  0.4271
23041W        W39888   9.615  15.553   2.548  0.1942  0.0532 -0.0629
23042W        W39889  11.631  13.963   6.321 -0.0335  0.1795 -0.1791
23043W        W39890  13.176  15.592   4.609  0.0238 -0.1190 -0.1715
23044W        W39891   0.323   6.913  11.638  0.3579 -0.0699  0.1709
23045W        W39892   2.981  15.052   4.735 -0.2234 -0.1941  0.0201
23046W        W39893  14.101  10.588  15.856  0.2101  0.0306 -0.2789
23047W        W39894   9.664  10.359   3.846 -0.2375 -0.1127  0.2797
23048W        W39895   1.137  16.620   0.037  0.1093 -0.0262  0.3092
23049W        W39896   7.240   8.197   1.777  0.1563 -0.0129 -0.2256
23050W        W39897   1.287   7.927   2.678  0.2313 -0.0468  0.2472
23051W        W39898   6.751   7.243   2.588  0.4458  0.1038 -0.2469
23052W        W39899  11.292   0.193  13.346  0.4695  0.0023 -0.2027
23053W        W39900  12.927   7.859  14.702 -0.1478 -0.1465 -0.1457
23054W        W39901   2.152   3.335  15.568 -0.2159 -0.0555  0.3370
23055W        W39902  11.786  16.801  16.263 -0.1802 -0.0489 -0.2399
23056W        W39903   3.761   4.801   2.056 -0.0250  0.1820  0.1806
23057W        W39904  12.627   8.942  11.233  0.1409  0.0384 -0.1894
23058W        W39905   0.699   1.524   5.483  0.0452 -0.0001 -0.3278
23059W        W39906   4.567   3.102   0.789 -0.0661 -0.1207 -0.0492
23060W        W39907   9.606   5.150   5.511  0.2782 -0.1487  0.1535
23061W        W39908   9.743   1.688   1.387  0.0262  0.0840  0.1567
23062W        W39909  10.205  10.571   1.689 -0.3401 -0.0846  0.1809
23063W        W39910  13.302   5.063   3.225  0.3836 -0.1343  0.1421
23064W        W39911   8.414   3.371   4.684 -0.1864 -0.0819 -0.0418
23065W        W39912   1.436  17.929  14.045 -0.1443 -0.3769  0.0357
23066W        W39913  13.502  14.772   0.021 -0.2835  0.2902  0.0600
23067W        W39914  15.734  12.168   5.751  0.0760  0.0059  0.0647
23068W        W39915   2.957   1.741  10.918  0.0997  0.0895 -0.0637
23069W        W39916   5.603  11.322   4.212  0.2288 -0.2326 -0.1650
23070W        W39917  15.985  15.663   3.113  0.0246 -0.0785 -0.0805
23071W        W39918   1.141  16.315   5.920 -0.1719 -0.1541 -0.0034
23072W        W39919   1.054   5.034  16.300 -0.1198  0.0731 -0.2179
23073W        W39920   3.724  10.114  16.186  0.0523 -0.2625 -0.2878
23074W        W39921  17.777  11.342  12.603 -0.2606 -0.0168  0.1882
23075W        W39922  10.677   0.701   0.360 -0.1897 -0.0983 -0.1061
23076W        W39923   8.384   3.149   3.188  0.1565 -0.0253  0.1639
23077W        W39924   9.828  12.131   0.064 -0.2742 -0.2977  0.0630
23078W        W39925  16.777  17.981  13.905 -0.1546  0.2965  0.0657
23079W        W39926  17.652   5.235   4.312  0.0076 -0.2886  0.0188
23080W        W39927   8.881   3.220   0.280  0.1355  0.0301  0.0380
23081W        W39928  15.899   2.411  13.057 -0.0079  0.1892  0.0036
23082W        W39929   9.075   0.924   3.764  0.0831 -0.1205  0.1590
23083W        W39930   2.132   1.652   2.898 -0.0146  0.0617 -0.2531
23084W        W39931   8.035   7.353  13.475  0.1060  0.1148  0.0817
23085W        W39932   6.797  14.072   0.112 -0.0599 -0.0993  0.0868
23086W        W39933   7.589   0.750   4.880  0.0822  0.0190 -0.0204
23087W        W39934   0.168   7.122  14.311 -0.1721  0.1845  0.0235
23088W        W39935  16.154   6.818   2.191  0.0491  0.3330  0.0054
23089W        W39936   9.744   2.875   2.769  0.0330  0.1484 -0.1554
23090W        W39937  14.727  18.293   3.269  0.0154 -0.2668 -0.0916
23091W        W39938  11.790  13.118  11.553 -0.0781  0.0486 -0.0764
23092W        W39939   1.754   8.985  11.163 -0.1348  0.1372  0.1458
23093W        W39940   1.813   9.410   4.025 -0.3556 -0.1813  0.2001
23094W        W39941  10.176   9.616  13.478  0.1085 -0.0368  0.3052
23095W        W39942  11.537   0.699   0.809 -0.5870  0.0124  0.2728
23096W        W39943   6.335   8.084   0.483  0.2452  0.1243  0.0505
23097W        W39944   4.754  15.152  16.223 -0.1056 -0.3694 -0.3029
23098W        W39945   6.673   7.151  15.913 -0.0641 -0.2824  0.2852
23099W        W39946  12.839  15.512  15.532  0.2998 -0.0355 -0.2509
23100W        W39947  15.081  16.882   5.264  0.0203  0.2052 -0.0464
23101W        W39948   3.392  13.222  12.287  0.0886 -0.1157  0.0781
23102W        W39949   6.804  14.257  11.628  0.0137 -0.3248  0.3146
23103W        W39950   2.603  18.115  14.823 -0.0975 -0.0339  0.1603
23104W        W39951   6.844  12.117  14.934  0.0136 -0.2170 -0.1074
23105W        W39952  14.670  10.300  15.335 -0.0715 -0.1758  0.3313
23106W        W39953  10.475  12.441  14.659  0.0327  0.3550 -0.0289
23107W        W39954  18.407  17.636   5.418 -0.2472  0.4233 -0.2291
23108W        W39955  14.268   5.110  11.104  0.0347 -0.1040  0.1637
23109W        W39956   5.250   0.537   2.246  0.0633  0.1916  0.0821
23110W        W39957   5.835  10.640   3.763  0.0900 -0.0246 -0.0415
23111W        W39958  10.504  12.834  11.463  0.3320  0.2690  0.1427
23112W        W39959  12.077  10.243  13.361 -0.0955 -0.0619 -0.0828
23113W        W39960  15.398  12.390   4.096  0.1185 -0.0184 -0.0076
23114W        W39961  15.318   5.745  14.987  0.2272 -0.0932  0.0436
23115W        W39962   0.947   8.324   3.738 -0.0407  0.0573  0.1498
23116W        W39963   9.602   4.672  13.608  0.2842  0.2666 -0.3358
23117W        W39964   8.410  15.604   1.178 -0.0655  0.1214  0.2214
23118W        W39965  10.212  15.078  14.513 -0.2918  0.0319 -0.0394
23119W        W39966   8.127   0.037   0.016 -0.0229  0.1118 -0.1783
23120W        W39967   2.840   5.335  15.254 -0.0181 -0.1990  0.0400
23121W        W39968   4.141   5.712   4.794  0.1334 -0.0412  0.1715
23122W        W39969   1.523  15.057  15.315 -0.2996 -0.0190  0.1461
23123W        W39970   8.852  10.847   4.800  0.1888  0.2951 -0.1056
23124W        W39971  17.670   3.602   0.887  0.2188 -0.1505  0.3342
23125W        W39972   5.846   4.501   0.134  0.0515  0.1483 -0.0042
23126W        W39973   0.154  12.927   1.640 -0.1848  0.2710  0.1991
23127W        W39974  15.799   7.688   0.332 -0.0378  0.0925 -0.1082
23128W        W39975  17.477  13.800  12.969 -0.1920 -0.2441 -0.0548
23129W        W39976   4.516   9.804   2.242  0.1046 -0.2788  0.3059
23130W        W39977  12.231   1.282   0.967  0.3990 -0.1900 -0.0086
23131W        W39978  16.772  18.222   4.537  0.1594 -0.0567  0.1782
23132W        W39979  14.623  17.253  15.687  0.0732 -0.2018 -0.0928
23133W        W39980   7.054  16.269   3.670  0.0553  0.1630  0.1364
23134W        W39981   8.220   9.457  14.450  0.1485 -0.1167  0.2634
23135W        W39982  10.501  14.269   2.066 -0.0738  0.0333 -0.1355
23136W        W39983   2.674  12.164   4.713 -0.0948  0.0256  0.0311
23137W        W39984   2.482   2.280  12.917 -0.2948  0.2395 -0.2003
23138W        W39985   9.737   0.292  14.493  0.2545 -0.0005  0.1106
23139W        W39986  14.532   0.582  14.034 -0.3123 -0.0802 -0.0080
23140W        W39987  17.376  16.496   1.614 -0.1017  0.2719  0.1675
23141W        W39988   7.776   1.638   1.629 -0.3544  0.1578  0.1377
23142W        W39989   3.340   8.806  15.107 -0.1249 -0.2230  0.1986
23143W        W39990   8.052   3.303  16.111  0.0438  0.0075 -0.4190
23144W        W39991   9.156  15.808   2.384 -0.1321 -0.0318  0.0941
23145W        W39992   4.701   0.373  12.301 -0.0970  0.0264  0.0727
23146W        W39993   8.590  17.688  16.080 -0.1542  0.0361  0.1097
23147W        W39994   6.116   3.905   5.075  0.1222 -0.0486 -0.1674
23148W        W39995  15.525  17.801   1.122  0.0803 -0.2824  0.0864
23149W        W39996   5.225  15.831   5.014  0.0934  0.0077  0.2510
23150W        W39997  14.642  15.170   1.867 -0.0934  0.1145  0.1036
23151W        W39998  17.995   3.052  13.768 -0.2392  0.3061 -0.2098
23152W        W39999   0.414  16.444  12.823  0.1121  0.2397 -0.0674
23153W        W40000   6.434  17.256   0.829 -0.3985 -0.0243 -0.0638
23154W        W40001  18.192  12.821   1.248  0.3990 -0.1608 -0.1580
23155W        W40002  10.449  12.258  13.202  0.5366 -0.1525 -0.3262
23156W        W40003  15.566  10.441   3.236  0.0579 -0.0378 -0.0374
23157W        W40004   4.698   5.625   2.090  0.0143 -0.0754  0.2262
23158W        W40005   2.524  17.529  14.337 -0.3053 -0.0235 -0.2261
23159W        W40006   8.271   4.749   4.643  0.3000  0.4884  0.0959
23160W        W40007   8.150   6.921   4.974  0.0985  0.2345 -0.0487
23161W        W40008   3.437   2.065  13.055  0.1886  0.2739  0.0993
23162W        W40009   9.775  12.351  15.485  0.0523 -0.1229  0.1271
23163W        W40010  10.192  16.086  15.544 -0.0937 -0.2154  0.0512
23164W        W40011   3.079  11.929  13.249  0.3560  0.0089 -0.2212
23165W        W40012  15.116  16.322  14.078 -0.0356  0.0213  0.0878
23166W        W40013  10.243  17.669   1.939  0.0314  0.3061  0.0054
23167W        W40014  17.149   7.673   3.363 -0.1042 -0.3511 -0.3674
23168W        W40015   3.455  13.265   3.673 -0.3781 -0.0949  0.1160
23169W        W40016   4.746   5.867  11.390  0.2348 -0.3196 -0.1221
23170W        W40017   3.395   8.149  11.725 -0.0418 -0.1273 -0.0730
23171W        W40018   7.153  10.315   1.561  0.0548 -0.4305  0.0625
23172W        W40019  15.656  17.161  16.009 -0.1897  0.1034  0.2549
23173W        W40020  15.507  15.782  10.868  0.0232 -0.0612  0.0861
23174W        W40021  17.105   1.736   2.236  0.1492  0.1186  0.0357
23175W        W40022   2.966  16.746   5.070  0.1081  0.1997  0.2023
23176W        W40023  12.467  10.635   2.432 -0.2509 -0.0171 -0.4638
23177W        W40024  13.409  14.251  13.994 -0.0466 -0.2006 -0.2549
23178W        W40025  16.887   0.186   1.104 -0.2942 -0.1912 -0.0699
23179W        W40026   3.612   3.556  11.740  0.2174 -0.4416 -0.0107
23180W        W40027  10.251   8.094  15.163  0.1192  0.3566 -0.0272
23181W        W40028   0.255  18.236   1.651 -0.2179  0.0124  0.2666
23182W        W40029  16.118  10.707   4.061 -0.0835  0.3426 -0.2890
23183W        W40030   7.277   1.256   1.823  0.3962  0.2517  0.0541
23184W        W40031   4.926   7.752  16.020  0.2912 -0.1088 -0.0379
23185W        W40032   4.649   7.331  15.468  0.0097 -0.3021 -0.0257
23186W        W40033   3.806  10.063  14.316  0.0476 -0.0823  0.3389
23187W        W40034   6.272   7.965  12.177  0.1082 -0.0340  0.1405
23188W        W40035  16.199  11.854   0.832 -0.1995  0.1724  0.0135
23189W        W40036  13.975  13.643  12.674 -0.3086  0.0266  0.0614
23190W        W40037  14.909  16.700   4.080  0.0781  0.1483  0.2098
23191W        W40038   3.433  16.914  15.407  0.0153  0.2904  0.3465
23192W        W40039  17.445   4.979   4.653 -0.1935 -0.0474  0.1155
23193W        W40040  17.640  16.892   3.110  0.1024 -0.0578  0.0048
23194W        W40041  14.327   6.733   1.532 -0.1246  0.1063 -0.1152
23195W        W40042  17.670   9.876   2.712 -0.1915 -0.0552 -0.0611
23196W        W40043   7.560   9.800  13.890 -0.0193 -0.1127 -0.2145
23197W        W40044   7.642   1.141   0.935  0.0767 -0.0238  0.0421
23198W        W40045   4.418   1.402   0.512 -0.2575 -0.0111  0.0017
23199W        W40046   3.975   9.235  14.916  0.1877  0.2137  0.2414
23200W        W40047   0.547  16.038  13.946  0.0344  0.1301 -0.2391
23201W        W40048   9.131  15.475   3.301  0.4126 -0.0562 -0.0774
23202W        W40049   6.211  10.153  14.081 -0.0554 -0.1651 -0.2475
23203W        W40050   7.465  17.203   4.000 -0.2326  0.0258  0.0656
23204W        W40051   8.377  15.909  15.815 -0.0653  0.0647 -0.1013
23205W        W40052   5.925  13.904   0.263 -0.0694 -0.0433  0.1293
23206W        W40053   1.558  14.327   5.720  0.2984 -0.1579 -0.0437
23207W        W40054   9.402   9.911   0.883 -0.0859  0.0192 -0.1980
23208W        W40055   1.622  18.170  11.898 -0.0259  0.1316 -0.0631
23209W        W40056   6.808   1.798   0.749  0.0446  0.2506 -0.1782
23210W        W40057   7.773   1.887  15.035 -0.0959  0.2784  0.0153
23211W        W40058   3.046   3.463  13.405  0.0984  0.1994  0.0542
23212W        W40059  11.383   7.737  13.607 -0.0248  0.0546  0.1525
23213W        W40060  12.894   4.366   4.936 -0.0801 -0.2157  0.2355
23214W        W40061   9.033   7.257  12.345  0.1470 -0.0874  0.3198
23215W        W40062   1.543   7.426   3.597  0.0723  0.3901  0.1917
23216W        W40063   6.161  13.224   3.262 -0.0341 -0.3236 -0.0037
23217W        W40064  14.979  12.791   4.625 -0.0984 -0.1154 -0.1635
23218W        W40065   7.016   3.889   5.200 -0.0747 -0.1393 -0.1091
23219W        W40066  12.216   9.742   0.676 -0.0641 -0.3535 -0.1619
23220W        W40067   1.940   8.448   2.296 -0.2110 -0.3553 -0.1624
23221W        W40068  16.252  11.534  13.200  0.1235  0.3159  0.1987
23222W        W40069  14.338  14.207   0.275  0.1099  0.2332 -0.1095
23223W        W40070   2.641  15.420  15.265 -0.1401 -0.4241  0.3389
23224W        W40071   3.881   1.951  12.107 -0.2381  0.0491  0.2503
23225W        W40072   1.344  13.202  12.601  0.2949  0.2061  0.1152
23226W        W40073  15.158   3.739   4.222  0.3913 -0.2287  0.0704
23227W        W40074  15.824   6.950   4.162  0.0452  0.1702  0.3130
23228W        W40075   6.791   5.223  15.858  0.0504  0.2485  0.0340
23229W        W40076  12.558   7.629  13.309 -0.0912  0.0941 -0.3364
23230W        W40077  15.891   3.001   1.647 -0.2668  0.3559 -0.1769
23231W        W40078   3.468  17.487   4.131 -0.0467  0.4542  0.0630
23232W        W40079  13.872   3.227  15.301 -0.3600 -0.1739 -0.3818
23233W        W40080   6.011   5.643  15.752 -0.0513 -0.0677 -0.1703
23234W        W40081   0.929  10.540   4.365 -0.2719  0.1202  0.1079
23235W        W40082   6.707  14.342   3.517 -0.1459  0.0786  0.3299
23236W        W40083   4.803  13.240   3.926 -0.1187  0.1106 -0.1061
23237W        W40084   7.522   9.294  12.211 -0.0988 -0.0329 -0.0239
23238W        W40085   8.534   9.195   4.217 -0.0670  0.4532 -0.0916
23239W        W40086   7.022   2.546   0.566  0.4183 -0.0203  0.0230
23240W        W40087  10.996   7.613  11.469 -0.0939 -0.1651  0.2489
23241W        W40088   6.569  10.422  15.477  0.1606 -0.1752 -0.1521
23242W        W40089   0.022   1.387   1.173  0.0475 -0.1491  0.0778
23243W        W40090  17.662  17.680  12.865 -0.1012  0.4003 -0.2221
23244W        W40091   3.031  13.464   3.844 -0.0599  0.2597 -0.2334
23245W        W40092  14.320   4.257  10.892  0.1142 -0.0545  0.2086
23246W        W40093  17.706   0.568  15.352  0.0435  0.2507  0.1582
23247W        W40094  15.536  14.780   5.068 -0.0534 -0.2621  0.1328
23248W        W40095   5.718  17.984  13.741  0.1108 -0.1039  0.0061
23249W        W40096   3.258   2.205   2.338  0.0775 -0.0901 -0.0434
23250W        W40097  12.857  12.754   3.765 -0.0457 -0.1825  0.0915
23251W        W40098  12.401  11.464  13.494 -0.0095 -0.0732 -0.0929
23252W        W40099   5.307  17.169   2.343 -0.4672 -0.0833 -0.0493
23253W        W40100  11.732  10.514   5.752 -0.0745 -0.2574  0.4691
23254W        W40101   4.987   9.741  14.176  0.0267 -0.0317 -0.3075
23255W        W40102  10.943   8.522   5.064 -0.0305 -0.1939 -0.0480
23256W        W40103  12.423   0.512  12.179  0.1325  0.0500 -0.2261
23257W        W40104   1.513  15.942  14.425  0.1233  0.2501  0.2588
23258W        W40105   5.148   8.195   0.888 -0.0794  0.2121 -0.0177
23259W        W40106  12.761  17.918  11.792  0.1193  0.0648 -0.1488
23260W        W40107   9.318  17.936  14.825 -0.2249 -0.0734 -0.3441
23261W        W40108  14.374   0.384  12.918  0.0655  0.0365  0.3460
23262W        W40109   1.861   3.449   2.575 -0.0644 -0.2344  0.0443
23263W        W40110   0.039  10.482   2.970  0.1357 -0.2724 -0.1246
23264W        W40111   9.160   7.863  16.105  0.1575 -0.3308  0.0400
23265W        W40112  18.016   6.512  12.454 -0.2101 -0.0631 -0.1531
23266W        W40113   0.704  12.315  14.418 -0.2353 -0.1988  0.0408
23267W        W40114  18.255  13.474   3.442  0.0456  0.0622  0.1632
23268W        W40115   2.691  12.916   2.695  0.0326 -0.1768 -0.1501
23269W        W40116  14.720  12.828  15.295 -0.1273  0.2208  0.1671
23270W        W40117   5.871   9.427   1.201  0.0465 -0.0534  0.0275
23271W        W40118  15.653  11.202   5.553 -0.0404  0.0001  0.3165
23272W        W40119   2.213   2.975  15.246 -0.1644  0.1165  0.2656
23273W        W40120   2.172   9.774  11.248  0.0850  0.0982 -0.0053
23274W        W40121  11.531   5.551   3.393 -0.0660 -0.2239 -0.0254
23275W        W40122   2.462  16.556   2.433 -0.1090  0.3381  0.0002
23276W        W40123   2.430  17.831  13.177 -0.2999  0.1083 -0.1272
23277W        W40124  15.504  12.827  15.806  0.0407  0.1335 -0.2099
23278W        W40125  15.408  16.760  16.197  0.0924  0.1644 -0.1904
23279W        W40126  14.252  17.883   4.254  0.0077 -0.3240  0.3687
23280W        W40127   1.414   9.567  15.306  0.0358  0.1871 -0.0622
23281W        W40128   7.545  13.304   1.282  0.1939  0.0574 -0.2679
23282W        W40129   5.820   6.009   4.733 -0.2428 -0.0939  0.3526
23283W        W40130  12.983  14.238  13.677 -0.0219 -0.2901 -0.2530
23284W        W40131  13.963  14.080  13.872 -0.2563  0.1219 -0.0620
23285W        W40132   5.386  13.054   0.639  0.2605 -0.1441 -0.1463
23286W        W40133  18.146   4.227  15.241  0.0296  0.2819  0.2208
23287W        W40134  13.265  16.770   1.615  0.1098 -0.0692 -0.0232
23288W        W40135   1.449  14.145  15.035  0.0677  0.2526  0.1497
23289W        W40136  13.836   7.396   1.175 -0.1654  0.0427  0.1419
23290W        W40137   9.966  14.255   2.033  0.0925 -0.2318 -0.1804
23291W        W40138  12.956   9.063  15.856  0.1612 -0.0390  0.1636
23292W        W40139   6.902   5.696   2.688 -0.0827 -0.1526  0.2889
23293W        W40140  10.340   4.734  12.355 -0.1690  0.1596  0.0888
23294W        W40141  17.949   3.982   2.959 -0.0947 -0.0513 -0.0011
23295W        W40142   8.592  17.485  13.412 -0.0070 -0.3378  0.1930
23296W        W40143  11.141  13.464   0.002  0.2908  0.1263  0.2014
23297W        W40144   8.479  15.494   5.930 -0.1877  0.0260 -0.1178
23298W        W40145   3.420   6.591  10.744 -0.1873  0.1744 -0.0281
23299W        W40146   7.933   9.306  12.496 -0.0057  0.0496  0.1284
23300W        W40147   9.216   4.057  14.223 -0.2225 -0.1378 -0.0707
23301W        W40148  14.615  12.886  16.139 -0.1287 -0.0461 -0.0706
23302W        W40149   8.281  13.523   5.308 -0.3274  0.2778 -0.1318
23303W        W40150  18.375   9.047   1.812 -0.1184  0.2040 -0.0463
23304W        W40151  18.048   0.471  14.201  0.3604  0.3573  0.1998
23305W        W40152  11.488   6.565   3.082 -0.2059  0.0872 -0.1565
23306W        W40153  10.459  15.810   5.379 -0.3297  0.0340 -0.2286
23307W        W40154  15.695  17.264   3.496  0.1907  0.2837 -0.0573
23308W        W40155  11.974  10.278   0.540  0.1402 -0.1796 -0.1825
23309W        W40156   9.149  12.798  15.025  0.2689  0.0839  0.0030
23310W        W40157   2.776  13.699  15.161  0.0877  0.1549  0.0178
23311W        W40158  14.326   8.255   4.514 -0.0017  0.1267 -0.0811
23312W        W40159  10.446  16.566  15.591  0.2186  0.0651  0.0949
23313W        W40160  11.686   9.995  16.269 -0.2123 -0.1828 -0.1894
23314W        W40161  11.193   5.035  11.987  0.0345  0.1022  0.0934
23315W        W40162   2.719   9.645   5.443  0.1279 -0.2051 -0.1977
23316W        W40163  13.713  10.545   4.028 -0.1408 -0.3249 -0.0159
23317W        W40164   6.975   5.075   4.612 -0.2233 -0.0091  0.2373
23318W        W40165  12.813  11.719  14.685  0.0576 -0.1348  0.2068
23319W        W40166   1.299   6.240  11.952  0.0774 -0.2071 -0.0090
23320W        W40167  14.925   3.762  13.001 -0.2187  0.0886 -0.2697
23321W        W40168  10.128   1.379   2.257 -0.0859  0.0795  0.0300
23322W        W40169  16.731  11.476  13.698 -0.2105 -0.1318  0.0300
23323W        W40170   4.709   7.686   1.427 -0.1230  0.1393  0.1562
23324W        W40171   9.253   2.299   4.918  0.2341  0.1452  0.0149
23325W        W40172   6.782  10.564   5.627  0.1806 -0.1055 -0.1087
23326W        W40173  12.170  16.130  11.597  0.0209 -0.1054 -0.0027
23327W        W40174   6.782  16.439  15.470  0.0162  0.1158  0.2150
23328W        W40175  11.196  12.374  14.201  0.1116 -0.0940  0.1356
23329W        W40176   8.962   8.918   1.796 -0.1838  0.0871 -0.2143
23330W        W40177   7.350   5.485  12.148 -0.1086  0.2635  0.2405
23331W        W40178   8.375   7.089  15.831  0.0704  0.0589 -0.1357
23332W        W40179  17.665   9.607  14.648  0.1009  0.0732 -0.1711
23333W        W40180  17.334   8.361  14.271 -0.1854  0.0655 -0.1532
23334W        W40181   7.474  10.443  15.270  0.0671 -0.0641  0.0179
23335W        W40182  14.291  15.841  12.597  0.0590  0.0779 -0.2376
23336W        W40183   2.170   7.085   0.948  0.2011 -0.2858  0.1378
23337W        W40184   1.149   3.729   3.535 -0.2004 -0.2056  0.2772
23338W        W40185  16.852   6.800   3.374  0.2791  0.1829  0.0799
23339W        W40186  11.715  14.856   3.417  0.0377  0.0805  0.1509
23340W        W40187   6.305   6.893   0.996  0.0927  0.0034  0.2699
23341W        W40188   2.612   5.602  13.626  0.1327  0.1365  0.2577
23342W        W40189  18.292   7.635  16.007 -0.3456 -0.0292 -0.1055
23343W        W40190   4.538   6.157  13.307  0.1407 -0.0793  0.0117
23344W        W40191   2.843  11.938  12.683 -0.2592  0.0241  0.0561
23345W        W40192  16.242  16.019   1.668 -0.2729  0.5479  0.3243
23346W        W40193  17.063   6.849  13.223  0.0166 -0.0360 -0.0920
23347W        W40194  18.280  14.746   3.926  0.2747 -0.1387 -0.0571
23348W        W40195  10.385   5.201  13.172  0.4717 -0.0550  0.3125
23349W        W40196   2.381   2.611   3.939 -0.2898  0.0005 -0.0749
23350W        W40197  18.222  14.257   5.005 -0.0796 -0.0413  0.2948
23351W        W40198   7.461  17.232   0.394  0.0988 -0.0092  0.2856
23352W        W40199  18.337  17.701   3.683 -0.0577 -0.2121  0.0987
23353W        W40200   5.059   0.120   1.003  0.0120  0.1209  0.0624
23354W        W40201  12.221  10.394   0.078  0.3277  0.0123 -0.4332
23355W        W40202  11.669  13.019  15.684  0.1244 -0.2094 -0.1198
23356W        W40203   0.398   7.229   2.575  0.0017  0.0896  0.0725
23357W        W40204  17.593   2.048   4.232 -0.3076  0.0548 -0.1901
23358W        W40205  12.440   6.751  13.447 -0.1253  0.0047 -0.0983
23359W        W40206   8.619  11.076   1.140  0.0215 -0.2200  0.2058
23360W        W40207   4.791   0.508   5.338  0.0215 -0.1217 -0.1869
23361W        W40208  16.516  16.378   4.442 -0.2586  0.1177 -0.1934
23362W        W40209  16.268   3.464  12.307  0.1705 -0.2342 -0.0660
23363W        W40210  10.604   6.949   4.187  0.0570 -0.0823 -0.1860
23364W        W40211  16.436   1.725   3.162 -0.0798  0.0104 -0.0562
23365W        W40212   0.216  10.647  14.534 -0.0231 -0.0130  0.0022
23366W        W40213  17.063   4.241  11.691  0.2090 -0.0929 -0.2988
23367W        W40214  15.224   1.967  13.937 -0.0043 -0.2180  0.2530
23368W        W40215   5.091   7.788   5.531  0.1699 -0.3019  0.4225
23369W        W40216  16.492   6.410  15.694  0.0880  0.1419 -0.2629
23370W        W40217   8.737  15.398  15.267  0.2133 -0.0643 -0.0086
23371W        W40218  12.426  15.706   4.178  0.0705  0.5137 -0.0684
23372W        W40219   4.912  13.097   1.357 -0.0127 -0.2028 -0.0175
23373W        W40220   2.103   7.761  14.834 -0.1472  0.0730 -0.1789
23374W        W40221   0.378   3.005   0.818  0.2820  0.3183 -0.2352
23375W        W40222   0.911   3.673  12.434 -0.0164  0.0571 -0.1013
23376W        W40223   0.859   4.460   1.330  0.1779 -0.0397 -0.1270
23377W        W40224  17.672   1.275  15.846 -0.0940 -0.1707 -0.2868
23378W        W40225  14.243  17.640  12.849 -0.1812 -0.0346 -0.0254
23379W        W40226   3.105   0.545  15.807  0.0553 -0.1502 -0.2307
23380W        W40227   1.236   2.664  16.358  0.0225  0.2729 -0.0497
23381W        W40228   7.566  10.356  12.296 -0.0223  0.1684  0.0165
23382W        W40229   6.151  12.539  16.142  0.1110  0.1225  0.0141
23383W        W40230   7.639   6.987  14.093  0.0456 -0.3124 -0.0405
23384W        W40231   7.096  10.982   5.579  0.0832  0.1099  0.2087
23385W        W40232   2.524  15.297   5.713  0.1549  0.0770 -0.1509
23386W        W40233   5.564   0.576   3.725  0.3443  0.0364  0.0100
23387W        W40234  14.476   8.661  14.610 -0.0077  0.0025 -0.0177
23388W        W40235   1.951   9.221   1.505 -0.0424  0.1754  0.2509
23389W        W40236  14.124  12.428   0.588 -0.1851 -0.6358  0.0897
23390W        W40237   3.879  10.398  11.588 -0.3921 -0.1388 -0.0738
23391W        W40238   6.808   6.721  12.171  0.2048  0.2350  0.0934
23392W        W40239   2.457  12.461  11.300 -0.1739 -0.3011 -0.0342
23393W        W40240  11.072  12.658  14.903 -0.1926 -0.1926 -0.1258
23394W        W40241   8.141  12.809   0.773  0.1577  0.6252 -0.2479
23395W        W40242  17.236   2.319  11.563  0.0636 -0.0932 -0.3610
23396W        W40243   7.967  18.031   4.577 -0.0107  0.1754  0.1471
23397W        W40244   8.933   7.096   4.705  0.0090 -0.0944  0.1978
23398W        W40245   6.717   8.136  14.385  0.0717 -0.0435  0.0624
23399W        W40246   0.033   4.071   3.050  0.3187 -0.0925  0.3236
23400W        W40247   7.151   8.974  12.345  0.0319 -0.1079 -0.4067
23401W        W40248   0.420   2.139   2.141  0.1772  0.1625  0.0275
23402W        W40249  14.942  11.110  14.927  0.1526  0.3925 -0.2217
23403W        W40250  16.193   4.994   2.353 -0.0084  0.0643 -0.2664
23404W        W40251   7.647   8.520  13.298 -0.0541 -0.4032  0.0488
23405W        W40252  14.155  13.258   5.648  0.0333 -0.1057 -0.2174
23406W        W40253  10.745   2.894  14.059 -0.0617  0.3291  0.2505
23407W        W40254   4.839   5.495  11.131 -0.2241  0.1287  0.0327
23408W        W40255  17.195   6.046  11.269  0.0525  0.2955  0.1857
23409W        W40256   0.696   9.950  14.367 -0.1934 -0.2159  0.1041
23410W        W40257   0.904  10.789   3.901  0.1834  0.1155  0.0585
23411W        W40258  15.387   9.611  12.348  0.0358  0.1838  0.2943
23412W        W40259   0.756   7.666  14.753 -0.4055  0.0524  0.1174
23413W        W40260  13.892  11.109   2.234 -0.0475  0.2416  0.0056
23414W        W40261   4.557   7.945  11.146  0.1290 -0.0533 -0.2358
23415W        W40262  17.580   5.908  16.131  0.0756 -0.0034  0.0091
23416W        W40263  17.781   2.298  11.513 -0.3695 -0.3422  0.0613
23417W        W40264   7.077  18.001  11.385 -0.0310 -0.0382 -0.0835
23418W        W40265   9.108   6.123  11.720  0.0426  0.0455 -0.1216
23419W        W40266  14.912  17.327  13.023 -0.2575 -0.3379 -0.0087
23420W        W40267   5.186  17.744   3.789  0.1025 -0.1490 -0.0407
23421W        W40268  17.293   0.485  16.181  0.2042 -0.0361 -0.1901
23422W        W40269  17.374  11.207   1.313  0.0345 -0.0038 -0.1080
23423W        W40270   5.831   6.277  15.111 -0.0436  0.0115 -0.1240
23424W        W40271   7.841  14.394  15.536 -0.0852  0.1571  0.2124
23425W        W40272   6.126  15.197  14.299 -0.4320 -0.2475 -0.0932
23426W        W40273   0.692  10.156   4.454 -0.2338  0.2925  0.0803
23427W        W40274  11.701   4.315  11.561  0.3084 -0.0376  0.0692
23428W        W40275  12.325   3.840   3.516 -0.0610  0.0277  0.1494
23429W        W40276   7.593   2.667   2.746 -0.4260 -0.1468  0.1159
23430W        W40277   6.509   6.452   0.440 -0.3339  0.0881 -0.2335
23431W        W40278   2.350  15.023   3.873  0.0526 -0.5402  0.2224
23432W        W40279   1.689  18.001   6.310  0.2163  0.2740  0.4144
23433W        W40280   3.121   9.100  16.225  0.0231 -0.0865  0.0933
23434W        W40281  18.353  17.083   2.096  0.3012  0.1613  0.0079
23435W        W40282   7.482  17.401   5.526 -0.1166  0.3204 -0.0114
23436W        W40283  13.993   2.337   1.511  0.2596  0.2602  0.3793
23437W        W40284   1.556  11.366  15.969  0.2814  0.0811 -0.0165
23438W        W40285   9.320  13.338   1.964  0.2166  0.0956 -0.1713
23439W        W40286   4.718   6.487   0.406  0.0386 -0.0950 -0.1576
23440W        W40287   4.467   3.998  13.355 -0.1406  0.1736 -0.1772
23441W        W40288  11.663   1.532  12.861 -0.4899 -0.1231  0.0352
23442W        W40289   5.479  15.671  15.479 -0.0881 -0.1749 -0.0665
23443W        W40290   2.269  13.264   2.385  0.3164 -0.1526  0.1818
23444W        W40291  16.996  10.338   1.392 -0.0195  0.1718  0.1752
23445W        W40292   7.997   0.546   5.096  0.1687 -0.0722  0.1716
23446W        W40293   5.255  14.042   3.006  0.2270 -0.0383  0.1573
23447W        W40294   2.532   8.056   2.820  0.0553 -0.0275  0.0461
23448W        W40295  16.557  17.932   1.087  0.1716 -0.1376 -0.3242
23449W        W40296  13.984  16.765   0.477  0.0625 -0.1980  0.0858
23450W        W40297  18.281   6.612   5.689 -0.0309 -0.1324 -0.2142
23451W        W40298   3.629  17.809   1.758 -0.2886  0.1149 -0.3514
23452W        W40299   6.922   0.546  12.226 -0.1193  0.3174 -0.0586
23453W        W40300   6.638  16.153  12.441 -0.1528  0.0595 -0.0793
23454W        W40301  14.595  13.658   2.278  0.0111  0.0616 -0.0324
23455W        W40302   5.703   1.342  15.546  0.3176 -0.0274  0.0942
23456W        W40303   0.761  15.638  12.787 -0.1942 -0.0267  0.2677
23457W        W40304   6.384   0.609  14.544 -0.3774 -0.1926 -0.3818
23458W        W40305   5.522   9.947  12.933 -0.1344 -0.2086  0.0973
23459W        W40306  17.282   6.456   1.916  0.4421 -0.2528  0.1105
23460W        W40307   8.019  15.521  12.132 -0.0707  0.0914  0.1294
23461W        W40308  16.161   5.581   3.532 -0.0072  0.1652 -0.1022
23462W        W40309   3.984   9.730   0.204  0.0761 -0.1192  0.0606
23463W        W40310   3.849  14.723   0.156  0.0336 -0.4880  0.1220
23464W        W40311   9.341   5.625   1.557 -0.1271  0.0296  0.0840
23465W        W40312   1.866  11.456   1.914  0.2030 -0.1348 -0.1943
23466W        W40313   3.111  16.833  16.060 -0.1753 -0.1808  0.0447
23467W        W40314   8.417   9.584  12.684 -0.0334 -0.1251 -0.0423
23468W        W40315   1.031   3.339  16.122  0.2475 -0.3008  0.0818
23469W        W40316   6.877   1.953  13.488  0.1308  0.0010  0.2974
23470W        W40317  11.294  11.826   1.842 -0.2297 -0.0000 -0.0971
23471W        W40318  14.925  16.892   2.072  0.0280 -0.1917 -0.0170
23472W        W40319  11.505   4.484   2.450  0.2008  0.2133 -0.2295
23473W        W40320   8.067  14.938  14.411 -0.1423  0.0005  0.1371
23474W        W40321  17.621  14.480   1.424  0.2832 -0.0848 -0.0167
23475W        W40322   4.799   8.185  11.971 -0.1732 -0.0857  0.0195
23476W        W40323   2.950  10.286  15.469  0.0043 -0.3078  0.3085
23477W        W40324   9.795  17.712   6.007  0.2883  0.0558  0.0688
23478W        W40325   9.898   3.830  13.634 -0.1939 -0.2385 -0.1980
23479W        W40326   8.590  13.895   4.966 -0.1000  0.0108 -0.0022
23480W        W40327  10.437   5.644  16.201  0.2329  0.1385  0.1644
23481W        W40328  14.549  11.039  11.546  0.4473 -0.1361 -0.2465
23482W        W40329   6.065  18.224   2.527 -0.1460  0.0494  0.2513
23483W        W40330   8.398   4.864  13.600  0.3798  0.0475  0.2857
23484W        W40331  15.554  13.357  12.405 -0.1646  0.0296 -0.0701
23485W        W40332   1.618   3.100  15.572  0.1093  0.1333  0.1675
23486W        W40333   0.512  14.201   4.014 -0.1167 -0.0814 -0.2592
23487W        W40334   1.238   0.348  13.775 -0.3005 -0.4185  0.0580
23488W        W40335  10.480   5.488   1.925  0.1255  0.2870  0.2210
23489W        W40336  10.198   0.653   0.574  0.3815 -0.0795 -0.0082
23490W        W40337  12.896  15.005   5.311 -0.0247 -0.0533  0.2263
23491W        W40338   9.695  14.040   2.393 -0.2114 -0.1933  0.1585
23492W        W40339  15.175  16.828  13.938 -0.0813 -0.2366  0.2382
23493W        W40340  11.584  12.695  14.924  0.2140 -0.0177  0.0584
23494W        W40341   4.190   9.826  12.781  0.0325 -0.0916  0.1226
23495W        W40342   2.730   9.109   3.010 -0.1284 -0.3502  0.0758
23496W        W40343  16.531   8.821  14.170  0.0842 -0.3783 -0.1689
23497W        W40344  10.757  13.454  13.818  0.2290  0.3561  0.1182
23498W        W40345   9.150  10.349   4.907 -0.1788  0.1445  0.1346
23499W        W40346  13.175  12.641  12.223 -0.4315  0.3677  0.1717
23500W        W40347  15.048   3.109  12.389 -0.4251 -0.0226 -0.2597
23501W        W40348   8.711   7.811  15.803 -0.0345 -0.1285  0.4206
23502W        W40349  17.756   0.332   3.070 -0.1139 -0.0580 -0.0717
23503W        W40350  16.265   1.737   1.317 -0.0238 -0.0016  0.0759
23504W        W40351   8.203   9.014   0.304  0.1326  0.0249 -0.0621
23505W        W40352  17.878  16.802  14.805 -0.0921 -0.1571  0.1136
23506W        W40353   6.060  13.272   1.763  0.1623 -0.0082 -0.2065
23507W        W40354  16.904  18.294   2.701  0.0113  0.0577 -0.0679
23508W        W40355  16.804   5.696  14.908  0.0834  0.1775  0.0745
23509W        W40356   8.295   0.312  15.193 -0.2712  0.1422  0.0403
23510W        W40357  16.506   9.387  13.758 -0.0508  0.0482 -0.4136
23511W        W40358   2.055   4.537  12.345  0.3858  0.0555  0.1636
23512W        W40359  10.986  13.954   1.898 -0.0682  0.1953  0.0318
23513W        W40360   2.519  15.014   1.502 -0.0069  0.0421 -0.1153
23514W        W40361   6.936   8.193  12.976  0.2046  0.1835 -0.0044
23515W        W40362  10.208   7.951  11.938  0.0440 -0.1670 -0.0378
23516W        W40363  13.615  16.275   4.256  0.0191  0.3291  0.2627
23517W        W40364  12.490  16.326  15.647 -0.3068 -0.2927  0.2145
23518W        W40365   6.600   3.256  16.348 -0.2184 -0.0056 -0.1121
23519W        W40366  14.998  17.048   2.578 -0.1373  0.2026 -0.1606
23520W        W40367   1.131  16.924  13.219  0.0270  0.1606  0.0928
23521W        W40368   4.694  12.920   1.846 -0.0502  0.0464  0.0369
23522W        W40369   4.433  10.094   2.602 -0.2512 -0.0677 -0.3841
23523W        W40370  18.350   8.442   0.824 -0.1768 -0.1583  0.3130
23524W        W40371   3.884   5.889   4.240  0.1447 -0.0050  0.0451
23525W        W40372   5.776  12.118  14.891  0.0135  0.1570  0.0308
23526W        W40373   4.923   4.670   2.580  0.3267 -0.1619  0.0706
23527W        W40374  17.016  11.459  16.374  0.0610 -0.3807 -0.0285
23528W        W40375   4.822   4.315  13.571  0.3158 -0.0163 -0.2099
23529W        W40376   1.910   9.674   5.284 -0.1851  0.3268  0.2388
23530W        W40377  13.479  13.348   1.606 -0.0511 -0.2514 -0.1864
23531W        W40378   4.597   7.993  15.427 -0.0594 -0.2245 -0.0419
23532W        W40379   3.719   3.294   3.483 -0.0570 -0.2763  0.2793
23533W        W40380   2.577   9.641  12.764  0.2049 -0.2237  0.0932
23534W        W40381  14.769   9.443   2.323 -0.1127 -0.2856 -0.0197
23535W        W40382   8.564  16.725  16.071 -0.0274  0.0416 -0.1289
23536W        W40383  16.230  18.402  13.194  0.1196  0.1560  0.1910
23537W        W40384   6.955   8.225  14.849  0.1334  0.0214  0.0479
23538W        W40385  13.552   0.532  15.323  0.2649 -0.0189  0.2360
23539W        W40386   7.439  18.093  14.241  0.0017 -0.0317 -0.0258
23540W        W40387  12.167   7.563  12.357  0.2213  0.1035  0.1307
23541W        W40388   6.515  18.190  12.827 -0.0752 -0.0646 -0.0953
23542W        W40389  15.807   4.067  15.497 -0.2079  0.5171  0.1683
23543W        W40390  15.717  13.723  15.285 -0.1154 -0.1732  0.2185
23544W        W40391   8.136  17.848  14.864  0.0121  0.4281 -0.2390
23545W        W40392  11.414  16.068   0.724 -0.1184 -0.2663  0.0288
23546W        W40393  16.276   7.556  15.372 -0.1155 -0.0701  0.1699
23547W        W40394  13.227  11.241  13.634 -0.1884 -0.0436  0.0758
23548W        W40395  18.412   4.764  13.540 -0.0499  0.1667  0.2259
23549W        W40396  10.222  10.874   5.007 -0.4889  0.1719  0.0585
23550W        W40397   2.225  11.398  15.079 -0.0209  0.0954 -0.0829
23551W        W40398   6.052   9.539   5.165 -0.3057 -0.3226 -0.2668
23552W        W40399   4.845   2.256  14.731  0.0317  0.0454  0.1085
23553W        W40400   0.895   0.398   5.821  0.2107  0.0196 -0.0928
23554W        W40401   1.161   6.688  12.987 -0.2860  0.0830 -0.2513
23555W        W40402   9.603   5.127   3.799  0.0453 -0.1896  0.3480
23556W        W40403  15.927  14.655   4.801 -0.1083 -0.0876  0.2726
23557W        W40404   1.672  13.387   3.615  0.1678  0.3328 -0.0598
23558W        W40405  16.286   1.403   2.353  0.0718  0.3063  0.2161
23559W        W40406  14.503  18.371  11.609  0.1104 -0.2371 -0.3616
23560W        W40407   6.509   4.787  11.568 -0.0334 -0.2378  0.3927
23561W        W40408   5.109   9.448  15.167  0.1125 -0.1931 -0.0083
23562W        W40409  14.113   3.056  14.852  0.0762  0.1480  0.1233
23563W        W40410   1.523  17.692  12.036  0.3969  0.0649  0.1648
23564W        W40411   9.226  13.913  13.957 -0.0482 -0.0300  0.0336
23565W        W40412   1.263   0.813   2.997 -0.3710  0.2108  0.0173
23566W        W40413   2.550   6.622  15.696 -0.1689  0.1703  0.1859
23567W        W40414   5.916   2.728   1.481  0.0981 -0.1970  0.0029
23568W        W40415   5.840   3.332   1.040  0.1407 -0.1495 -0.0383
23569W        W40416   8.371  17.150  13.978  0.2667  0.0247  0.0454
23570W        W40417  13.873   6.766  16.067  0.0355 -0.3819  0.0583
23571W        W40418  17.332  11.740  15.006  0.1242 -0.3717  0.0034
23572W        W40419  13.807  14.983   5.048 -0.4746  0.0887  0.0343
23573W        W40420   2.434   4.241   0.248  0.1360 -0.1054  0.1463
23574W        W40421   2.809   4.099  16.281  0.0771 -0.2717  0.0722
23575W        W40422   8.304   7.545  16.069 -0.1782  0.0830  0.2843
23576W        W40423  14.700   7.093  13.938  0.0123  0.4922 -0.1512
23577W        W40424   1.321   5.783   4.723 -0.1573 -0.2414 -0.2675
23578W        W40425  15.634  15.097  11.870  0.1624 -0.1656  0.0160
23579W        W40426  11.750  14.818   1.491 -0.1946 -0.0637  0.2246
23580W        W40427  13.739  16.902   1.416  0.0822  0.4529 -0.1205
23581W        W40428  16.257   2.161   3.046 -0.1816 -0.1775  0.2001
23582W        W40429  11.827   8.475  15.258  0.2922  0.1767 -0.2600
23583W        W40430  15.330  14.939  16.243  0.0131 -0.0404 -0.0366
23584W        W40431   7.381  13.201   2.978  0.1194 -0.4193  0.1360
23585W        W40432  11.006  14.561  16.220  0.3221  0.1152 -0.4801
23586W        W40433  10.665   1.642   4.414 -0.3014  0.3234 -0.1364
23587W        W40434   6.496   3.129  13.855  0.0979 -0.0830 -0.0959
23588W        W40435  10.124  15.360   4.228 -0.0228  0.0196 -0.1589
23589W        W40436  13.308   7.526  14.984  0.2052 -0.0136  0.2712
23590W        W40437   5.070   0.588   1.434 -0.0449  0.1021 -0.2537
23591W        W40438   8.056   7.211   1.227  0.1565  0.0529  0.3186
23592W        W40439   8.118   0.460  16.110  0.0782  0.2578 -0.2049
23593W        W40440   6.824   9.194   0.825  0.0725  0.0029  0.1505
23594W        W40441  11.459  10.673   3.520  0.0488 -0.3879 -0.3376
23595W        W40442  10.944   3.310  12.363  0.3192  0.3626 -0.0920
23596W        W40443  16.708   9.775   0.501 -0.0579 -0.2124 -0.4777
23597W        W40444  12.733   7.828  15.246 -0.1190 -0.3017  0.6785
23598W        W40445   4.101  13.612   1.097  0.0718 -0.2700 -0.0398
23599W        W40446   7.685  18.271   4.914 -0.3130  0.0275 -0.0287
23600W        W40447   0.863   6.562   5.248 -0.2555  0.1007  0.0937
23601W        W40448   2.415  17.041   3.696  0.0599 -0.0574 -0.0522
23602W        W40449   4.059   6.463   2.926 -0.1049  0.4157  0.1301
23603W        W40450   7.349   7.650  15.986  0.1137 -0.0640  0.0749
23604W        W40451   6.535  17.596   1.258 -0.0035 -0.1811  0.1735
23605W        W40452   2.903  11.513   6.027 -0.1952  0.1337 -0.1366
23606W        W40453   9.737  12.866   1.279  0.1845  0.1197 -0.4202
23607W        W40454   1.664   5.771  14.755  0.1604  0.0397 -0.2303
23608W        W40455  13.381  17.609  15.309 -0.0312  0.0137 -0.3059
23609W        W40456  11.966  10.216  14.242  0.0437  0.0389  0.0317
23610W        W40457  14.374  10.938  13.816 -0.0181 -0.2266 -0.3138
23611W        W40458  15.843  18.186   0.300 -0.0107 -0.0375  0.1224
23612W        W40459   9.888   0.813   2.819 -0.3383 -0.1390  0.0074
23613W        W40460  13.079   2.701  14.485  0.0790 -0.0178  0.1076
23614W        W40461   5.432  13.041  13.204 -0.0774  0.1048  0.1583
23615W        W40462  16.757  15.185  14.735  0.1996  0.1379  0.1298
23616W        W40463   3.695  12.213  16.109  0.2233 -0.1712  0.0457
23617W        W40464   9.670  15.904   5.724  0.0256  0.1570 -0.1025
23618W        W40465   6.177  18.024  15.040 -0.0050 -0.3278  0.1541
23619W        W40466   4.898   3.169  14.297 -0.2275 -0.1373  0.2113
23620W        W40467  18.264  17.580  13.575  0.0966 -0.2086 -0.0991
23621W        W40468   9.006   9.385  15.551  0.0154  0.0997  0.0413
23622W        W40469   3.777  14.586   1.616  0.0436 -0.1718 -0.1544
23623W        W40470  11.429  12.854  14.318  0.1427 -0.0613 -0.0513
23624W        W40471  13.460   0.019  14.100  0.0703  0.0464 -0.0813
23625W        W40472  16.277   9.619   3.694 -0.0122  0.0905  0.0236
23626W        W40473  11.017   9.587   2.985 -0.2518 -0.2580  0.2257
23627W        W40474   4.975   5.634  10.268  0.0090 -0.2443 -0.0016
23628W        W40475   0.778   0.527  15.023  0.0233  0.0743  0.0541
23629W        W40476   0.935  14.664   1.809  0.2199 -0.0899 -0.0868
23630W        W40477  14.545   7.174  12.527 -0.2829  0.1733  0.0202
23631W        W40478  11.030   3.591  11.885  0.2519 -0.0342 -0.1897
23632W        W40479  17.221   0.216   2.452  0.2039  0.3023  0.2878
23633W        W40480   0.070  17.081   0.847  0.0948 -0.2678  0.1878
23634W        W40481  17.624   9.253  15.927  0.1545 -0.1703 -0.0462
23635W        W40482  10.719  10.146   4.810  0.1028  0.2126  0.0299
23636W        W40483  13.203  11.423  16.142  0.2211 -0.1152 -0.1081
23637W        W40484  16.703  15.888  15.121  0.0024  0.1472 -0.2764
23638W        W40485  10.636  17.193  12.712  0.2681  0.3459  0.2779
23639W        W40486  15.411  18.107  15.327 -0.0133 -0.1111  0.1724
23640W        W40487  10.121   2.055  12.066  0.2072 -0.0193 -0.2341
23641W        W40488   9.033  16.883  11.622  0.1798 -0.0269  0.0630
23642W        W40489   6.336  16.862   5.563  0.1311 -0.1471 -0.1269
23643W        W40490   7.139  10.315  14.690  0.3076 -0.0314  0.1019
23644W        W40491  13.953  18.067   3.918 -0.0118  0.1428 -0.1125
23645W        W40492   1.622  11.786   4.634  0.0505  0.2619  0.3682
23646W        W40493  11.391   3.590  13.812 -0.1938 -0.1479 -0.1268
23647W        W40494   1.254   9.295  14.022 -0.0782  0.0232 -0.0467
23648W        W40495  14.786   1.179  15.219  0.0919 -0.3526  0.1352
23649W        W40496  17.289  16.495  10.298 -0.2738  0.1659  0.1938
23650W        W40497  15.794   2.486  14.898 -0.1366 -0.1005  0.1926
23651W        W40498   8.071  12.358   4.357 -0.0503  0.1104  0.2582
23652W        W40499  13.786   4.234   3.093 -0.0735  0.0086 -0.1979
23653W        W40500  11.174  16.295  14.276 -0.1025  0.0186  0.1151
23654W        W40501   4.514   5.854  14.206  0.0196 -0.0391  0.2010
23655W        W40502   6.956   8.186   3.690 -0.0367 -0.2321 -0.1686
23656W        W40503  17.187   1.263   1.341 -0.3538  0.4346  0.0802
23657W        W40504  12.636   4.645  15.534 -0.2654  0.1209 -0.1482
23658W        W40505  12.338  17.239  11.457  0.1278  0.0603  0.2586
23659W        W40506   2.209  12.778   4.922 -0.0241 -0.0491 -0.1913
23660W        W40507   8.227  15.099  12.217  0.0169  0.1839  0.2915
23661W        W40508   8.029   8.190   3.313 -0.1278  0.0629 -0.2098
23662W        W40509  11.156   4.543  14.753  0.1750 -0.1771  0.5318
23663W        W40510  12.760  12.015   1.786  0.0606 -0.1934  0.1313
23664W        W40511  11.203   8.589   0.211  0.5937 -0.0179 -0.0897
23665W        W40512  18.185   4.651  14.391  0.0908  0.0501  0.1865
23666W        W40513  13.165   8.775   4.650  0.0945  0.0748 -0.0610
23667W        W40514  15.605   9.608  14.327  0.2878 -0.3484  0.1019
23668W        W40515  11.541   6.527   3.751  0.1581 -0.4072  0.0920
23669W        W40516   1.728  13.834   5.083  0.0548 -0.2265 -0.2021
23670W        W40517   8.743   0.455   2.555 -0.1002 -0.1874  0.0914
23671W        W40518   6.896  11.966   2.047  0.1890  0.0497  0.1289
23672W        W40519   9.906  15.285  15.854 -0.2499  0.5009 -0.1217
23673W        W40520  10.035   7.549  11.765  0.1265  0.1952 -0.2183
23674W        W40521   8.001  17.914   5.339 -0.1658  0.3747  0.2129
23675W        W40522   5.996   7.404   5.119 -0.0732 -0.0923  0.2984
23676W        W40523  12.362  12.986   3.798 -0.1069  0.0938 -0.0603
23677W        W40524   8.110  17.076   0.350 -0.1844  0.1769 -0.1645
23678W        W40525  12.277  17.740  14.555 -0.0769  0.3252  0.0447
23679W        W40526   4.954   0.378   0.585 -0.0230  0.2499 -0.0356
23680W        W40527  15.108  18.205  13.512 -0.1556 -0.0229 -0.2889
23681W        W40528   5.915   5.061  14.889  0.1462 -0.0422  0.2020
23682W        W40529   7.477  14.163   5.922 -0.0920 -0.1966 -0.0057
23683W        W40530   2.147   3.810   3.927  0.0541  0.0063  0.0983
23684W        W40531  12.670   2.936  14.873  0.1284 -0.3817 -0.1910
23685W        W40532   5.965  15.828  12.405  0.2465  0.0111 -0.1797
23686W        W40533  15.264  11.678   3.689 -0.0557  0.0206 -0.1534
23687W        W40534   1.870  16.606   4.252 -0.2920 -0.3389 -0.1631
23688W        W40535  11.400  11.245   0.749  0.1228  0.0114 -0.0679
23689W        W40536  13.528  13.405   1.066  0.1811  0.0510 -0.1125
23690W        W40537   2.549   2.991   3.516 -0.2112 -0.0022  0.2223
23691W        W40538  15.253   8.248  12.283  0.1249 -0.3607 -0.0625
23692W        W40539   6.358   7.907  12.743 -0.1405  0.0482  0.1385
23693W        W40540  14.291  17.938  15.885  0.0805  0.0659  0.0961
23694W        W40541   1.693  14.485  14.613  0.1222 -0.1124 -0.3226
23695W        W40542  15.790   7.674   5.518 -0.1610 -0.1250  0.1713
23696W        W40543  14.681   1.952  12.389  0.1938 -0.3117 -0.1764
23697W        W40544   0.480  10.040   2.841  0.1240  0.0942  0.1565
23698W        W40545   3.367   0.677   4.212  0.0593  0.0121 -0.2491
23699W        W40546  11.149   5.868  13.796  0.0134  0.3463  0.1561
23700W        W40547  17.050   2.631   1.898  0.1498  0.3642  0.0819
23701W        W40548  14.852   4.753  15.162 -0.2103 -0.1873  0.1924
23702W        W40549  12.293   7.149   0.442 -0.1057 -0.0746 -0.1436
23703W        W40550   0.014  13.036   3.208 -0.0575  0.2192 -0.2069
23704W        W40551  14.657   7.592  13.357 -0.1702  0.0270 -0.1392
23705W        W40552  17.189  17.942  12.721  0.3303 -0.2107 -0.0709
23706W        W40553   6.480  15.493  12.796  0.0331  0.2756 -0.0013
23707W        W40554  12.975   2.296   1.448  0.1112 -0.2293  0.1709
23708W        W40555   1.608  15.946  12.293  0.0198 -0.0153  0.1706
23709W        W40556   1.878  13.372  12.035  0.2146  0.0054  0.2280
23710W        W40557   3.417  12.739  13.047  0.3120  0.0283  0.0168
23711W        W40558   3.100  14.382  14.419 -0.0759 -0.3419  0.3662
23712W        W40559   4.591   6.041   4.143 -0.1335 -0.1075 -0.2985
23713W        W40560   0.825   6.148  13.239 -0.1657  0.1415 -0.2029
23714W        W40561  16.401   1.364  14.221 -0.0674  0.1574  0.2132
23715W        W40562  15.097  16.377  15.992  0.0025 -0.0162  0.1163
23716W        W40563  16.152  11.342  16.016 -0.2024  0.1586  0.2978
23717W        W40564   1.397  11.971   1.401  0.0413 -0.0533 -0.0198
23718W        W40565   9.252   0.144  14.555 -0.0265  0.0166 -0.1048
23719W        W40566   6.097  11.553   2.000  0.2923 -0.2098  0.1535
23720W        W40567   9.817   7.124   1.663  0.3625 -0.1798 -0.1598
23721W        W40568   5.733   3.623   3.389 -0.0888  0.1990  0.2044
23722W        W40569   4.443   8.067  13.813  0.0835  0.0210  0.2157
23723W        W40570   0.823  11.842   5.335 -0.3054 -0.0225  0.0777
23724W        W40571  12.208   7.640  10.814 -0.3144  0.3978  0.2814
23725W        W40572  17.109  15.331  15.815  0.0425  0.2425 -0.3774
23726W        W40573  18.024  11.128   0.878 -0.1461 -0.0216  0.1380
23727W        W40574   3.088  14.476   4.919  0.0838 -0.2544 -0.0421
23728W        W40575   3.241  10.762  15.619 -0.2526  0.1313 -0.2091
23729W        W40576  15.602  10.672  15.327 -0.0259  0.0098  0.0463
23730W        W40577  13.239   2.663  13.022  0.0252 -0.2800  0.0832
23731W        W40578   5.686  11.968  12.660 -0.2894 -0.1084  0.3666
23732W        W40579   8.083  11.261   3.647 -0.3612  0.1375  0.2025
23733W        W40580   2.716   2.930  14.977 -0.1566  0.1030 -0.1075
23734W        W40581   5.991   4.332  14.352  0.0834 -0.0502  0.1021
23735W        W40582   3.167  17.846   1.550 -0.2703  0.3801  0.1387
23736W        W40583   5.437   3.261   2.989  0.0848  0.0975 -0.1803
23737W        W40584  15.184  12.949   2.037  0.2642 -0.1999 -0.2489
23738W        W40585  10.750  13.655   4.286  0.1989 -0.0832 -0.3331
23739W        W40586  14.704   0.364  15.656  0.0472 -0.0491  0.0322
23740W        W40587  11.139   5.880   2.437  0.0175 -0.0748  0.0093
23741W        W40588   5.735   7.454   2.823 -0.1432 -0.1396  0.0232
23742W        W40589   8.494   4.905   1.529 -0.2760  0.1811  0.0343
23743W        W40590   2.911   6.437  10.897 -0.1423 -0.0465  0.1468
23744W        W40591   6.125  17.843  13.378  0.0382  0.1859 -0.0993
23745W        W40592   2.869   8.972  11.451 -0.0281  0.2120 -0.0244
23746W        W40593  18.330   7.068   3.032 -0.2606  0.0160  0.1914
23747W        W40594   9.515   1.792   0.002 -0.0201 -0.2112 -0.1041
23748W        W40595   0.333  15.707   0.683  0.1539 -0.2567 -0.5586
23749W        W40596   1.898   1.295  15.505 -0.1102  0.4467 -0.0399
23750W        W40597  12.848  12.779   5.907 -0.0746  0.0318  0.0798
23751W        W40598   5.211   7.202   0.801 -0.1283 -0.0484  0.1176
23752W        W40599   3.673  10.568   3.661  0.0239 -0.2712  0.2722
23753W        W40600   6.923  17.511  12.759 -0.0582  0.0844  0.1668
23754W        W40601  14.882  14.570  11.954 -0.0238  0.1184 -0.0072
23755W        W40602  17.990   8.226   4.338 -0.2097  0.0681  0.0576
23756W        W40603  13.053   3.711   1.159  0.1561 -0.0862 -0.3899
23757W        W40604  15.733   3.564  15.276 -0.1706 -0.0206 -0.0517
23758W        W40605   2.382  13.273   0.522  0.0307  0.5693 -0.1519
23759W        W40606  17.547  17.435   5.309  0.1206  0.0125  0.2710
23760W        W40607   6.256  17.771   4.702 -0.0957 -0.3374  0.2342
23761W        W40608  16.293  15.893   3.476 -0.2233 -0.0467  0.0524
23762W        W40609  11.200  17.824  12.074 -0.1380 -0.2160 -0.4466
23763W        W40610   0.527  15.320  15.750 -0.1799 -0.4449 -0.1539
23764W        W40611   5.212  10.355  15.245 -0.0741 -0.0850 -0.1552
23765W        W40612  18.110   2.915   3.924  0.1202  0.0275 -0.2390
23766W        W40613   4.000   2.146   4.301  0.1737  0.0090 -0.1359
23767W        W40614  14.152   3.709   3.542  0.0706  0.0641 -0.0011
23768W        W40615   4.948   6.251   4.431  0.4147 -0.4818 -0.2041
23769W        W40616  13.410   5.475  14.818  0.1228  0.4192  0.0723
23770W        W40617   3.937   6.021  14.110 -0.1961 -0.0434  0.1266
23771W        W40618  15.651   5.185  14.266  0.0469  0.2483 -0.1876
23772W        W40619   9.703   2.557   3.313 -0.4026  0.1184  0.0240
23773W        W40620  15.473   7.848  12.021  0.0003  0.0175  0.0487
23774W        W40621  14.185   4.569  16.007  0.1745  0.1953 -0.0509
23775W        W40622  16.811  15.381  11.309 -0.0797 -0.2877 -0.1591
23776W        W40623   3.208   8.972  14.094 -0.0275  0.2099 -0.2010
23777W        W40624   1.105  17.574  15.733  0.0816  0.5069 -0.1065
23778W        W40625   2.370  15.111  14.904 -0.2108 -0.0069 -0.0790
23779W        W40626  15.126  15.124   5.748 -0.1556 -0.0267  0.3210
23780W        W40627  17.521   2.035   2.412 -0.0601 -0.1239  0.0691
23781W        W40628   6.184   1.153   5.079  0.2196 -0.1986 -0.0946
23782W        W40629   2.527  14.142   4.895  0.0937  0.1255 -0.1769
23783W        W40630   1.932   4.931   4.429 -0.2335 -0.1600 -0.2308
23784W        W40631  17.985  10.765   0.534  0.0919 -0.0398  0.2978
23785W        W40632   0.508   5.988   9.863 -0.1027 -0.0147  0.0167
23786W        W40633   5.326  11.592   2.106  0.0726  0.1896 -0.1949
23787W        W40634  16.553   8.285  14.356 -0.1168  0.1732  0.1720
23788W        W40635  12.898  15.542  12.008 -0.0394 -0.1067 -0.0294
23789W        W40636  12.430  11.146  15.588  0.0021 -0.1802  0.3448
23790W        W40637  16.311  17.580  11.632 -0.1155 -0.4097  0.4438
23791W        W40638   4.568   1.085   4.506 -0.3926  0.2514 -0.1817
23792W        W40639  13.718  13.903   4.057  0.0851  0.2168 -0.0463
23793W        W40640  11.096  15.756   3.032 -0.0674 -0.0312  0.0845
23794W        W40641  10.568   6.941   2.133  0.1925 -0.0108 -0.1392
23795W        W40642   0.190  10.190   0.152 -0.0815 -0.2038 -0.1278
23796W        W40643   1.304   4.295  11.921  0.1831 -0.0586  0.0820
23797W        W40644   3.041   5.690  11.614 -0.0006 -0.0442  0.1822
23798W        W40645   5.366   3.437  13.468  0.0831 -0.0473  0.1324
23799W        W40646   9.857   9.040   4.936 -0.2934  0.2417 -0.0617
23800W        W40647   6.857   4.404   5.197  0.0178 -0.0194  0.0767
23801W        W40648   6.884  15.851  16.368  0.3828 -0.1033 -0.1124
23802W        W40649  15.591   6.101   4.274  0.0070  0.1996  0.0370
23803W        W40650  12.325   7.817   4.821 -0.1462  0.0570 -0.3502
23804W        W40651   3.757   4.152  11.910  0.0891 -0.1789 -0.3741
23805W        W40652   9.070  10.811  15.297  0.1193 -0.3149 -0.0829
23806W        W40653  10.160  16.078   1.740  0.0904 -0.3842 -0.3784
23807W        W40654   4.077   0.064  13.305 -0.2914  0.0745  0.0603
23808W        W40655  11.040  10.381  13.334  0.0496 -0.2559  0.3320
23809W        W40656  16.205  16.239   5.119 -0.1513 -0.1342  0.0463
23810W        W40657  14.971  11.752  12.522 -0.0938 -0.2443  0.1820
23811W        W40658  11.792  14.688   3.941  0.0200  0.0924 -0.2081
23812W        W40659   4.635  16.413  11.173 -0.0319  0.4010 -0.1848
23813W        W40660  16.875  13.819   2.490 -0.3456 -0.2693  0.2286
23814W        W40661  11.987   7.618  13.478 -0.1062 -0.2398 -0.1878
23815W        W40662   3.817  16.025  13.131  0.0385 -0.0825 -0.1080
23816W        W40663   5.193   8.901   2.586  0.2849 -0.1145 -0.1791
23817W        W40664   4.882  10.030   0.670  0.0983  0.1762 -0.0611
23818W        W40665   9.941   4.595  13.964 -0.2807 -0.0684  0.3146
23819W        W40666  15.397  17.336   5.379  0.1722  0.2166  0.3560
23820W        W40667   6.218  17.756   1.597 -0.0783 -0.0605  0.1438
23821W        W40668   1.515  14.004  15.854  0.0066 -0.0183 -0.0791
23822W        W40669   0.955   4.230   3.327  0.0061 -0.3621 -0.1118
23823W        W40670   7.052  15.355   4.346  0.5095  0.0377  0.0479
23824W        W40671   1.642  12.172  13.781  0.0656  0.0902  0.2053
23825W        W40672  13.363  15.583  15.528 -0.2018  0.0068  0.1252
23826W        W40673   1.297  12.921   2.857  0.1488  0.1543  0.0690
23827W        W40674   3.209   5.177  14.969 -0.3118 -0.1504 -0.1817
23828W        W40675   2.586  16.873  12.270 -0.3707  0.1221 -0.1151
23829W        W40676   1.679  15.651  16.153  0.1828  0.0015  0.0025
23830W        W40677   1.195   8.425  13.394  0.0999 -0.1754  0.0640
23831W        W40678   9.100   5.868   2.751  0.1070  0.0582  0.0542
23832W        W40679  10.555   0.843  12.361  0.2294  0.0260 -0.0304
23833W        W40680  13.801   3.544   4.487 -0.3439 -0.0318  0.1873
23834W        W40681   5.002   4.688  15.968  0.2924  0.2963 -0.0111
23835W        W40682  13.339   6.450   5.391 -0.1461  0.2003 -0.0765
23836W        W40683  11.269   8.680   0.842  0.3196 -0.0286 -0.2910
23837W        W40684   5.255  17.897  13.871 -0.1793  0.0376 -0.2666
23838W        W40685  14.740   0.872  11.287  0.2073  0.2143 -0.0236
23839W        W40686  16.707  16.639  15.626  0.5478  0.0186  0.0644
23840W        W40687   8.966  10.077   2.598 -0.1062  0.1485  0.0636
23841W        W40688   6.989  12.276   1.217  0.0571  0.0629 -0.1674
23842W        W40689  14.935   6.276  12.529 -0.1172 -0.1366 -0.0422
23843W        W40690   6.109   4.431  12.872 -0.3073 -0.0490 -0.0431
23844W        W40691   2.581   2.764  14.072  0.0433  0.0888  0.1628
23845W        W40692  13.483   4.247   4.611  0.1782 -0.0557  0.0844
23846W        W40693  10.185  10.504   5.324 -0.0321  0.1154 -0.0437
23847W        W40694  12.135   7.043   5.862 -0.1051 -0.3196 -0.0029
23848W        W40695   8.020   3.681   5.389 -0.2523 -0.1919 -0.0154
23849W        W40696   6.348   0.791   2.260 -0.3659  0.1097  0.1207
23850W        W40697   5.209   1.404  12.880  0.1987  0.0471  0.2663
23851W        W40698  16.045  18.356  14.239 -0.1613 -0.1594  0.1696
23852W        W40699  17.371  16.469   3.026  0.2213  0.0579 -0.1521
23853W        W40700   2.264   0.509  13.345  0.4409  0.0770  0.0656
23854W        W40701   4.358  14.234  11.860  0.2892  0.1484  0.0745
23855W        W40702   0.860   8.178  12.940  0.0620 -0.3857  0.2095
23856W        W40703  13.883   8.201  11.552 -0.0654  0.3410  0.1342
23857W        W40704  10.397  11.429   3.113 -0.1487 -0.0852  0.3553
23858W        W40705  16.991   1.619   2.925  0.1364 -0.1120  0.2363
23859W        W40706  13.198  16.413  13.655 -0.3296  0.2521  0.0238
23860W        W40707   8.579  12.479   5.631 -0.1812 -0.2584 -0.1711
23861W        W40708  15.105   5.154   4.726  0.1701 -0.0293  0.1467
23862W        W40709  13.602   1.046  15.675 -0.3144  0.1431 -0.1253
23863W        W40710  18.242   7.786   4.767 -0.2142 -0.2332 -0.2216
23864W        W40711  13.727   6.802  11.488 -0.3351  0.0902 -0.0823
23865W        W40712  15.712  13.582   1.819 -0.0256 -0.2921 -0.2489
23866W        W40713   7.520   9.205  15.165 -0.0203 -0.0363  0.0936
23867W        W40714   7.347   7.854  13.801 -0.3218  0.3603  0.0646
23868W        W40715  13.039  14.557   0.973 -0.1440 -0.1957 -0.0056
23869W        W40716   5.993  17.786   5.641 -0.0485 -0.0611  0.2351
23870W        W40717   2.841  14.237  13.160 -0.2167 -0.1079 -0.0121
23871W        W40718   6.567  10.833   4.902  0.1959  0.0898  0.2197
23872W        W40719   2.947  16.815  15.320 -0.1684  0.2451 -0.2157
23873W        W40720   7.871   6.165   0.775 -0.2081  0.2119 -0.3136
23874W        W40721   9.125   6.860  16.299  0.1789  0.1263  0.0106
23875W        W40722   6.688   2.085  12.095 -0.0422  0.2166  0.2919
23876W        W40723  17.328  14.996  12.804  0.2967  0.0662 -0.3477
23877W        W40724  13.135   1.665  16.244  0.5272  0.1205 -0.1055
23878W        W40725  12.133   4.875   0.374 -0.0173 -0.1243 -0.1209
23879W        W40726  14.628  18.068  15.023 -0.0358  0.1584  0.1166
23880W        W40727  15.716  15.552  13.089  0.1406  0.5358 -0.0226
23881W        W40728   4.672  14.581  12.428 -0.1289 -0.2515 -0.0055
23882W        W40729  14.234  14.294  13.035 -0.2571 -0.2191 -0.0875
23883W        W40730  16.505  17.335   1.369 -0.1787  0.0566 -0.1502
23884W        W40731   8.531  13.509   4.584 -0.2209  0.3345 -0.1335
23885W        W40732   3.329  14.188   4.558  0.7109  0.0119  0.0518
23886W        W40733  10.925   0.722  12.758 -0.0162 -0.4218  0.1902
23887W        W40734   9.459  16.311   4.282  0.0119 -0.3044 -0.1010
23888W        W40735   1.048   1.234   2.128  0.0686  0.0071 -0.3145
23889W        W40736  11.558  16.927  13.623 -0.2427  0.0693  0.4059
23890W        W40737  17.538   0.410   1.060 -0.0984  0.0546 -0.1091
23891W        W40738  18.418   6.955   4.390 -0.1334  0.1730  0.0963
23892W        W40739   6.842   1.794   4.377  0.3177 -0.1523  0.4225
23893W        W40740   1.265   2.881  11.296 -0.2431 -0.2678 -0.2559
23894W        W40741   8.017   2.731  13.015 -0.0362 -0.1279 -0.0358
23895W        W40742  16.288  12.318  12.089  0.0584 -0.1824  0.2529
23896W        W40743  17.465   8.162  12.045  0.0674 -0.0604  0.1332
23897W        W40744  16.601   2.506  14.946 -0.1077 -0.0634  0.0530
23898W        W40745   3.909  16.741   4.506  0.0449 -0.0650  0.1740
23899W        W40746   7.929  10.831   0.194  0.3259 -0.1793  0.0163
23900W        W40747   7.059  15.353  16.313 -0.2035 -0.0772 -0.2812
23901W        W40748   9.631   6.087  14.112 -0.2411  0.0604  0.0379
23902W        W40749  17.392   4.326   2.181 -0.2393 -0.1333 -0.2753
23903W        W40750  17.089   8.347   1.489 -0.1036 -0.0699  0.0846
23904W        W40751   0.053  14.643   1.568 -0.1002  0.1007 -0.1671
23905W        W40752   1.002  13.347  14.141 -0.1263  0.0398 -0.2333
23906W        W40753   5.831   0.561   0.830 -0.0640  0.0488  0.1763
23907W        W40754   9.777   8.945  12.058 -0.0969  0.0291 -0.1458
23908W        W40755   4.905   9.630   1.604  0.2173 -0.0496 -0.0016
23909W        W40756  13.605   0.588   1.650 -0.0896  0.0070  0.3485
23910W        W40757  18.075   3.943   2.097  0.0679  0.2166  0.0066
23911W        W40758  13.894   9.317   2.549 -0.2613 -0.0289  0.0820
23912W        W40759  14.476  14.420   4.596  0.2132  0.0915  0.2612
23913W        W40760  11.827   6.211  14.372 -0.1764 -0.3485 -0.0636
23914W        W40761  16.463   7.497   2.681  0.4226 -0.2105 -0.0194
23915W        W40762   5.046   9.116  12.573 -0.2609  0.1147  0.1309
23916W        W40763   0.224  13.548  15.447  0.1142 -0.2053 -0.1385
23917W        W40764  14.588   1.016  16.187  0.2500  0.3357  0.0311
23918W        W40765   5.226   6.088  16.221  0.1253 -0.1606 -0.0486
23919W        W40766  12.551  16.806   0.161  0.0789  0.0260  0.1296
23920W        W40767   6.138  14.326   5.673 -0.0828  0.0725  0.1503
23921W        W40768   3.645  11.610   2.346 -0.0082 -0.0112 -0.0281
23922W        W40769  12.362  10.334   3.432 -0.0004 -0.1073 -0.4127
23923W        W40770   5.335   8.150  12.813  0.0669 -0.1537 -0.1192
23924W        W40771  12.211   3.169  12.273 -0.0667 -0.1475 -0.0059
23925W        W40772  12.547   8.361  14.020  0.1996  0.0334  0.0149
23926W        W40773  16.309   2.168  13.756 -0.2269 -0.1531 -0.0048
23927W        W40774   2.144  15.387   1.555  0.1323  0.1160  0.3706
23928W        W40775  16.812   2.565   0.002  0.2693  0.1930  0.1858
23929W        W40776  17.504  15.134   4.240  0.1633  0.1786  0.0840
23930W        W40777  15.325   5.503   5.014  0.1018  0.0311 -0.1131
23931W        W40778   3.246  14.905  12.108  0.0542  0.0702 -0.1053
23932W        W40779  10.558   2.565   4.540  0.2252  0.1680  0.0362
23933W        W40780  12.246   9.789  15.521  0.0913 -0.1860  0.1667
23934W        W40781   3.389  13.790   3.768  0.0335  0.1417  0.0746
23935W        W40782   4.251  14.908  14.488 -0.0936 -0.2307 -0.0979
23936W        W40783  10.598   5.981   2.620  0.3204  0.0976  0.5743
23937W        W40784   3.000   4.978  12.932 -0.1570 -0.0543  0.0622
23938W        W40785  12.495   7.225  14.381 -0.1068 -0.0939 -0.0972
23939W        W40786  16.000   6.346  14.157  0.2034  0.1859 -0.1733
23940W        W40787  15.363   6.265   2.030  0.0811  0.0800  0.1886
23941W        W40788   3.266   2.678  12.416 -0.0928 -0.0451 -0.0789
23942W        W40789   1.108  11.742   4.918  0.3504  0.0170 -0.0330
23943W        W40790  17.216   8.477  10.483  0.0269  0.1289 -0.0420
23944W        W40791   2.236   2.454   5.325  0.1039  0.0421  0.2630
23945W        W40792  12.270   7.975  11.554 -0.0910  0.0071 -0.0455
23946W        W40793  15.033   5.868  16.365  0.1112 -0.1777  0.0591
23947W        W40794   6.545  10.301   4.789  0.3170 -0.2664 -0.1123
23948W        W40795   5.382   4.961  15.724 -0.5230 -0.0824 -0.0904
23949W        W40796   9.002  18.085  12.053  0.1600 -0.0219 -0.1823
23950W        W40797   7.664  15.127  12.055  0.0143 -0.0427  0.1805
23951W        W40798  10.192  10.929   4.457 -0.1558  0.2798  0.2208
23952W        W40799   9.576   3.843  10.953 -0.1710  0.1310  0.1793
23953W        W40800  11.303  11.164  12.057  0.2139 -0.3236 -0.3883
23954W        W40801  17.445  16.217   5.956  0.2946  0.0776 -0.1473
23955W        W40802   8.774  13.990  13.569  0.1462 -0.1543 -0.2032
23956W        W40803   3.473   2.344  11.457  0.1542  0.4351  0.1031
23957W        W40804  15.433  15.321   2.311  0.1717  0.1207 -0.4008
23958W        W40805   3.272   7.896   1.210  0.2807 -0.0564 -0.0894
23959W        W40806   4.161   9.764   1.413  0.1680  0.2176  0.3700
23960W        W40807  15.807   5.482   0.732  0.5647 -0.1113 -0.0517
23961W        W40808  18.060   9.298  13.231 -0.0486  0.1166  0.0638
23962W        W40809  12.809  11.806   0.096  0.4581 -0.2829  0.1508
23963W        W40810   4.647   0.869  14.088  0.0035 -0.0508 -0.2581
23964W        W40811  14.057   4.023  13.801 -0.0897  0.0176  0.2492
23965W        W40812   5.464   8.567   0.857 -0.1574 -0.2215  0.1040
23966W        W40813  10.787   2.431  13.068 -0.0713  0.2275 -0.2245
23967W        W40814   2.316  10.348   3.225 -0.0627 -0.1579  0.0233
23968W        W40815   9.996   6.447  14.702 -0.0895  0.0084 -0.2495
23969W        W40816   7.378  11.470  13.393 -0.2279  0.0478 -0.1753
23970W        W40817   8.347  17.998  15.297  0.2021 -0.2754 -0.0114
23971W        W40818  10.456   5.641   3.974 -0.3144 -0.3108  0.0712
23972W        W40819  14.882  13.741   3.412 -0.2051  0.1612 -0.1245
23973W        W40820   4.401  17.200   4.973 -0.1550 -0.3382  0.1140
23974W        W40821  13.500   8.260   4.239  0.2149  0.1747 -0.0828
23975W        W40822  14.696   8.743  15.105  0.1171 -0.2786  0.1076
23976W        W40823   3.844  14.019  14.995  0.3792 -0.0738 -0.3275
23977W        W40824   8.237   5.366   1.341 -0.1286 -0.0045 -0.0637
23978W        W40825  11.070   0.630   1.120 -0.3373 -0.1081 -0.1437
23979W        W40826   4.587  16.760   2.283 -0.3873 -0.2159 -0.1604
23980W        W40827   8.770  15.889   5.688  0.3424 -0.3643 -0.1218
23981W        W40828  13.503  10.839  12.385  0.1292 -0.1804 -0.1424
23982W        W40829   7.865  16.999   2.055  0.1897 -0.1608  0.1168
23983W        W40830   1.744  16.005   3.166  0.0058  0.0758 -0.2043
23984W        W40831  16.620   4.320  12.009 -0.0871  0.1841  0.3123
23985W        W40832  15.933   0.218   5.905 -0.5224  0.3306 -0.2228
23986W        W40833  15.407  10.678  15.849 -0.0133 -0.1525  0.0477
23987W        W40834  14.420   2.556  14.524  0.2100  0.2120  0.3887
23988W        W40835   9.592  13.200  15.690  0.2318 -0.0080 -0.1950
23989W        W40836  12.322  11.291   3.710  0.0527 -0.1533 -0.1337
23990W        W40837   8.980   8.377   2.478 -0.0098  0.0795  0.0919
23991W        W40838   5.393   9.773   3.091 -0.0787 -0.0033  0.4139
23992W        W40839  11.082  12.013  12.650 -0.0571 -0.1016 -0.0914
23993W        W40840   4.185   2.718   2.398 -0.1518 -0.2341 -0.1310
23994W        W40841  15.593   9.938   3.099  0.2349  0.1581  0.1456
23995W        W40842   9.932  12.603  16.293  0.0085 -0.0737 -0.0029
23996W        W40843  15.246  17.266   2.194 -0.0117  0.3271 -0.2918
23997W        W40844   5.455   2.774  16.024 -0.2438 -0.0971 -0.1891
23998W        W40845   0.770   3.727   0.537 -0.0113 -0.0691  0.1422
23999W        W40846   9.483  16.179   2.536 -0.1905 -0.0081 -0.1187
24000W        W40847  15.883  17.568   0.012 -0.1479  0.1083 -0.0269
24001W        W40848   9.332   5.363  11.608  0.2667  0.3361 -0.1053
24002W        W40849  14.690   9.124   3.182  0.0558 -0.0380 -0.1817
24003W        W40850   5.667   7.294   0.423 -0.1684  0.0901  0.0337
24004W        W40851  12.668   9.620  13.613 -0.1060  0.2233 -0.2271
24005W        W40852   2.701   9.283  14.080 -0.1577 -0.0465  0.0823
24006W        W40853   6.142  13.640   3.665  0.0118 -0.2255  0.0179
24007W        W40854   1.371  12.613  14.963  0.0002  0.0181 -0.1613
24008W        W40855   0.980   5.397  12.469  0.0455  0.0081 -0.0965
24009W        W40856   2.795  17.294   5.674 -0.1011  0.1852 -0.2310
24010W        W40857  18.121   0.098  15.016  0.1256 -0.0196 -0.1622
24011W        W40858  17.314  13.755   5.159 -0.1345 -0.2440 -0.1531
24012W        W40859   0.270  12.786   4.569  0.2103 -0.0560  0.2685
24013W        W40860   0.428  13.831   3.019  0.1639 -0.0705  0.1378
24014W        W40861   0.019  15.399  14.505  0.0719  0.0983  0.2902
24015W        W40862   6.024  14.118   1.802  0.1092  0.1291  0.1059
24016W        W40863  12.426   4.400  13.126  0.1545 -0.1627 -0.4875
24017W        W40864  18.126  18.014  14.790  0.0195  0.0335  0.0989
24018W        W40865  10.058  13.975  15.749 -0.1021  0.0425 -0.0256
24019W        W40866   7.017   7.611  12.464 -0.0745  0.0760  0.0704
24020W        W40867  14.166   3.518  14.030  0.0265 -0.3156 -0.2725
24021W        W40868   5.413  11.028   1.552  0.0929 -0.2883  0.1326
24022W        W40869   9.241  17.621  12.155 -0.0431 -0.1459  0.2161
24023W        W40870  12.337   1.751  12.831 -0.0007  0.3403 -0.0080
24024W        W40871   4.129   0.123   2.297 -0.4387 -0.0063  0.1526
24025W        W40872  13.471  14.169  11.451  0.1095 -0.5050 -0.1322
24026W        W40873  16.616  15.823   1.983 -0.0047 -0.0361 -0.1685
24027W        W40874   2.021   0.760  16.194 -0.0166  0.0657 -0.1982
24028W        W40875   7.754  13.019   0.267 -0.2733  0.1163  0.0636
24029W        W40876  17.328   3.286   2.518 -0.1127 -0.2689  0.3282
24030W        W40877  13.750  10.081   4.831  0.1270  0.1625 -0.2637
24031W        W40878   1.863  17.822  12.805  0.0263 -0.0269  0.1675
24032W        W40879  12.429  18.118  12.797 -0.2388 -0.1401 -0.0662
24033W        W40880  16.301   9.547  15.272 -0.0202  0.1451  0.0770
24034W        W40881   0.411   4.584   2.430 -0.1398 -0.1121  0.3382
24035W        W40882  10.849  14.817   0.251  0.1760  0.1074 -0.0994
24036W        W40883  10.680   1.535  12.534 -0.0820  0.2527  0.0165
24037W        W40884  12.975  16.832   2.457  0.0183  0.0265  0.1094
24038W        W40885   0.081  14.910   2.358  0.0585 -0.1195 -0.1200
24039W        W40886   4.840  17.932   3.362  0.2328  0.0386  0.0854
24040W        W40887   6.276   3.727  15.277 -0.2283 -0.0252  0.0028
24041W        W40888  12.606  13.415  13.260  0.0868 -0.0016  0.1690
24042W        W40889   4.037   6.642   3.831 -0.0212 -0.1377  0.1610
24043W        W40890   3.655  10.169   3.335  0.1205 -0.0398 -0.1216
24044W        W40891  11.912  17.269  12.658 -0.0521 -0.0783  0.0370
24045W        W40892  15.326  16.516   6.138 -0.0548  0.0862  0.0710
24046W        W40893   5.179   2.540   1.321 -0.0341 -0.1454  0.1000
24047W        W40894   5.375  16.987  15.370  0.0662  0.0507  0.2668
24048W        W40895  10.629   8.641   3.938 -0.0590 -0.2306 -0.0283
24049W        W40896   2.734  17.927   1.259  0.2095 -0.1470  0.2439
24050W        W40897   7.743  10.070   3.180  0.0136 -0.0517  0.0979
24051W        W40898   1.406  18.019  12.424  0.2917 -0.2419 -0.2643
24052W        W40899  17.352  16.622   4.095 -0.0595  0.2166  0.3305
24053W        W40900   3.100   7.435  14.213  0.1436  0.1464  0.1036
24054W        W40901   3.701   5.808   1.038 -0.0820  0.2320  0.0945
24055W        W40902   0.810   7.610  12.041  0.0064  0.2441 -0.0670
24056W        W40903  12.312   6.419   3.442  0.0156 -0.0040 -0.2380
24057W        W40904   7.517  13.043   1.941 -0.5722 -0.1399  0.1678
24058W        W40905   6.856   0.216  14.207 -0.4642  0.1547 -0.2217
24059W        W40906  13.522   8.972  13.566 -0.0889  0.1204  0.4213
24060W        W40907   2.465   8.705   2.117  0.1991  0.2169  0.2419
24061W        W40908  10.931   0.939  12.008  0.1859 -0.1959 -0.0896
24062W        W40909   0.337  11.594  16.237 -0.3607  0.0232 -0.1063
24063W        W40910  14.765   2.066  14.683  0.2108 -0.1625  0.0496
24064W        W40911   3.764  10.259  13.368 -0.2582 -0.0678 -0.0690
24065W        W40912   3.143   8.758  15.849  0.2772  0.0996 -0.0287
24066W        W40913  12.934  13.155   2.259  0.3150 -0.0196 -0.1387
24067W        W40914  17.890   7.679  10.695 -0.0040 -0.1290 -0.1145
24068W        W40915   4.252  11.822  13.866  0.1918 -0.5651 -0.2126
24069W        W40916   4.781  15.579  12.239 -0.0451 -0.1873  0.4654
24070W        W40917   7.882  18.254  14.110  0.2475 -0.0754  0.1192
24071W        W40918   9.940   5.357   2.878  0.0445 -0.1171  0.5451
24072W        W40919  15.096   0.559   2.648  0.0993  0.1248 -0.0211
24073W        W40920   1.993  17.702  11.864  0.0615  0.0259  0.1508
24074W        W40921   0.891   2.879   0.695 -0.1345 -0.0947  0.2193
24075W        W40922   0.022  15.337   6.439 -0.0002  0.0112  0.2218
24076W        W40923   6.383   2.654   4.165 -0.1151  0.1110 -0.1320
24077W        W40924  16.614  11.745   2.734 -0.0482  0.1701  0.0821
24078W        W40925  15.385  13.695   1.436  0.3155  0.0762 -0.0949
24079W        W40926   1.184   3.257  14.677 -0.1289  0.2497  0.0318
24080W        W40927   7.286  14.764  13.241 -0.1442  0.1332 -0.1769
24081W        W40928  15.429   2.839   0.833 -0.3378 -0.1563  0.0541
24082W        W40929  15.384   4.193  10.244  0.0413  0.0680 -0.0944
24083W        W40930   4.821   1.879  11.033  0.3747  0.0259  0.0147
24084W        W40931  16.363   5.482  16.337  0.1181  0.0462  0.1150
24085W        W40932   9.128   7.625   4.571  0.2193 -0.0115 -0.1595
24086W        W40933   7.128   0.288  12.656  0.0804 -0.0567 -0.0469
24087W        W40934   0.615   8.088   1.557 -0.2102 -0.0615  0.0634
24088W        W40935   7.195   0.062   0.367  0.0009 -0.2492  0.1798
24089W        W40936   0.989   5.199  10.427  0.0074 -0.0115  0.2980
24090W        W40937   5.802   7.017   0.995  0.0311 -0.2030 -0.1431
24091W        W40938  15.806   6.982   1.694  0.1274 -0.0451 -0.1194
24092W        W40939  16.854  14.547  15.419  0.3364 -0.0723 -0.3252
24093W        W40940  13.861  17.216  13.636  0.3124 -0.0847 -0.0205
24094W        W40941  15.032  18.119   3.730  0.2421  0.1584 -0.0248
24095W        W40942  15.982  17.023  15.107  0.0289  0.0727  0.1471
24096W        W40943  15.598   4.140  11.763 -0.0741 -0.0729  0.4309
24097W        W40944  15.081   0.637   4.431  0.0085 -0.1372 -0.0377
24098W        W40945  11.745   7.918  15.178  0.1313  0.0857  0.1045
24099W        W40946   0.272  10.442   4.685  0.0494 -0.1422  0.0907
24100W        W40947   8.283   4.120  14.798  0.4503  0.0292  0.0848
24101W        W40948   9.378   8.060   1.587 -0.0618 -0.0684  0.2892
24102W        W40949  15.415  17.877   0.352  0.1128  0.0711 -0.3060
24103W        W40950   0.999  10.074  14.732  0.3805  0.0634 -0.1309
24104W        W40951   4.005  11.612   3.701 -0.1941  0.3309 -0.0632
24105W        W40952  11.431   9.870  15.748  0.2314  0.0590  0.0058
24106W        W40953   0.523  12.769  14.075  0.2841  0.1782  0.1403
24107W        W40954   4.311   8.407  11.176 -0.0230 -0.1189  0.1172
24108W        W40955   5.275   9.765  16.197 -0.1516  0.1581  0.1082
24109W        W40956   1.307   4.615  13.805  0.5848 -0.1628  0.0487
24110W        W40957  16.874   6.133  10.880  0.0789 -0.3375  0.2504
24111W        W40958   1.397  15.347   2.243 -0.1015  0.2913 -0.2705
24112W        W40959  15.730  10.012  12.312  0.1369  0.0245  0.0521
24113W        W40960   4.812  13.942   1.888 -0.0133 -0.2074 -0.0157
24114W        W40961   8.532   8.553  11.952  0.1527 -0.0518  0.0862
24115W        W40962   4.058  11.896   5.269  0.4888 -0.0244 -0.1895
24116W        W40963   7.873   9.156   0.778  0.2355 -0.3001  0.0676
24117W        W40964   6.283  18.024   0.333 -0.4202 -0.1720 -0.0328
24118W        W40965  16.665  10.405   2.137  0.0748  0.0080 -0.1126
24119W        W40966   7.649  14.605  15.147  0.0469  0.0012 -0.1976
24120W        W40967   7.128  16.152   5.360 -0.0005  0.1546  0.1616
24121W        W40968   1.981   1.538   4.254 -0.3092  0.1609  0.0875
24122W        W40969   7.580  14.523  13.610 -0.3808 -0.1914 -0.1143
24123W        W40970  12.715  14.719   3.896 -0.0787  0.2955 -0.1463
24124W        W40971  17.581  10.515  12.801 -0.1613 -0.0128  0.0611
24125W        W40972   8.894  17.597   0.838  0.1615 -0.2914  0.1496
24126W        W40973   4.220   9.012   4.756  0.1582 -0.0363 -0.3067
24127W        W40974   5.667  16.154  11.142  0.0754  0.0964 -0.1688
24128W        W40975   7.763  12.854  13.838 -0.0726 -0.3602  0.3337
24129W        W40976  17.435   1.483  14.922  0.2255 -0.1898 -0.0237
24130W        W40977   2.419   5.114  14.447 -0.0896 -0.1310 -0.0160
24131W        W40978   2.592   9.954  11.019  0.0534 -0.0042 -0.0388
24132W        W40979  14.471   4.202   4.536  0.1785 -0.1870 -0.2705
24133W        W40980   3.515  13.066   5.304 -0.2715 -0.0151 -0.0122
24134W        W40981   6.333   1.362   1.654 -0.0874 -0.1328 -0.1878
24135W        W40982   2.965   0.872   5.469  0.1113 -0.0639  0.2791
24136W        W40983  16.673   2.101   4.424  0.0955 -0.1172  0.2632
24137W        W40984   0.307   1.705  14.429  0.0288 -0.0853  0.0837
24138W        W40985  16.665  18.047  16.095 -0.2330  0.0043  0.0695
24139W        W40986  10.519  17.851  15.792 -0.2421  0.1388 -0.2463
24140W        W40987   6.936   7.350  16.298 -0.1001  0.1887  0.1746
24141W        W40988   3.510  14.053  11.812  0.1330 -0.4284 -0.0938
24142W        W40989   3.873  15.975  12.643 -0.4508 -0.1012 -0.4161
24143W        W40990  13.763  14.569   1.557 -0.0197  0.0590  0.1667
24144W        W40991  15.048  10.206   0.436  0.2409 -0.1986 -0.0499
24145W        W40992  12.143   4.695   0.810  0.0678  0.2664 -0.5661
24146W        W40993   1.541   2.766   2.201  0.1945 -0.0494  0.3139
24147W        W40994   8.777   3.685  14.201  0.1979 -0.3753  0.0598
24148W        W40995   6.999   1.505   0.240  0.0037  0.0832  0.2734
24149W        W40996  14.932  13.543  11.748 -0.2804  0.2740 -0.3199
24150W        W40997   3.688   4.804   1.476  0.2736  0.3368 -0.0593
24151W        W40998  16.359   0.236   0.873  0.2915  0.0028 -0.2981
24152W        W40999   0.219   1.079  11.170 -0.1433 -0.0246 -0.1335
24153W        W41000   4.676   8.130  16.345 -0.0450  0.1923  0.1976
24154W        W41001   1.193   4.748  14.612  0.1648  0.1120  0.2072
24155W        W41002  10.932   7.447  15.091  0.3317 -0.2610  0.2309
24156W        W41003  12.528   4.766  13.596 -0.3364  0.2731 -0.1056
24157W        W41004   4.177  13.022  12.932  0.0320 -0.2432 -0.0408
24158W        W41005   5.993  11.186   5.781 -0.0105  0.2967  0.0528
24159W        W41006   6.689   9.701   2.212 -0.1488 -0.0328 -0.2490
24160W        W41007  15.064   0.351   4.975 -0.0100 -0.0136 -0.0412
24161W        W41008   6.281  12.953   2.831 -0.0900 -0.1911 -0.1722
24162W        W41009   8.234  15.723   4.130 -0.4424 -0.0860  0.0374
24163W        W41010  11.812   5.379  14.021 -0.5187 -0.4814  0.2599
24164W        W41011  13.486  16.488   1.249  0.0076  0.1109 -0.1211
24165W        W41012  13.192  16.266  15.184 -0.1761 -0.3394  0.0686
24166W        W41013  16.285  14.510  13.668  0.0744  0.1656 -0.2156
24167W        W41014  13.582  13.609   0.574  0.1662  0.1940 -0.2421
24168W        W41015  17.944   7.210   1.716 -0.0966 -0.0426  0.2447
24169W        W41016  10.649  11.301   2.120 -0.0966  0.2245  0.0052
24170W        W41017   3.769   0.428   4.979 -0.0506  0.2016  0.4618
24171W        W41018  16.260   3.305  13.307  0.2211 -0.0914 -0.0133
24172W        W41019   1.543  17.995   0.517 -0.0823 -0.0510 -0.3904
24173W        W41020   7.346  10.653   5.303  0.0867 -0.4613 -0.2548
24174W        W41021  12.632   2.550  14.111  0.1140 -0.1325  0.1144
24175W        W41022  15.130  13.725   2.642 -0.1669  0.0197 -0.0987
24176W        W41023  12.895  10.388   5.672  0.0351 -0.0709 -0.0703
24177W        W41024  10.471   8.032  13.855 -0.0543 -0.1853  0.0231
24178W        W41025  11.379   2.988  14.570 -0.2356 -0.2293 -0.1322
24179W        W41026   1.387   6.706  14.601  0.3058 -0.0502 -0.2171
24180W        W41027  17.458   2.567  13.812  0.0524  0.0492 -0.0197
24181W        W41028   2.768  18.305  12.528 -0.0128  0.3893  0.2519
24182W        W41029   5.041   3.984   1.857  0.0471  0.0876  0.0901
24183W        W41030   6.330   2.618  11.327 -0.0189  0.1813  0.1219
24184W        W41031   1.292   6.971  13.352 -0.1040 -0.0061 -0.1357
24185W        W41032  12.190   1.831  15.172  0.1199  0.0757  0.1107
24186W        W41033   0.814   0.123   4.998  0.1983  0.2303  0.1379
24187W        W41034  13.182   7.973   1.610 -0.1219 -0.0291 -0.0085
24188W        W41035  15.792  10.440  14.931 -0.0064  0.0328 -0.0847
24189W        W41036  12.584  16.048  12.968 -0.0469  0.0925  0.0093
24190W        W41037  16.807  10.182   3.748  0.0481  0.0519 -0.2167
24191W        W41038  14.606   9.205   1.920  0.2115  0.2210  0.1256
24192W        W41039   6.107  13.478  13.111  0.0259 -0.2573  0.0713
24193W        W41040  14.772   9.766  12.461 -0.3570  0.0927 -0.0155
24194W        W41041  13.080   0.939  12.559  0.0218  0.1648 -0.0483
24195W        W41042   3.565   2.970   5.037  0.0009  0.3167 -0.2209
24196W        W41043   0.629   4.627  13.889 -0.1085  0.1113  0.1081
24197W        W41044  11.958   5.765  11.167 -0.0915  0.1460  0.0800
24198W        W41045  15.374  14.643   4.509  0.0287  0.3424  0.1094
24199W        W41046   1.009  16.735  12.668 -0.1490  0.3235 -0.2498
24200W        W41047   8.455  11.695   1.706  0.1993 -0.0933  0.1385
24201W        W41048   3.438   9.070   0.989  0.0237 -0.0419  0.0311
24202W        W41049   1.902   3.957   4.381 -0.1635  0.0135  0.2611
24203W        W41050   4.550  16.113   3.067 -0.0425 -0.1175  0.0518
24204W        W41051   0.387   8.380  12.964  0.2953 -0.0096  0.2759
24205W        W41052   9.035  16.717  15.006  0.1184 -0.1889  0.1067
24206W        W41053   3.646  14.749  13.909 -0.2851 -0.2428 -0.4145
24207W        W41054   7.152   2.627  11.617  0.0456  0.0886  0.1047
24208W        W41055   7.935   3.834   4.824  0.2480 -0.1299  0.2786
24209W        W41056   6.395  12.953  12.141  0.0490 -0.1751  0.1584
24210W        W41057  12.389   3.538  11.732 -0.2381  0.3356 -0.1535
24211W        W41058  17.336  14.905  15.591  0.0465  0.1038 -0.1521
24212W        W41059  11.730   5.084   2.108  0.1277 -0.0940  0.1681
24213W        W41060   9.396   8.202   4.015 -0.1031 -0.0777 -0.2279
24214W        W41061  13.237   8.046   2.954 -0.0782 -0.1055 -0.2036
24215W        W41062  10.686  12.277  11.711  0.1407 -0.0067  0.0355
24216W        W41063  11.789  11.296   2.470 -0.3823 -0.0377  0.2792
24217W        W41064   7.476   7.868   0.613 -0.1935  0.0465 -0.0630
24218W        W41065   4.085   7.331  14.139 -0.1942 -0.3747 -0.2773
24219W        W41066   9.904   4.304   0.951  0.1756 -0.0366  0.0803
24220W        W41067  11.820   2.561   0.785 -0.2654  0.3480  0.0240
24221W        W41068  13.794   2.448  11.514 -0.2964  0.0272 -0.0302
24222W        W41069  17.143  12.924   1.177 -0.0880 -0.0031  0.0796
24223W        W41070  13.236  14.192   3.925  0.2201 -0.1261  0.2419
24224W        W41071  12.952  14.212  15.154 -0.1467  0.1089 -0.4501
24225W        W41072  10.539   4.119   3.908  0.0221  0.1617  0.1155
24226W        W41073   0.653  16.651   2.081 -0.0951 -0.2884  0.0885
24227W        W41074   4.906   7.103   1.209 -0.4221  0.0761 -0.2958
24228W        W41075   0.559  13.231  13.868  0.1819 -0.0809  0.6165
24229W        W41076   9.646   6.942   3.609 -0.3744  0.0672 -0.0109
24230W        W41077  12.280  11.771  16.241 -0.0481 -0.0860  0.5193
24231W        W41078  16.769  17.040  12.840  0.2146  0.0756  0.2066
24232W        W41079  16.589  13.218   0.986  0.0467 -0.3762 -0.1846
24233W        W41080   5.028   3.683  11.901 -0.2741  0.0568  0.0119
24234W        W41081  18.157   9.504  14.581  0.2208 -0.4072 -0.2841
24235W        W41082   5.957   3.381   2.991  0.3913 -0.1566  0.1586
24236W        W41083  11.609  12.137  13.988  0.1949 -0.2921 -0.1448
24237W        W41084  14.635   4.718  13.838  0.2380  0.1968  0.1484
24238W        W41085   1.785   4.724   0.851 -0.0270 -0.3223  0.0160
24239W        W41086  15.467   1.750  14.417 -0.2266  0.4130 -0.0601
24240W        W41087  16.148   0.717  11.127  0.0575 -0.1010  0.0155
24241W        W41088  11.130   9.192   1.032  0.0167 -0.0114 -0.3785
24242W        W41089  14.131  17.151  11.663 -0.0221 -0.3015  0.2399
24243W        W41090  11.412  16.583   3.232 -0.1647  0.3322  0.2227
24244W        W41091   5.596   0.515   0.364 -0.2082  0.1996  0.0410
24245W        W41092  11.628   7.206  12.681 -0.1137 -0.0290  0.1433
24246W        W41093  16.290   6.751  14.019 -0.0103  0.1830  0.1913
24247W        W41094  12.004   0.012  14.106  0.4451  0.0479  0.4005
24248W        W41095  14.147  13.715   0.471  0.1539 -0.0935  0.2478
24249W        W41096  12.244  16.830  15.555 -0.0688 -0.0541  0.1484
24250W        W41097  13.235  13.100   3.738 -0.0959 -0.0022  0.1283
24251W        W41098   3.613   2.905   0.656  0.0841  0.1793  0.0705
24252W        W41099   8.393   9.920  14.726  0.0592  0.1582  0.0740
24253W        W41100   5.410  11.008   3.786 -0.1283 -0.1621  0.2560
24254W        W41101  13.705   8.479   2.754  0.2471  0.0152  0.2527
24255W        W41102   6.337  17.928   2.936  0.1052  0.1048 -0.1378
24256W        W41103   7.684  13.085  14.532 -0.0397 -0.0851  0.1289
24257W        W41104  11.893  16.195   4.993  0.2117 -0.1144 -0.2331
24258W        W41105   0.053   8.066   5.128  0.1518  0.1791 -0.2154
24259W        W41106  10.158   8.400  11.746 -0.2271 -0.3441 -0.3270
24260W        W41107   4.710   7.576   2.059  0.0091  0.1986  0.2287
24261W        W41108  18.223   5.987   2.881 -0.2722  0.2061 -0.1465
24262W        W41109   7.625   6.534  13.812 -0.0153  0.1374 -0.1599
24263W        W41110  13.285   0.723  14.872  0.2270  0.2274 -0.1352
24264W        W41111  14.558  12.740   6.428 -0.0682 -0.1881  0.3561
24265W        W41112   4.841   7.119   3.990  0.0459 -0.0321 -0.0946
24266W        W41113   8.472   5.177   3.141  0.2022 -0.1256  0.1857
24267W        W41114  16.787  13.489  14.424 -0.0450  0.0759  0.1289
24268W        W41115  11.093   6.589  12.722 -0.2330 -0.1692 -0.4239
24269W        W41116   2.350  10.903  13.806 -0.0589 -0.1135 -0.0567
24270W        W41117  18.160  14.063  15.946 -0.3263  0.0082  0.0352
24271W        W41118  17.255   3.298  12.117 -0.0323  0.2368  0.0437
24272W        W41119   7.434  12.702   4.196 -0.0590 -0.2377 -0.1055
24273W        W41120   9.761   1.671   2.504  0.1198 -0.1902 -0.2012
24274W        W41121  10.469   0.832  14.098 -0.1778 -0.0330 -0.3686
24275W        W41122   6.777  12.724   3.499  0.0242  0.0040 -0.1185
24276W        W41123   7.350  10.884   3.352 -0.0379 -0.1522 -0.0049
24277W        W41124   6.769   3.042   2.494 -0.2606 -0.2651  0.2227
24278W        W41125   5.996  13.697  13.540  0.2443 -0.0196  0.0498
24279W        W41126   0.453  13.535   2.586  0.3605 -0.1350 -0.5992
24280W        W41127  16.123  12.856   6.100 -0.1271 -0.0373  0.0868
24281W        W41128   1.706   9.883   2.142 -0.2397  0.1948  0.1050
24282W        W41129   2.761   9.052  15.721 -0.0885 -0.1624 -0.1580
24283W        W41130   0.110  12.397  15.677  0.0118 -0.3468  0.1403
24284W        W41131  10.187  11.868   5.290  0.0779  0.0504  0.2219
24285W        W41132   2.227   1.714   0.626 -0.0076 -0.0967  0.2686
24286W        W41133  11.604  13.189  15.192  0.0376  0.2983 -0.1367
24287W        W41134   2.978   1.446  11.972  0.1490 -0.1322  0.1398
24288W        W41135  11.844   2.272  15.233 -0.3880 -0.1297 -0.0886
24289W        W41136  18.273  11.523   0.681 -0.2871 -0.0413  0.2558
24290W        W41137  15.728   3.784   4.106 -0.1509  0.1413 -0.1290
24291W        W41138  15.356   2.445   1.156  0.0144 -0.2634 -0.2606
24292W        W41139   3.293  11.535  15.390 -0.1709 -0.1749  0.0079
24293W        W41140   7.003   3.662   3.641  0.0018  0.0355 -0.3374
24294W        W41141  16.832   7.539   1.114 -0.0349 -0.0432  0.1091
24295W        W41142  10.029  12.517   5.751 -0.2276  0.3102  0.3253
24296W        W41143   2.929   9.469  11.546 -0.0588 -0.2829 -0.0493
24297W        W41144  11.804   5.134  13.435 -0.0835 -0.2068 -0.0220
24298W        W41145  15.744  12.278  13.406  0.2742 -0.0804 -0.1493
24299W        W41146   3.017  13.883   2.453 -0.0893 -0.0357 -0.1180
24300W        W41147  12.101   6.278   3.911 -0.0520  0.0687  0.0137
24301W        W41148   0.194   9.329  14.762 -0.2843 -0.2608 -0.1596
24302W        W41149   1.501   6.210  14.559 -0.0041 -0.0177  0.2517
24303W        W41150   0.179   8.044   1.164 -0.0878  0.1846  0.2331
24304W        W41151   8.939   1.485  12.840 -0.4275 -0.0813  0.0522
24305W        W41152  11.783  10.181  13.789  0.2385  0.1190  0.0290
24306W        W41153   8.064   2.503  16.235 -0.0786 -0.1573  0.1253
24307W        W41154  17.716   6.658   4.078  0.3195  0.0685  0.1441
24308W        W41155  17.821   5.959  13.923  0.0172  0.4210  0.0982
24309W        W41156   1.470  16.948  12.788  0.2851 -0.2355 -0.1710
24310W        W41157  11.182   0.378  11.514  0.3215  0.1141  0.2186
24311W        W41158   1.001   3.224  11.630 -0.1470  0.0566  0.0815
24312W        W41159  16.295   3.064   3.796  0.0569  0.1187  0.1155
24313W        W41160  12.671  12.813  12.411  0.2758  0.0316  0.1170
24314W        W41161  13.346   3.694   2.974 -0.0685  0.0954 -0.3961
24315W        W41162   5.771   3.023   3.403 -0.0351  0.3997  0.0211
24316W        W41163   0.610  14.336   1.635 -0.2010 -0.0095 -0.4818
24317W        W41164   1.004   0.032   4.564  0.0243 -0.2175 -0.1361
24318W        W41165   8.663   8.989   3.166  0.0938  0.1386 -0.3362
24319W        W41166   3.325  13.928  15.696  0.0558  0.0097 -0.0253
24320W        W41167   4.863  12.097  13.856  0.0317 -0.2121  0.0123
24321W        W41168  10.547   6.390  12.681 -0.0062 -0.5157 -0.1010
24322W        W41169  13.125   7.996   2.177 -0.0079 -0.2574 -0.2734
24323W        W41170  14.156  17.617   2.877 -0.1193  0.1707 -0.1337
24324W        W41171   7.252  13.654   2.630  0.0799  0.0650  0.2528
24325W        W41172   1.038   9.150  15.327 -0.2858 -0.0964  0.1396
24326W        W41173   5.138   8.864   2.046  0.0726 -0.0331  0.1043
24327W        W41174  15.112  10.693  13.451  0.5566 -0.0506  0.0049
24328W        W41175   1.612   1.915  12.489  0.1633  0.2444  0.3643
24329W        W41176  14.385   3.261   3.417 -0.0519 -0.0857  0.0673
24330W        W41177  17.170  16.242  16.093  0.0677  0.3164 -0.0049
24331W        W41178   4.174  12.843   0.456 -0.4364  0.0792  0.0511
24332W        W41179  10.160  11.766  13.768  0.4084 -0.2350  0.0445
24333W        W41180   3.991  17.878  15.575 -0.0427 -0.0929 -0.2797
24334W        W41181   1.413   6.006   3.554 -0.1282  0.1418  0.0364
24335W        W41182   0.256  13.808   1.893 -0.0945 -0.1874 -0.0177
24336W        W41183  15.140  13.136  12.692 -0.3482 -0.2155  0.1478
24337W        W41184   8.349   0.069  15.961 -0.0461 -0.0985 -0.1761
24338W        W41185  10.901   7.252   2.435 -0.3410  0.3149 -0.1070
24339W        W41186   7.506  10.989   5.918 -0.0262 -0.2233 -0.1928
24340W        W41187   7.380   3.158  12.371  0.0990 -0.0968  0.2259
24341W        W41188   4.282  11.248   5.828 -0.0374  0.1294  0.0146
24342W        W41189   6.474   5.644  12.661  0.1287 -0.0324 -0.2625
24343W        W41190  13.140  10.333  15.628  0.1767  0.2217 -0.0035
24344W        W41191   4.351   4.075  13.871 -0.0741  0.1151  0.1430
24345W        W41192   1.433   9.095   2.928 -0.0918  0.0118 -0.0228
24346W        W41193  16.077   6.191  13.606  0.3716  0.0775 -0.1554
24347W        W41194   4.433  12.931   3.768  0.0222 -0.1403 -0.1545
24348W        W41195   9.754  17.525   2.001  0.1245 -0.1209  0.1845
24349W        W41196  15.900   9.047  11.540 -0.1562  0.0379 -0.2473
24350W        W41197   7.911   4.322   0.649 -0.2279  0.0290  0.0446
24351W        W41198  11.738   7.608   2.354  0.1503  0.2284  0.0354
24352W        W41199   6.594  12.596   2.904 -0.0574  0.1295 -0.4395
24353W        W41200   3.444  17.321   1.996 -0.0231 -0.3214 -0.1698
24354W        W41201   4.426  13.785   1.518  0.2227 -0.1706 -0.1534
24355W        W41202  13.087   5.357  12.661 -0.0226 -0.1914 -0.0535
24356W        W41203   3.527   3.733   2.529  0.2816  0.2075 -0.0439
24357W        W41204  14.672  12.668  13.324  0.1196 -0.0179  0.1483
24358W        W41205   7.780   4.633   4.850 -0.1912 -0.0182  0.0100
24359W        W41206  14.322  17.657  14.880 -0.4416  0.1798  0.1033
24360W        W41207   0.408   5.010   0.559 -0.2069 -0.1723 -0.0318
24361W        W41208   1.837  12.748   2.771 -0.0597 -0.3309  0.0047
24362W        W41209  11.229   8.592  13.679  0.1352  0.2563  0.1556
24363W        W41210   9.470   9.099   0.296 -0.0754 -0.0503  0.3592
24364W        W41211  18.018  13.393  11.097  0.0966  0.0590  0.2848
24365W        W41212  14.964  18.159  14.474 -0.2938  0.0209  0.0537
24366W        W41213  12.423   9.550  11.290  0.0718  0.2746 -0.1675
24367W        W41214  16.772   4.710   0.451 -0.0637 -0.1634 -0.2114
24368W        W41215   8.471   4.468   2.382 -0.0835  0.0347 -0.0187
24369W        W41216   4.863   3.913   3.708  0.0739  0.2162  0.1250
24370W        W41217   6.878   1.461  13.653  0.0334 -0.0759 -0.2170
24371W        W41218   6.771   5.604   0.357 -0.0375 -0.0701  0.0455
24372W        W41219  14.275  10.508  12.138  0.3360 -0.1011 -0.1651
24373W        W41220   1.580   7.773  10.761  0.4123  0.3373 -0.0670
24374W        W41221   4.540   5.989  12.005  0.0141 -0.0627 -0.1931
24375W        W41222  15.792   6.530  12.252  0.1791 -0.0871  0.1870
24376W        W41223  12.534  11.862   2.437  0.1141  0.1338 -0.2794
24377W        W41224   7.658   2.431  14.759  0.1630 -0.2418 -0.1278
24378W        W41225  12.905  10.556  14.100  0.1340  0.1730 -0.0206
24379W        W41226  12.232   3.062   4.537 -0.1476  0.0053 -0.1606
24380W        W41227   7.726   9.993   0.481 -0.0216  0.0340  0.2813
24381W        W41228   6.411   6.498   5.460  0.2918 -0.1717 -0.1214
24382W        W41229  11.038   1.761  13.960 -0.1200  0.0947 -0.1798
24383W        W41230   5.483  14.374   2.757 -0.1050 -0.3170 -0.1006
24384W        W41231   2.159   6.679   1.271  0.2066  0.2221 -0.0534
24385W        W41232   7.023   4.064  13.449  0.2258  0.0297  0.1846
24386W        W41233  15.870   9.575  11.574 -0.1950 -0.0353 -0.2052
24387W        W41234   0.696   4.896   4.819 -0.0878 -0.2121 -0.3283
24388W        W41235   3.731  14.240   6.080 -0.0298 -0.0583 -0.0377
24389W        W41236   8.038  15.749  11.198 -0.3473 -0.1034  0.1189
24390W        W41237   8.362  17.728   1.711 -0.0344 -0.1217 -0.2347
24391W        W41238  14.143   3.412   2.937 -0.0875  0.1535 -0.0035
24392W        W41239   1.207  18.413   3.363 -0.1488 -0.0104 -0.1009
24393W        W41240   9.827   1.656  12.454 -0.1157 -0.4188  0.1649
24394W        W41241   7.927   9.508   3.934  0.0165 -0.1264 -0.0396
24395W        W41242  13.502  15.913   3.937 -0.1694  0.2191  0.0509
24396W        W41243   1.675  17.005   0.923 -0.1888  0.1164 -0.2304
24397W        W41244   2.305   6.485   1.767 -0.3447 -0.3519  0.0454
24398W        W41245   7.429   7.810   1.462  0.0052 -0.0005 -0.1165
24399W        W41246   2.655   3.754   4.155  0.1761  0.1292 -0.1174
24400W        W41247  16.354   8.981   0.844 -0.3036 -0.0276 -0.1070
24401W        W41248   5.001   2.956   0.639  0.0791 -0.1357  0.1350
24402W        W41249   1.746  16.958   1.967  0.2128  0.1030  0.1029
24403W        W41250  15.549   3.067  15.564  0.0180 -0.0887  0.1306
24404W        W41251   3.097  11.830   0.830 -0.2781  0.0541  0.4814
24405W        W41252  14.129  10.640   0.346 -0.1557 -0.2854  0.1294
24406W        W41253  17.111  15.039  13.675  0.0909  0.0290  0.0296
24407W        W41254   6.122   7.693   0.126 -0.2068  0.0698 -0.1323
24408W        W41255  15.440  10.992   5.147 -0.0029 -0.1305 -0.0548
24409W        W41256  15.281  11.595  14.392  0.1398 -0.0115 -0.1265
24410W        W41257   7.679   9.953   4.807 -0.0351  0.1875  0.2467
24411W        W41258   5.396   4.010  12.307 -0.2153  0.1617  0.1035
24412W        W41259   7.242  10.024  15.650 -0.4282 -0.1168 -0.1027
24413W        W41260  11.235   2.701  14.162 -0.3529  0.4013 -0.0473
24414W        W41261  13.895  13.592   3.330 -0.4758 -0.0037 -0.1291
24415W        W41262   0.501   6.798   4.409 -0.2105 -0.2599 -0.0256
24416W        W41263   3.097   8.653   2.554 -0.1786  0.1968  0.0036
24417W        W41264  12.396   3.055   3.169  0.3199 -0.0345 -0.0532
24418W        W41265  18.035   3.012  15.132 -0.1162 -0.1376 -0.0613
24419W        W41266   1.631   7.104   2.511  0.3935 -0.0661  0.3217
24420W        W41267  10.281   1.779   2.593  0.2512 -0.0961 -0.1539
24421W        W41268   9.544  12.598   2.279  0.0462  0.2664  0.3640
24422W        W41269  10.878   3.316   2.593 -0.2686  0.0613 -0.0764
24423W        W41270  12.264   8.506   4.503 -0.1504  0.1577  0.3292
24424W        W41271   0.259  14.191  11.927  0.0595 -0.1544 -0.1911
24425W        W41272  17.362  10.546   4.561 -0.1419  0.0252  0.4097
24426W        W41273  13.451   1.185  14.848  0.2989 -0.0799 -0.0436
24427W        W41274  16.520  11.839  16.298 -0.1587  0.1077  0.0770
24428W        W41275   9.100  10.906   2.003  0.2615 -0.0959  0.0217
24429W        W41276   2.615   2.333   4.418  0.1303 -0.3709 -0.3565
24430W        W41277   0.797   5.253   3.370 -0.2035 -0.2960 -0.1242
24431W        W41278   5.826  12.513  15.227 -0.0935  0.0193 -0.0222
24432W        W41279   0.844  16.958   1.361 -0.3127  0.2958 -0.0544
24433W        W41280  12.852   9.911   0.972 -0.2497  0.1100  0.0669
24434W        W41281   9.250   7.086   3.285 -0.2717 -0.1157 -0.2602
24435W        W41282  16.807  14.979   3.152  0.4154  0.0592 -0.0379
24436W        W41283  14.314  11.882   5.360 -0.1650  0.2517  0.1361
24437W        W41284  14.095   1.313   2.488  0.0882 -0.2733 -0.1064
24438W        W41285   0.929  16.831  15.219  0.1123 -0.1385  0.1388
24439W        W41286   7.852  14.920   0.518  0.1136  0.1963  0.0942
24440W        W41287  13.991  15.203  11.686  0.0310 -0.2108 -0.1519
24441W        W41288  13.251   1.567   3.988  0.1281  0.2302 -0.0106
24442W        W41289   5.826   9.802   3.351  0.0537  0.5119  0.0588
24443W        W41290   1.283   3.738   0.779  0.2412 -0.0388  0.0063
24444W        W41291  14.303   1.836  11.479  0.2870 -0.0517  0.2651
24445W        W41292   2.667   0.806  15.539  0.0390 -0.0004 -0.3312
24446W        W41293  10.325  15.001   1.521  0.0995 -0.1806  0.3445
24447W        W41294  10.947  12.850  12.872 -0.1295 -0.1050 -0.0182
24448W        W41295   9.739   9.512  11.781  0.0361 -0.1351 -0.0986
24449W        W41296   6.198   3.604   0.367 -0.1742 -0.0034  0.1205
24450W        W41297   9.023   8.281   0.044 -0.0399  0.1255  0.2647
24451W        W41298  15.166   8.312   5.483  0.0725 -0.0208 -0.1289
24452W        W41299   4.944   2.848   3.735 -0.2658 -0.3337  0.2266
24453W        W41300   3.059  18.219  11.493  0.0584  0.0770  0.3550
24454W        W41301  17.168   2.067  13.084 -0.2100  0.0301 -0.0566
24455W        W41302   5.448  17.188   1.643 -0.1247  0.0176 -0.1204
24456W        W41303  16.661  13.355   5.950 -0.3190  0.0542  0.2668
24457W        W41304   2.873   2.276  15.523  0.0079 -0.4061  0.0223
24458W        W41305   6.747  14.695   3.862  0.2515 -0.0294 -0.4574
24459W        W41306   6.808   1.581   2.497 -0.2398 -0.1796 -0.2010
24460W        W41307  13.323  17.821   0.527 -0.1406 -0.1626  0.0213
24461W        W41308  12.536   1.380  14.902  0.0615  0.1375 -0.0678
24462W        W41309   7.177  14.579  14.490  0.2403 -0.3083 -0.0514
24463W        W41310  10.131   2.468  15.433  0.3955 -0.1816  0.0543
24464W        W41311   4.469  10.713   5.751  0.1131 -0.2597 -0.0629
24465W        W41312  10.028   9.275   1.605 -0.2189  0.3815  0.0059
24466W        W41313  18.266  16.399  13.540 -0.0643  0.0157  0.2296
24467W        W41314  11.461   6.768  15.233 -0.0699 -0.1894 -0.1058
24468W        W41315   8.317   8.132   4.892  0.2032 -0.0737  0.2295
24469W        W41316  13.511  16.650   3.871  0.0686 -0.2387  0.1709
24470W        W41317  13.552   0.631   3.498 -0.2047  0.4002  0.0390
24471W        W41318   0.829  14.704  13.135  0.0741  0.0037  0.2650
24472W        W41319  15.205   9.321  16.302 -0.1075  0.2689 -0.1941
24473W        W41320   6.375  13.502  16.015  0.2581 -0.0832 -0.1271
24474W        W41321   6.955   8.319   5.523  0.0781  0.0704  0.0631
24475W        W41322  17.444  14.754  12.259  0.1257 -0.3556  0.1720
24476W        W41323   9.216  16.405  13.169 -0.0135 -0.0717  0.0876
24477W        W41324   9.025   5.421   3.148  0.1228 -0.0058 -0.4057
24478W        W41325   0.287  16.468  14.929 -0.0038  0.0856 -0.0350
24479W        W41326   9.929  14.762   2.161 -0.3187  0.0730  0.1345
24480W        W41327  17.321  16.923   1.894  0.1641 -0.2541 -0.1130
24481W        W41328  18.165   2.910   4.405  0.2322  0.1770 -0.0383
24482W        W41329  10.937  13.340  12.710 -0.1868 -0.0591 -0.1079
24483W        W41330  11.749   5.735   5.243 -0.0372 -0.2256  0.0017
24484W        W41331   0.697  10.929   4.661  0.3590  0.0079 -0.0441
24485W        W41332  12.245  13.399   2.640 -0.1334 -0.1156  0.1957
24486W        W41333   3.702   3.754   3.866  0.0230 -0.2308 -0.1552
24487W        W41334  13.021   4.426  12.444  0.0792  0.0817 -0.1097
24488W        W41335   6.367   8.150   2.533 -0.0046  0.1157  0.3163
24489W        W41336  15.577   0.584  16.089  0.0155  0.0445  0.1342
24490W        W41337   5.993   7.787   1.920 -0.0190 -0.0034 -0.1622
24491W        W41338   8.842  11.540   0.742 -0.0871 -0.2025 -0.0965
24492W        W41339  11.768   0.794  13.351  0.1751  0.0678 -0.1225
24493W        W41340   4.689  13.298   2.879  0.0442  0.0503 -0.0910
24494W        W41341  10.289   7.133   1.519  0.0661  0.3540  0.3995
24495W        W41342   0.626  14.844   2.497 -0.3449  0.1226 -0.0658
24496W        W41343   9.735   7.818   3.638  0.0043  0.1592  0.1447
24497W        W41344  13.865  10.158  15.877  0.1951  0.0396  0.0203
24498W        W41345   9.505   8.864   2.694  0.0318  0.1505 -0.0363
24499W        W41346   9.528   0.492  15.858  0.1447 -0.0483 -0.0240
24500W        W41347  10.257   8.503  12.466  0.3080 -0.1582  0.0712
24501W        W41348  16.038   6.865   0.866  0.0516  0.1180  0.1275
24502W        W41349  12.140   6.132   2.215  0.3707 -0.0385  0.0991
24503W        W41350  15.286   8.468   4.942  0.2745  0.1759  0.1605
24504W        W41351  14.282   0.038   0.673 -0.0015  0.1336  0.1513
24505W        W41352  16.430  17.944   4.122 -0.2219  0.0911 -0.0165
24506W        W41353  14.511   2.777  12.138 -0.0132  0.0304 -0.1091
24507W        W41354   6.851  15.294   3.691  0.0011  0.0073  0.2037
24508W        W41355  18.159   5.678  14.249 -0.0290  0.1667  0.0863
24509W        W41356   6.338   6.971   6.164  0.0119  0.1240  0.2137
24510W        W41357  16.396  18.166   6.352 -0.0023  0.3417  0.1164
24511W        W41358   7.693  11.233   3.237  0.0886 -0.0466  0.1322
24512W        W41359  10.623   8.971  15.857  0.3284 -0.0393 -0.1438
24513W        W41360   9.767  13.211   0.166  0.2732 -0.1801  0.0002
24514W        W41361  10.733  17.837   3.771 -0.0417  0.0742  0.0400
24515W        W41362   7.467  13.735   3.068 -0.1538  0.1778  0.1254
24516W        W41363  15.363  18.053   4.116  0.1960 -0.3168  0.0557
24517W        W41364  11.520  17.172  14.887 -0.2525  0.1275 -0.1022
24518W        W41365  11.644   8.098   0.579  0.4112 -0.1328 -0.0701
24519W        W41366   0.825   2.227  12.511 -0.0837  0.2826 -0.0327
24520W        W41367   2.942   0.715  12.665  0.0411  0.0622 -0.1788
24521W        W41368   4.116  18.300   5.245 -0.2729 -0.0183 -0.2038
24522W        W41369   9.597   3.334  12.695  0.0210  0.2363  0.3493
24523W        W41370  10.969   0.711  13.958  0.0176 -0.0340  0.0549
24524W        W41371   3.163  17.261  15.793 -0.1440  0.0638  0.1162
24525W        W41372  12.654   3.636   2.021  0.1428  0.0028  0.2007
24526W        W41373   0.685   6.545  16.089  0.0444  0.0320  0.0796
24527W        W41374  10.257  16.288   3.685 -0.3105  0.2574 -0.0367
24528W        W41375   0.661  11.378  14.481 -0.0906 -0.1226  0.0322
24529W        W41376  14.835  15.562  15.883 -0.2656  0.1059  0.1737
24530W        W41377  11.317  14.145  13.970 -0.0160  0.2605  0.1036
24531W        W41378  12.887   8.058  13.319 -0.0863 -0.0929 -0.3321
24532W        W41379  13.181  17.607   2.032  0.2912 -0.0551 -0.1077
24533W        W41380   4.324   5.019   4.299  0.0936  0.1796 -0.0162
24534W        W41381   4.474  15.612   3.513 -0.4785  0.1487  0.1643
24535W        W41382   4.206   1.733   3.989 -0.1161  0.1432  0.1611
24536W        W41383  16.515  10.086   4.156  0.4352 -0.0275  0.0390
24537W        W41384  11.126  17.149   2.594 -0.0962  0.1862 -0.0558
24538W        W41385   7.143  17.700  16.013  0.2320 -0.5925  0.0710
24539W        W41386   9.793  15.557   0.834  0.1188 -0.0154  0.0107
24540W        W41387   8.999  15.290  16.054  0.1993  0.0228 -0.2170
24541W        W41388  11.743  17.311   5.930  0.1189 -0.0154 -0.0219
24542W        W41389   7.212  12.631   5.754 -0.1296 -0.3422  0.0117
24543W        W41390   2.585  11.604   0.149 -0.0210 -0.4065  0.2049
24544W        W41391   7.959  13.767  15.132  0.0048 -0.0205 -0.0441
24545W        W41392   6.206   8.556   1.777  0.3526 -0.0813 -0.0781
24546W        W41393   6.289   2.149  11.364  0.1627  0.2999  0.0532
24547W        W41394  17.945  11.158  15.852 -0.0463  0.1844  0.0991
24548W        W41395   1.838  11.947   2.934 -0.1807 -0.0288  0.1300
24549W        W41396   1.219  13.189  15.229  0.0232 -0.1078  0.1757
24550W        W41397  15.315   8.901  11.602 -0.1579 -0.0157  0.0872
24551W        W41398   5.485   6.300  15.540  0.0029 -0.0061  0.0051
24552W        W41399   2.118   7.728   3.910 -0.0851 -0.0089 -0.0397
24553W        W41400  11.377   3.064  10.512 -0.1774 -0.1183 -0.0969
24554W        W41401  13.879  14.383   2.575  0.2558 -0.0492 -0.1838
24555W        W41402  18.249  10.628  13.711 -0.1074  0.2824  0.1024
24556W        W41403   0.295  15.691   4.859 -0.3615 -0.0635 -0.2736
24557W        W41404  17.811   5.717  12.013  0.1059 -0.3453  0.0851
24558W        W41405   1.000  10.865   2.040  0.0036  0.2801 -0.3244
24559W        W41406  15.790  15.626   4.275 -0.0001  0.1134 -0.0011
24560W        W41407   9.526  14.140   1.192 -0.1049  0.1120  0.1041
24561W        W41408  10.875   1.175   2.914 -0.1268  0.0047 -0.0145
24562W        W41409   1.050   0.784  13.999 -0.3279 -0.0592  0.0585
24563W        W41410   4.960   0.122  15.036 -0.2977  0.0546  0.2166
24564W        W41411  11.668  14.055  12.495 -0.1468  0.1898 -0.2852
24565W        W41412  16.873   8.092  14.665 -0.0313  0.0560  0.1127
24566W        W41413   2.263  11.459   1.172  0.1337 -0.1854  0.2132
24567W        W41414  11.486  12.232  16.113 -0.0271 -0.1148 -0.1233
24568W        W41415  12.589  16.305   0.099 -0.3613 -0.0258  0.0812
24569W        W41416   3.773  12.956  13.429 -0.3960 -0.0024 -0.0197
24570W        W41417  17.302   5.609   4.219 -0.1538 -0.0017  0.0349
24571W        W41418  13.016  11.170  14.664 -0.1786 -0.0938 -0.1761
24572W        W41419  16.155  11.170   3.298  0.2954 -0.1740  0.1341
24573W        W41420  10.892  10.203  11.544 -0.1649 -0.2914 -0.4049
24574W        W41421   2.872  18.034   3.440  0.1255 -0.0782 -0.1814
24575W        W41422  10.652  16.057  15.318  0.0915 -0.0867  0.2088
24576W        W41423   2.457   7.057   1.456 -0.0887 -0.0597  0.1136
24577W        W41424   7.822  18.160   0.857 -0.2860  0.0926  0.2951
24578W        W41425   4.635   6.210  10.891 -0.3546  0.0137 -0.0088
24579W        W41426   7.274   5.533  13.382  0.2015 -0.1985 -0.0632
24580W        W41427   5.470  11.438   5.814 -0.1723 -0.2270 -0.0507
24581W        W41428  10.166  12.691   6.629 -0.2003 -0.1163  0.3154
24582W        W41429   9.944   3.045   4.108  0.1265  0.1104  0.0129
24583W        W41430  13.772   0.005   5.036 -0.1150  0.0154  0.1961
24584W        W41431   7.982  14.808  15.975  0.1040  0.0988  0.0621
24585W        W41432  12.079  17.583   5.465  0.0114  0.1928 -0.2200
24586W        W41433  15.472   8.667  12.602  0.0603 -0.0024  0.1712
24587W        W41434   1.255  13.742   1.559 -0.2350  0.0927  0.1093
24588W        W41435  18.070  15.159  16.187 -0.1525  0.0513  0.1550
24589W        W41436  17.258  17.375  14.057 -0.2121  0.0799 -0.2220
24590W        W41437   1.484  17.221  12.190  0.1835  0.0272 -0.1552
24591W        W41438   1.114   3.357  15.172  0.3266  0.1034  0.1797
24592W        W41439   2.159   9.363  15.388  0.0037  0.0498  0.2542
24593W        W41440  14.164  12.149  14.236  0.1774 -0.1641 -0.0761
24594W        W41441   0.837  18.211   2.451 -0.0010  0.2252 -0.1496
24595W        W41442   5.096   8.334   1.867 -0.0145 -0.0910  0.0914
24596W        W41443  10.727   7.000   2.927 -0.0858 -0.0039  0.0234
24597W        W41444  17.657   0.804   3.313 -0.1535 -0.1829 -0.4953
24598W        W41445  10.952  15.014  12.457  0.3875  0.0253 -0.3732
24599W        W41446   8.591   2.446   4.111 -0.0087  0.2023  0.0952
24600W        W41447   1.250   8.416   2.380 -0.2945  0.0303  0.0065
24601W        W41448  14.815  10.826   5.458 -0.1697 -0.1233  0.2566
24602W        W41449   1.410  11.255   2.080  0.2074 -0.0805  0.0536
24603W        W41450   1.801   0.407  15.051  0.3181 -0.2923  0.0994
24604W        W41451   2.424   5.937  15.804  0.3012 -0.4245 -0.0646
24605W        W41452   2.210   9.848   1.884  0.1832  0.1444 -0.1264
24606W        W41453  12.202  15.473  15.968 -0.0060  0.1053 -0.0906
24607W        W41454  13.509  10.443  14.984 -0.1557  0.0497  0.0390
24608W        W41455  17.094   5.159   4.245 -0.3720 -0.1847  0.0876
24609W        W41456   3.250  12.174   5.618  0.2374 -0.0238  0.2704
24610W        W41457   0.691  12.260  11.722  0.0525 -0.0367 -0.0150
24611W        W41458  12.389   1.768  13.967 -0.0201 -0.2329  0.0996
24612W        W41459  12.063   6.031  14.827  0.1627 -0.0882  0.2554
24613W        W41460   5.523  14.922  12.003  0.0705 -0.0837  0.0802
24614W        W41461  10.120   0.501   4.935 -0.1977  0.0452 -0.3990
24615W        W41462  16.630   8.339  13.830  0.0570 -0.5000 -0.3573
24616W        W41463   2.214   1.153   2.861 -0.0018 -0.0177  0.0454
24617W        W41464  16.286   1.168  14.694 -0.1607 -0.0626 -0.0672
24618W        W41465  15.481   9.879  11.875 -0.1355 -0.3019 -0.2120
24619W        W41466  14.267   1.607   4.771  0.0299  0.1259 -0.0759
24620W        W41467   0.547   2.713  12.075 -0.0071  0.0058  0.2136
24621W        W41468   0.300  16.585  11.813  0.0661  0.5250 -0.1249
24622W        W41469   5.464  15.953  12.388 -0.1730 -0.3225  0.0133
24623W        W41470  12.432   4.883  15.939 -0.0126 -0.2425  0.2791
24624W        W41471   6.413  17.134   0.323 -0.2516 -0.0828  0.1401
24625W        W41472   3.217   5.679  15.152 -0.2307  0.0571 -0.0017
24626W        W41473  13.437   2.841  13.861  0.0136 -0.0550  0.1763
24627W        W41474  11.332  13.265   2.227 -0.1681  0.0485  0.1153
24628W        W41475   3.327  14.135   0.329  0.2035  0.4666  0.3470
24629W        W41476   3.402   1.275  12.988 -0.3180  0.0840  0.0499
24630W        W41477   9.095   4.284  11.877 -0.2471 -0.1225  0.0411
24631W        W41478   7.971  10.241  11.999 -0.0685  0.0603 -0.0363
24632W        W41479  11.745  16.464  12.331 -0.0185  0.1381  0.0091
24633W        W41480  15.992   6.075   5.362  0.2762  0.0292 -0.2035
24634W        W41481  14.286   1.794   2.343  0.0135  0.1905 -0.0162
24635W        W41482  13.965  12.763  14.688  0.0672 -0.0495  0.0709
24636W        W41483  18.187  10.361   5.406  0.0892 -0.1377  0.0557
24637W        W41484  10.036  14.055   1.196 -0.0399  0.2676  0.4000
24638W        W41485  13.388   9.199  11.370 -0.1567 -0.1737  0.3249
24639W        W41486   8.370  14.244  12.791 -0.0447 -0.2572  0.2659
24640W        W41487   1.341  10.641   3.753  0.2786 -0.0748 -0.5205
24641W        W41488  14.405   8.234   2.041 -0.0170  0.0203 -0.1126
24642W        W41489   1.631   6.344  16.007 -0.1624 -0.0021  0.1230
24643W        W41490   3.352   6.447   2.091  0.0018  0.1879 -0.0690
24644W        W41491   8.287   6.008   0.630 -0.1763  0.0222 -0.2071
24645W        W41492  16.014   0.470  14.430 -0.2976  0.1056 -0.0884
24646W        W41493  12.586   9.129   2.670  0.1129  0.3057  0.0021
24647W        W41494  16.062  17.819   5.446  0.1550 -0.0852 -0.1824
24648W        W41495   8.254  16.191   2.082  0.0782 -0.2025  0.4177
24649W        W41496   2.669   8.419  14.386  0.1465  0.0535 -0.0890
24650W        W41497   4.596   3.911  16.319 -0.1854  0.0104 -0.2439
24651W        W41498  16.433   3.265  11.836  0.0316 -0.0099 -0.1120
24652W        W41499  17.449  16.415  14.000 -0.0904 -0.2940  0.1913
24653W        W41500  11.932  14.489  12.280 -0.2238  0.1552  0.0225
24654W        W41501  13.664   0.481  13.663 -0.1228 -0.1690 -0.0534
24655W        W41502   1.319   4.875   9.772 -0.2427  0.0094 -0.4237
24656W        W41503  17.827   1.480  16.278  0.3355 -0.1912 -0.1168
24657W        W41504   4.883   5.208  14.612  0.2398  0.2705  0.3064
24658W        W41505   0.443   5.343   2.702  0.2231 -0.0108 -0.0167
24659W        W41506  16.727  13.327  13.586  0.2455  0.0099  0.3396
24660W        W41507   1.997   8.887  12.518 -0.1185 -0.1604 -0.1095
24661W        W41508  11.149   8.993  15.853  0.2574  0.0978  0.1589
24662W        W41509   5.288  15.821   1.247 -0.2043 -0.2234 -0.3342
24663W        W41510  10.078  17.034  13.894 -0.1451  0.0254  0.1870
24664W        W41511  16.775   3.342   1.363 -0.0852  0.0860 -0.2060
24665W        W41512   7.017  14.298   5.134 -0.3168 -0.0644 -0.0559
24666W        W41513  10.531   5.151   4.038  0.1545  0.1449  0.1037
24667W        W41514   0.341  16.706  14.412 -0.0448 -0.1674 -0.0123
24668W        W41515  16.429  12.253   1.004  0.0663  0.0362 -0.2299
24669W        W41516   3.464   7.103  13.550 -0.2145 -0.0201  0.0124
24670W        W41517  12.538   9.965  15.141  0.3270 -0.0685  0.2052
24671W        W41518   4.549  13.199   0.434  0.0625 -0.1914  0.0158
24672W        W41519   4.907   2.181   5.422  0.0473  0.0871  0.2239
24673W        W41520  15.009  15.431   3.817  0.0080 -0.0176 -0.1983
24674W        W41521  13.215  18.161   2.076 -0.0296  0.3769  0.0173
24675W        W41522  11.964  11.239   4.836 -0.1848 -0.1643  0.0422
24676W        W41523  11.733   9.140   4.616  0.0868  0.0362 -0.3483
24677W        W41524   2.242   3.312  11.732  0.1110  0.2412 -0.1057
24678W        W41525  10.030   0.543   3.211 -0.0448 -0.0347  0.0279
24679W        W41526  16.801  13.471   2.907 -0.1231  0.0973 -0.1277
24680W        W41527  17.150  16.846  13.049 -0.0221  0.1177  0.1964
24681W        W41528   3.947   8.795  11.368  0.3098 -0.0475 -0.0206
24682W        W41529   9.317  13.702   1.447  0.2049 -0.1281  0.0819
24683W        W41530  12.708   7.451   5.300 -0.0799  0.3459  0.3292
24684W        W41531  12.275   4.629  15.191 -0.1613 -0.1292  0.0550
24685W        W41532   7.259   8.567   1.405  0.2450  0.0918 -0.1329
24686W        W41533  17.554   1.610  14.276 -0.0847  0.3663 -0.1612
24687W        W41534   8.787   6.952  11.657 -0.1953 -0.1612 -0.0293
24688W        W41535  17.446  14.642  13.584 -0.0499  0.1610  0.1515
24689W        W41536   0.314  13.705   6.130 -0.0141  0.0917 -0.1185
24690W        W41537  15.808   6.463  11.724  0.0136 -0.1321  0.6139
24691W        W41538   8.012   1.577   2.855  0.4619  0.2176  0.0657
24692W        W41539   4.569  10.802   4.280 -0.0148 -0.0021 -0.2300
24693W        W41540  10.321   4.201  15.133  0.3218 -0.3015 -0.2937
24694W        W41541  11.490   6.298  12.536 -0.1272 -0.2576  0.0407
24695W        W41542  16.342  13.563  11.460 -0.1207  0.2366 -0.2369
24696W        W41543   4.973  13.723  12.934 -0.1523  0.2230  0.0283
24697W        W41544   8.635  17.031   2.375  0.0148  0.1490  0.2358
24698W        W41545  17.897   6.187   1.961  0.0955 -0.1859 -0.4062
24699W        W41546   6.798   9.071  14.544  0.1208 -0.0933 -0.1277
24700W        W41547   6.131  16.988  15.883  0.0767  0.2314 -0.1481
24701W        W41548  14.766   9.878   0.750  0.1663 -0.1862 -0.0428
24702W        W41549  15.346  13.434   5.772 -0.0421 -0.1138  0.2440
24703W        W41550   0.575  13.962   3.554 -0.0065 -0.1091 -0.2077
24704W        W41551   3.656   7.787   4.098 -0.1062 -0.0208 -0.2177
24705W        W41552  12.220   2.311  13.166  0.0191  0.0219  0.0685
24706W        W41553  17.890  11.357   0.475 -0.3072 -0.2600 -0.2052
24707W        W41554   2.945   3.920  13.211 -0.1217  0.0588 -0.0371
24708W        W41555  10.687  12.503   5.112 -0.2976 -0.1303  0.0315
24709W        W41556  17.949  13.658   5.753 -0.1823 -0.1965 -0.1980
24710W        W41557  14.095   6.355   3.158 -0.0359 -0.0080 -0.1041
24711W        W41558  15.586   4.720   1.106 -0.0628  0.1799  0.2228
24712W        W41559  14.926   6.912   4.700  0.0312  0.1822  0.0028
24713W        W41560  15.607  16.765  15.306  0.0802 -0.1407  0.1733
24714W        W41561  15.829   9.742   4.611 -0.0502  0.0233  0.0863
24715W        W41562  15.732   6.672   1.175 -0.1048  0.0233  0.3620
24716W        W41563  17.063  18.182  13.489 -0.0893  0.4234 -0.1013
24717W        W41564   5.572  15.637   3.507  0.1115 -0.0673  0.0042
24718W        W41565  12.145   8.734  13.522  0.3107  0.1281  0.2369
24719W        W41566   6.384   0.477   4.630  0.0183 -0.2316  0.2292
24720W        W41567  15.144  12.092  12.846  0.0908  0.2010  0.3532
24721W        W41568   9.218   3.550   2.665  0.2818 -0.1676 -0.2593
24722W        W41569   5.814   1.394  14.405 -0.2211 -0.4208  0.1210
24723W        W41570   5.564  15.102   4.293 -0.3285 -0.1425  0.2042
24724W        W41571  15.501   1.193   1.378 -0.1203  0.0976  0.1175
24725W        W41572  16.083  16.643  12.417  0.1326  0.4390 -0.1483
24726W        W41573  14.154   8.285  14.411 -0.1708  0.3113 -0.0348
24727W        W41574  15.920   7.511  16.232  0.0577 -0.1200 -0.1728
24728W        W41575   1.115  11.806   4.393 -0.0350 -0.0949  0.0047
24729W        W41576  18.289   8.482  15.928 -0.1794 -0.1196 -0.0769
24730W        W41577  11.035  12.859   5.629 -0.0169  0.1926  0.0039
24731W        W41578   9.697  16.462  12.299  0.0608 -0.2458 -0.0210
24732W        W41579  15.429   9.730   0.090  0.0583  0.2116  0.0698
24733W        W41580  17.627   1.731   0.300  0.0318  0.1026 -0.2536
24734W        W41581   6.609   2.302  16.360  0.1790 -0.1224  0.0776
24735W        W41582  15.210   1.633  11.095 -0.1776 -0.0089 -0.2704
24736W        W41583   8.380   7.650   4.047  0.0213 -0.1860  0.2656
24737W        W41584   1.008  10.827  15.289  0.2224 -0.0711  0.0498
24738W        W41585   0.266   8.521   1.696  0.2124 -0.1513  0.1419
24739W        W41586  15.385  15.420   5.040  0.0567  0.0578  0.1966
24740W        W41587  18.232   1.949   5.071 -0.0534  0.3505  0.2264
24741W        W41588  14.088  14.616   0.743  0.0159  0.1686 -0.1373
24742W        W41589   1.917  14.544   0.865 -0.2644  0.0440  0.0885
24743W        W41590  14.087  11.489  13.087 -0.0030  0.0095  0.0238
24744W        W41591   0.641  14.491   3.514  0.0701  0.1791  0.3740
24745W        W41592  17.828  12.418  16.272  0.2107 -0.0262 -0.1462
24746W        W41593  17.879  14.042  12.592  0.0942 -0.0075 -0.1229
24747W        W41594   2.627   5.115  16.236 -0.0138  0.0860 -0.0037
24748W        W41595   2.350  15.866   1.742  0.0289 -0.1542 -0.3671
24749W        W41596  12.255   5.118   2.012 -0.2074  0.3533 -0.0322
24750W        W41597  14.827  14.589   5.431 -0.0253  0.0133  0.2836
24751W        W41598   6.501   5.957   0.644  0.1403 -0.3317 -0.1546
24752W        W41599   6.406  13.069  14.054  0.2097 -0.1379  0.1904
24753W        W41600   8.494   3.494   0.456  0.0970 -0.1562  0.2102
24754W        W41601   5.656   0.954   0.102 -0.2123  0.5254 -0.1881
24755W        W41602   6.979  12.681  13.325 -0.2080 -0.0719  0.2319
24756W        W41603  15.062  17.385   4.423  0.4864 -0.1585 -0.1529
24757W        W41604  10.369   2.081   4.346 -0.1468 -0.0710  0.0161
24758W        W41605   5.495   6.028  11.502  0.2446 -0.3079 -0.1972
24759W        W41606  16.085  14.734  15.657  0.2946  0.2913  0.1071
24760W        W41607   4.640  10.347  15.093  0.0468  0.1657 -0.1068
24761W        W41608   9.815  16.788  15.854 -0.3034  0.0258  0.0932
24762W        W41609   4.071   4.605  15.127 -0.0191  0.1028  0.2980
24763W        W41610  13.244  13.268   2.640 -0.0529 -0.1944 -0.1635
24764W        W41611  15.930   8.451   0.036  0.0536 -0.4518 -0.2569
24765W        W41612   3.929  13.137   1.732 -0.0656  0.0925  0.0118
24766W        W41613  12.965  18.200  12.333  0.2867  0.0208 -0.1628
24767W        W41614  17.212   6.752  15.059  0.2468  0.1704 -0.2536
24768W        W41615   8.205   7.384   0.595  0.1147 -0.0586  0.0142
24769W        W41616   7.850   0.278   0.960  0.1080  0.0853 -0.0389
24770W        W41617   0.020  16.163  11.708  0.1691  0.1409  0.1010
24771W        W41618  16.800  17.408   3.791 -0.1791  0.0428 -0.0044
24772W        W41619  14.591   6.255   4.219 -0.2415  0.2870  0.0303
24773W        W41620   4.932   3.245   1.073 -0.1688 -0.0824 -0.1856
24774W        W41621   1.726  13.258   2.804 -0.2021  0.1495 -0.1506
24775W        W41622  13.855   4.002   4.874  0.0263 -0.1503  0.1904
24776W        W41623   1.821   8.656  15.915 -0.2049 -0.0525 -0.0174
24777W        W41624   8.967   8.486   4.918  0.0119 -0.1128  0.1478
24778W        W41625  11.289   8.836   3.298  0.0083 -0.1633 -0.2107
24779W        W41626   5.261   2.032  13.670 -0.0050 -0.1100  0.0732
24780W        W41627   1.141  12.494   1.382 -0.0686  0.0719  0.0489
24781W        W41628  10.090   7.317  15.551  0.0230  0.1073 -0.0735
24782W        W41629   0.487   3.453   2.051  0.0908  0.1647 -0.3454
24783W        W41630   8.982  17.541  14.945 -0.0689  0.1123  0.4041
24784W        W41631   8.356  10.614   3.266  0.0929  0.0607  0.1011
24785W        W41632   6.745   6.296   5.150 -0.1801 -0.1230  0.1263
24786W        W41633   9.129   8.717   0.809  0.1447 -0.0757 -0.1898
24787W        W41634   0.313   6.498  13.970 -0.0918  0.1386 -0.2301
24788W        W41635   7.716   3.234  11.545 -0.0113  0.0071  0.0520
24789W        W41636   8.901   3.720  13.212 -0.3275 -0.0509 -0.0886
24790W        W41637   7.500  16.168   4.005  0.0949  0.2959 -0.2388
24791W        W41638   1.195  14.665  15.479  0.1628 -0.1742  0.2890
24792W        W41639  17.974  13.081   3.365 -0.3751 -0.1671 -0.1647
24793W        W41640   9.587  13.697  15.501 -0.2710 -0.2094  0.1988
24794W        W41641   5.496  16.041  15.867  0.3186 -0.1358 -0.1043
24795W        W41642  12.052   3.596   3.991  0.2042  0.3098  0.1571
24796W        W41643  16.751  12.594   3.112 -0.0425  0.0972 -0.1014
24797W        W41644   7.234   1.328  15.551 -0.2641  0.0737  0.0342
24798W        W41645   2.324   0.985  14.579  0.0455 -0.1010 -0.0808
24799W        W41646  15.879  12.512  15.931  0.3307  0.0646 -0.1706
24800W        W41647   7.090   7.002   2.931  0.0170 -0.0690 -0.0286
24801W        W41648   1.128  18.286  13.981  0.0382 -0.1821  0.3095
24802W        W41649   5.108   0.461  14.686  0.0079 -0.2919  0.0360
24803W        W41650  13.173   6.497   3.773  0.1112 -0.1765  0.5100
24804W        W41651  11.452   5.036  13.821 -0.1891  0.0173 -0.0966
24805W        W41652  16.791   8.333  11.267  0.2412  0.0711 -0.2982
24806W        W41653   7.839   7.334   3.507  0.4575  0.1785  0.1369
24807W        W41654   5.534   1.074   2.896 -0.4354 -0.1269 -0.0969
24808W        W41655   5.286   4.327   5.309 -0.1737 -0.0252 -0.0428
24809W        W41656  14.808  12.568   1.758 -0.1363 -0.1731 -0.0198
24810W        W41657   4.668  17.973   2.568 -0.1412  0.0097  0.3006
24811W        W41658  14.258   1.184  12.296 -0.1445 -0.2185 -0.0164
24812W        W41659  10.500  16.324   1.380  0.0358 -0.1188 -0.1699
24813W        W41660  16.109   6.339  15.245  0.0649 -0.0309  0.1115
24814W        W41661   9.215  10.103  14.399 -0.0472  0.1409  0.4140
24815W        W41662  15.919  10.195  12.940  0.2961  0.2690 -0.1192
24816W        W41663   0.830  17.881  15.458 -0.1579 -0.2081  0.3648
24817W        W41664  18.073  13.835  15.411  0.4117 -0.2036 -0.0755
24818W        W41665  11.015   7.786   0.371  0.1559 -0.0679  0.1835
24819W        W41666   9.638   2.946   3.629 -0.0817  0.0645 -0.0780
24820W        W41667   0.110   9.064   4.229 -0.1446 -0.2503 -0.1254
24821W        W41668  17.899  16.098   2.862 -0.0104  0.0262 -0.1763
24822W        W41669  18.377   2.782  13.424 -0.1172 -0.1429  0.1478
24823W        W41670  13.203   8.485   2.792 -0.1017 -0.2089 -0.2263
24824W        W41671   5.980   5.774  12.674 -0.0348 -0.1636  0.0437
24825W        W41672   5.950  15.843  15.716  0.0481  0.0651 -0.2660
24826W        W41673  10.632  14.915  13.817 -0.1003 -0.0726 -0.0121
24827W        W41674   4.345  10.623   0.358 -0.0589  0.0480 -0.1103
24828W        W41675   9.588   6.216   5.090  0.4235 -0.2510  0.2211
24829W        W41676  13.744   8.975   3.055 -0.0306 -0.1025  0.1387
24830W        W41677  14.506   2.835   2.238  0.3475  0.1941  0.0531
24831W        W41678   9.191  15.042   0.061 -0.2829  0.1880 -0.1282
24832W        W41679   3.738  17.306  14.799 -0.1479  0.0399 -0.1083
24833W        W41680   0.916   2.645   1.635  0.1953 -0.0820 -0.1169
24834W        W41681   9.123   8.549  13.255 -0.2603 -0.0382  0.0694
24835W        W41682  15.507  17.644   4.369 -0.2153  0.0629 -0.3911
24836W        W41683   5.098  17.268  15.701  0.3987 -0.1998  0.0919
24837W        W41684  18.129  14.338   2.266  0.1384 -0.1626  0.0192
24838W        W41685  10.880   0.069   0.188 -0.0898  0.0098  0.1708
24839W        W41686   6.104   0.184  12.283 -0.0296  0.2764  0.0486
24840W        W41687   8.457   6.243  13.296 -0.3131 -0.1056  0.0958
24841W        W41688   3.070  16.376   1.306 -0.0028 -0.0368  0.1085
24842W        W41689  17.998  13.620   1.047 -0.0876  0.1383  0.1512
24843W        W41690   9.068   1.602   6.389 -0.3731 -0.1568 -0.1627
24844W        W41691  15.904  13.378  13.327 -0.2240  0.0239 -0.0896
24845W        W41692   1.223  10.889  13.571  0.0161  0.3172  0.1168
24846W        W41693  16.841  13.082   3.277  0.1627 -0.1455  0.5139
24847W        W41694  10.974   4.969  14.929  0.1632 -0.0082 -0.1272
24848W        W41695  10.930   2.452   0.267  0.1435 -0.1483  0.1073
24849W        W41696   0.023   2.056   0.766 -0.0131 -0.3860  0.1227
24850W        W41697  11.335  12.117   0.736 -0.2202 -0.1820 -0.1961
24851W        W41698  15.998  13.016   5.277  0.2320 -0.1125 -0.0111
24852W        W41699   7.110  12.328  15.574  0.2039 -0.5119  0.2979
24853W        W41700   9.548   5.690  13.039  0.0842 -0.1452  0.0373
24854W        W41701   5.349  18.069  12.710  0.0459  0.3510  0.2717
24855W        W41702  12.323   3.178  14.119  0.1373  0.1523  0.3506
24856W        W41703  16.767   6.701   4.438 -0.2077 -0.0929 -0.1439
24857W        W41704  17.972   5.271   2.195  0.0243  0.3819  0.4028
24858W        W41705  13.049   8.112  15.979  0.0224  0.0377  0.0832
24859W        W41706  18.148   1.546   0.276 -0.4184 -0.0518  0.0666
24860W        W41707  12.698   2.742   1.674  0.1564  0.2930 -0.0105
24861W        W41708  14.004  13.170  11.861  0.2039  0.1987  0.1417
24862W        W41709  11.101  17.156  11.487 -0.0468 -0.0686  0.0646
24863W        W41710  14.619   6.425  14.582  0.0916  0.1011  0.0750
24864W        W41711  11.427   9.804  13.760 -0.0105  0.1369  0.0033
24865W        W41712  17.969  18.383  13.992 -0.4869  0.2520  0.2910
24866W        W41713   4.848   4.964   5.558  0.2271 -0.1178  0.1938
24867W        W41714   4.513  14.371  14.581  0.1084  0.1187 -0.5122
24868W        W41715   6.481  10.984  14.315  0.0090  0.1745  0.1916
24869W        W41716  11.055   3.775  16.350  0.0763  0.1456 -0.2964
24870W        W41717  13.568   4.914   0.378 -0.0338 -0.0041 -0.1596
24871W        W41718  13.933  17.918   4.821  0.1570 -0.0081  0.0125
24872W        W41719  15.555  11.594  11.818 -0.0703  0.2518 -0.0201
24873W        W41720  13.789   4.303  10.870 -0.2050 -0.1224 -0.1345
24874W        W41721   4.209   2.894  11.411  0.0277  0.1501  0.2331
24875W        W41722  15.396  16.925   1.835  0.0707  0.1708  0.1663
24876W        W41723  13.430   1.999   1.306 -0.2580 -0.0087  0.2658
24877W        W41724   4.603   8.129   4.378  0.1818  0.2135 -0.3194
24878W        W41725   7.947  16.630   0.638  0.0497  0.2716  0.2840
24879W        W41726   7.718  14.099   4.521  0.1346 -0.2827 -0.1649
24880W        W41727  14.259  10.100  13.114 -0.2291 -0.0366 -0.0650
24881W        W41728   8.487   4.156  11.963  0.0853  0.0423 -0.1982
24882W        W41729  10.783  15.769  12.232  0.2442  0.1705 -0.0810
24883W        W41730  16.062  17.122  15.793  0.0242  0.0527 -0.0449
24884W        W41731   2.164   4.498   1.475  0.0456  0.0033 -0.1297
24885W        W41732   4.400   4.342   0.105  0.0291 -0.0313  0.1698
24886W        W41733   8.911   6.419  13.263 -0.0655 -0.2993 -0.0150
24887W        W41734   3.872   9.432   1.967 -0.1301  0.2937  0.0010
24888W        W41735  16.209  17.124  14.170  0.1849  0.1224 -0.0023
24889W        W41736  13.417   8.598  11.111 -0.0308 -0.1731  0.1656
24890W        W41737  11.316   4.937   5.019  0.2962  0.1012  0.1273
24891W        W41738   0.183   3.329   3.302 -0.2525  0.0008 -0.3360
24892W        W41739  15.988   7.852  13.986 -0.0979 -0.0407 -0.1341
24893W        W41740   6.438  14.849  12.320  0.1679 -0.2033  0.0006
24894W        W41741   5.966  11.525   2.891  0.3503 -0.0434  0.0875
24895W        W41742   8.254  15.728   3.629 -0.0008  0.3773 -0.0119
24896W        W41743   3.303   3.586  11.342  0.4026 -0.0936 -0.0380
24897W        W41744   7.643  17.579   4.524 -0.2514 -0.3863 -0.0805
24898W        W41745  17.076   3.869  10.904 -0.1116 -0.0678  0.1177
24899W        W41746   7.486   6.399   0.560 -0.3929  0.0311  0.2997
24900W        W41747  13.385   0.871   5.102  0.0042  0.0436 -0.2424
24901W        W41748  18.224   1.799   1.349  0.2716 -0.1115  0.2543
24902W        W41749   4.350   5.264   0.004  0.0690 -0.4242 -0.2582
24903W        W41750  15.272  17.665   3.803  0.0329 -0.0180 -0.0389
24904W        W41751   5.160   7.270   1.657  0.1019  0.0278 -0.0484
24905W        W41752   9.066  12.372   4.357  0.0113  0.0280 -0.2881
24906W        W41753   7.774   3.514   1.442  0.0676 -0.0403 -0.2179
24907W        W41754   4.036  14.342  14.673  0.0818 -0.2937 -0.1309
24908W        W41755  16.217  18.118  15.766  0.1183 -0.2441 -0.1512
24909W        W41756   6.619   0.209  10.968 -0.2242 -0.3095 -0.1383
24910W        W41757  15.348  14.170  15.166  0.2395 -0.0369  0.0378
24911W        W41758  12.696  17.540   2.957  0.1399  0.3587 -0.1733
24912W        W41759   3.689   3.062  15.677 -0.1384 -0.1509  0.1803
24913W        W41760   3.233  16.123   4.507  0.0088  0.1690 -0.1328
24914W        W41761   1.957  11.770  15.903  0.1308  0.0310  0.3760
24915W        W41762   7.142   0.351   5.599 -0.2583  0.0646 -0.2831
24916W        W41763  16.487  11.948   5.499 -0.1808  0.0622  0.0332
24917W        W41764  10.579  17.788   5.288 -0.1696 -0.1596 -0.1178
24918W        W41765  12.088  15.979   5.366 -0.1581 -0.0725  0.0398
24919W        W41766  15.142  18.314   2.082 -0.5417  0.1132  0.0997
24920W        W41767   7.842   9.553  14.737  0.0024  0.1757 -0.0301
24921W        W41768  14.089   3.897  10.655 -0.0901 -0.0427 -0.1319
24922W        W41769  15.372  15.064  13.643  0.0080  0.2615 -0.0382
24923W        W41770   7.663  14.293  11.394 -0.0512 -0.1339 -0.0316
24924W        W41771  11.597   2.685  13.745 -0.1247  0.0094  0.0912
24925W        W41772   8.728  17.813   4.978  0.0219 -0.0521 -0.2491
24926W        W41773  13.574   2.910  11.283 -0.0082  0.2512  0.1490
24927W        W41774   4.219  10.143   6.388 -0.4204  0.0147  0.0930
24928W        W41775   1.098   9.414   1.028  0.0683 -0.0402  0.3452
24929W        W41776  16.952  13.937  11.853  0.0811  0.2078 -0.1069
24930W        W41777  17.545   8.303   5.026  0.1332 -0.0291  0.1637
24931W        W41778   5.325   6.260  12.748  0.1713  0.1482  0.0466
24932W        W41779   1.324   2.804  13.827  0.0532 -0.2107 -0.2133
24933W        W41780  16.948   7.562   2.845  0.0883 -0.1595  0.3328
24934W        W41781  12.462   7.517   0.756 -0.0120  0.3521 -0.2414
24935W        W41782   2.516   5.499   0.476  0.0494 -0.0900 -0.1219
24936W        W41783   0.348   2.086  12.732  0.0200  0.2503 -0.3129
24937W        W41784   8.986   6.203  15.601 -0.0551 -0.1591  0.2203
24938W        W41785   1.849   2.570   1.027 -0.0098  0.2669  0.0828
24939W        W41786  10.619   8.465  11.954  0.1452  0.0487 -0.1556
24940W        W41787  17.064  17.586  12.384  0.1551 -0.0242  0.1687
24941W        W41788  12.194  14.943  14.304  0.2684  0.1719 -0.0533
24942W        W41789   8.622   9.589  14.182 -0.0031  0.4856  0.1484
24943W        W41790  12.177  13.577   4.809 -0.0992 -0.2687  0.0954
24944W        W41791  11.238   5.349   4.461 -0.1495 -0.3191 -0.2273
24945W        W41792  17.390   4.933  12.108  0.2418  0.0105 -0.1379
24946W        W41793   4.702  11.190   1.620  0.2451 -0.0338 -0.0727
24947W        W41794  14.375  11.060  13.278  0.3440 -0.0498  0.1240
24948W        W41795  12.339  14.344  14.924  0.0268  0.0872 -0.1846
24949W        W41796   2.633   3.513  13.117 -0.2102 -0.2787 -0.0706
24950W        W41797  11.143  17.799   2.553 -0.0612  0.0525  0.0786
24951W        W41798  17.061  13.565  12.726  0.0950 -0.2813  0.0783
24952W        W41799   4.635   3.408  12.555 -0.1483 -0.2838  0.0704
24953W        W41800  15.203  16.096   2.827 -0.2349  0.1387 -0.2872
24954W        W41801  14.514  15.602  13.846 -0.1776  0.1471 -0.0006
24955W        W41802   3.837  17.354  15.527  0.1999 -0.1955 -0.0737
24956W        W41803  10.915   7.794   1.814  0.2337  0.2593 -0.1079
24957W        W41804  11.324   1.914  12.743 -0.0905  0.0237  0.2194
24958W        W41805   9.680   7.402   3.303 -0.0325 -0.2374 -0.2787
24959W        W41806  14.938   3.544   5.601  0.2747  0.3544  0.4054
24960W        W41807  14.436  15.373  12.863 -0.1308 -0.0497 -0.0222
24961W        W41808   8.055  14.309   3.588  0.1297 -0.0098  0.0237
24962W        W41809   9.529   6.226  12.978 -0.0838  0.1269  0.0902
24963W        W41810   8.062   4.024  13.190 -0.0195  0.1839 -0.1187
24964W        W41811   3.467   3.179   1.036  0.0903 -0.0433  0.1690
24965W        W41812   6.682   2.221   5.107 -0.2838 -0.1106 -0.0873
24966W        W41813   2.138   3.796   4.834  0.0382 -0.0696 -0.1931
24967W        W41814   6.799  14.281  14.615 -0.0516 -0.0994 -0.0952
24968W        W41815  14.700  10.894   0.549  0.1868  0.1797  0.0467
24969W        W41816  11.996   3.816  14.604 -0.1020 -0.0155  0.0192
24970W        W41817  14.648   1.492  16.137  0.2484 -0.2853  0.3793
24971W        W41818   6.366   2.468  12.802 -0.0821 -0.3542  0.2920
24972W        W41819  10.904  13.453   1.955  0.0326 -0.1348 -0.0104
24973W        W41820   5.073  16.573   4.290  0.1219 -0.3061 -0.1543
24974W        W41821   9.873   3.325   2.280  0.2766  0.3530  0.0568
24975W        W41822   7.430   7.345   3.199 -0.0041 -0.3954 -0.0445
24976W        W41823   6.495  11.752  16.022  0.2458  0.0947 -0.2283
24977W        W41824   0.853  17.350  15.253 -0.1136  0.2609 -0.0464
24978W        W41825  14.659   7.110   5.385 -0.1082 -0.0445  0.1142
24979W        W41826  14.118   3.515   2.418 -0.1534 -0.0167 -0.0331
24980W        W41827  15.980  10.525   5.040 -0.1118 -0.0949  0.1388
24981W        W41828   7.796   9.388   4.872 -0.1898 -0.3700  0.1229
24982W        W41829   6.835  10.195   3.365  0.3179 -0.1939  0.0274
24983W        W41830  15.772  17.283  15.429 -0.0527  0.1677  0.1198
24984W        W41831   7.055  11.339  13.824 -0.0535 -0.0477 -0.0267
24985W        W41832   4.387  17.218  12.203  0.0677  0.0229  0.1198
24986W        W41833  12.513   5.102  11.936  0.1573  0.0946  0.1687
24987W        W41834   3.205  12.073  13.794  0.0203  0.1731  0.1636
24988W        W41835  14.090  12.595   1.708 -0.2523  0.1935  0.1341
24989W        W41836  11.247   1.956   0.130  0.1607  0.1010 -0.0338
24990W        W41837   0.706  16.378  16.146  0.1112  0.0443  0.0849
24991W        W41838  10.790  10.737  12.990  0.1020 -0.3331  0.0766
24992W        W41839   2.033  12.354   0.654 -0.0475 -0.0060 -0.1630
24993W        W41840   1.496   2.932  14.311 -0.0177 -0.1154 -0.0490
24994W        W41841   9.011   6.586  11.952 -0.3090 -0.1330  0.2188
24995W        W41842   0.889   1.463  13.209 -0.0883 -0.1931  0.1330
24996W        W41843   2.207  11.108  14.253 -0.1480 -0.0034  0.2917
24997W        W41844  16.219   0.577  15.609 -0.2005  0.2648 -0.0389
24998W        W41845  13.673   5.452   3.368 -0.0622  0.3258  0.0622
24999W        W41846  14.289   3.503   5.587  0.1683  0.2236  0.3503
25000W        W41847   6.395  11.281   1.610  0.0947  0.2988  0.2674
25001W        W41848   0.874   4.192  15.574 -0.2149  0.0890  0.1539
25002W        W41849   0.980  11.847  13.541 -0.3031 -0.1680  0.1794
25003W        W41850   9.059   8.784   5.340  0.3485  0.0057  0.0660
25004W        W41851   6.621  12.735  11.617 -0.1062  0.0848 -0.0329
25005W        W41852  17.574   8.364  13.346 -0.1533 -0.2137 -0.0833
25006W        W41853  15.595  11.801  15.547  0.0253 -0.0641 -0.1119
25007W        W41854   5.277   9.051   5.365 -0.1491  0.0781 -0.0952
25008W        W41855   8.712  17.619   2.260 -0.2871  0.1722  0.2078
25009W        W41856  14.654  12.017   1.167 -0.2091  0.1317  0.0452
25010W        W41857  10.782   2.018  15.538 -0.1797 -0.2659  0.0217
25011W        W41858   1.826   5.678   4.894  0.1683 -0.0933 -0.1287
25012W        W41859  18.138   1.275   2.957  0.0876  0.0469 -0.3663
25013W        W41860   5.219  16.711  15.913 -0.0909 -0.2629  0.0198
25014W        W41861  14.460  10.919   1.318 -0.2226 -0.0716  0.2923
25015W        W41862   4.362  14.916   4.765  0.1106 -0.1714  0.1487
25016W        W41863  12.828  10.816   4.834  0.0927  0.2021  0.3313
25017W        W41864   4.497   7.433  16.007  0.2348 -0.0126 -0.1189
25018W        W41865  10.397   6.635   3.853 -0.7908 -0.2264  0.1581
25019W        W41866  12.071  13.503   5.780  0.0357  0.2730 -0.0385
25020W        W41867   2.286  11.960   5.457  0.1100  0.0906  0.0501
25021W        W41868   1.626  10.455  15.907 -0.0077 -0.3532  0.0182
25022W        W41869  11.401  10.501  12.947 -0.3267  0.1784  0.5364
25023W        W41870  11.231   2.168  14.094 -0.1951 -0.0851  0.6454
25024W        W41871   6.827  17.829   0.054  0.2285 -0.1352  0.2987
25025W        W41872   2.933  11.555   4.719  0.3608  0.1293 -0.0098
25026W        W41873   2.795  16.608  14.838 -0.0509  0.0037 -0.1802
25027W        W41874  18.116   9.297  16.121 -0.0954 -0.2412 -0.3902
25028W        W41875  17.728  16.793  14.225 -0.0959 -0.0997  0.3306
25029W        W41876  11.814  10.148  12.890 -0.5553 -0.1975  0.0952
25030W        W41877   7.482   3.109   4.068 -0.0590  0.5786 -0.0246
25031W        W41878   0.648   1.019  15.879 -0.1847 -0.0836 -0.3138
25032W        W41879  12.870   6.619  11.769 -0.0360  0.4833 -0.2209
25033W        W41880   0.338   4.082   2.637  0.1641  0.0733  0.0558
25034W        W41881   3.043   0.650   1.983  0.0563  0.0312  0.1026
25035W        W41882   7.520   7.066   4.355  0.2071  0.0957  0.1610
25036W        W41883   5.935   5.021  10.723  0.1172  0.1915 -0.3877
25037W        W41884   2.456  13.653  15.615  0.2224  0.1926  0.2509
25038W        W41885   9.752   4.020   2.077  0.1211  0.0594 -0.1265
25039W        W41886   7.406   2.377  14.092 -0.0074  0.1887  0.1253
25040W        W41887  18.042   8.065   1.265  0.0222  0.0983 -0.3871
25041W        W41888   0.305   7.392   4.052  0.3132  0.0344 -0.0347
25042W        W41889  12.919  17.708   3.409 -0.2532 -0.2825 -0.0514
25043W        W41890   0.988  16.371  11.195  0.2500  0.1005 -0.2336
25044W        W41891   9.473  11.017   0.613 -0.2242 -0.0761 -0.0172
25045W        W41892  17.694   6.166   0.211  0.1758  0.1422  0.0900
25046W        W41893   3.397   3.673  13.817  0.4090  0.0821 -0.0677
25047W        W41894   7.361   6.848  13.020 -0.0845  0.0318 -0.0381
25048W        W41895  13.394  14.236  11.956 -0.0167  0.0943 -0.3323
25049W        W41896  11.783  11.148  16.366  0.1199  0.1974 -0.0265
25050W        W41897  18.319   0.420  13.086 -0.0719  0.0446  0.2766
25051W        W41898   6.479  12.187  12.559  0.2153 -0.1068 -0.0330
25052W        W41899  14.317  14.119  14.868 -0.1852 -0.0584 -0.2174
25053W        W41900   4.793  14.248   2.659 -0.0114  0.1840  0.1809
25054W        W41901   5.323   3.710  14.974  0.1142 -0.1548  0.0553
25055W        W41902   2.312  12.329  13.468 -0.3022 -0.0941 -0.3262
25056W        W41903  14.652   7.578   3.417 -0.1783  0.0712 -0.3315
25057W        W41904  13.003   3.478  12.392 -0.0259 -0.1270  0.4107
25058W        W41905  15.815   2.628   4.244 -0.2690  0.3775 -0.0776
25059W        W41906  17.713   4.737   3.523 -0.1812 -0.1556 -0.1921
25060W        W41907   6.537   7.458   4.155 -0.1976  0.0341  0.0086
25061W        W41908  10.431   6.179  14.516  0.1208 -0.3674 -0.0638
25062W        W41909   5.727   1.509  12.768  0.1715  0.0789  0.1979
25063W        W41910   8.713   2.522   1.949  0.0992  0.3212 -0.1046
25064W        W41911   5.225   6.038   0.401  0.1026  0.0568 -0.2495
25065W        W41912   9.327   7.557   5.508  0.3092  0.4330 -0.0774
25066W        W41913  14.382  16.708  13.086 -0.1405  0.3011 -0.1269
25067W        W41914   8.157  10.115  11.527  0.3091  0.2989  0.0874
25068W        W41915  11.206   7.300  16.335 -0.1331 -0.1409  0.2363
25069W        W41916  13.639   1.945   1.732  0.1588  0.0383  0.2278
25070W        W41917   1.593   9.282   4.448  0.2183 -0.1086  0.0453
25071W        W41918   3.302  15.272  13.309  0.0006  0.2204 -0.1803
25072W        W41919  14.146   5.441  13.857 -0.0561  0.2265  0.1262
25073W        W41920   1.024  15.172   5.785 -0.0506  0.1132  0.1768
25074W        W41921   8.825   4.801  15.795 -0.0882  0.0203  0.0619
25075W        W41922   2.691  12.787  10.995 -0.0096  0.0091  0.1895
25076W        W41923  18.212  14.439  12.731 -0.0004 -0.2090  0.1521
25077W        W41924   1.146  15.314   0.817 -0.0149  0.3931  0.1981
25078W        W41925  13.646  13.160   5.172  0.0308 -0.0801 -0.2004
25079W        W41926   9.920   1.833  16.078  0.1075 -0.3901 -0.0002
25080W        W41927  16.407   2.498  13.335 -0.1513 -0.0300  0.0743
25081W        W41928   6.083   1.128   6.075 -0.1043 -0.0890  0.2716
25082W        W41929  16.018  17.125   3.883  0.3440 -0.2672  0.0340
25083W        W41930   7.305  16.633   4.781  0.4845 -0.1960 -0.2916
25084W        W41931   9.577  14.170   3.704 -0.0963 -0.0539  0.1321
25085W        W41932  14.726   7.927  13.916  0.0002 -0.1997 -0.1000
25086W        W41933  11.165  12.896  12.352 -0.0678 -0.0572  0.3423
25087W        W41934  11.956  16.464   2.357 -0.0109  0.2624  0.2949
25088W        W41935  10.801  17.456  12.308 -0.0929 -0.1493  0.2857
25089W        W41936  11.446  18.390   5.342  0.0026 -0.0285 -0.1407
25090W        W41937   3.306   9.714  11.731  0.1134  0.0521  0.0385
25091W        W41938  14.063   7.409  14.386  0.0545 -0.1934  0.1197
25092W        W41939  13.538   8.723  13.045  0.1045 -0.0096  0.1557
25093W        W41940   4.984   9.926  15.046 -0.1758 -0.1041 -0.0854
25094W        W41941   4.913   5.183  11.592  0.0790  0.2859  0.0446
25095W        W41942   1.561  16.130  16.370 -0.1169 -0.1553 -0.0901
25096W        W41943   3.098   3.205  11.572  0.2144 -0.0003 -0.1882
25097W        W41944   8.660  15.304   3.110 -0.1909 -0.0914 -0.0443
25098W        W41945  13.643  14.386   3.719  0.1057 -0.2141 -0.0625
25099W        W41946   6.834   7.549   4.540 -0.2406 -0.0552  0.2131
25100W        W41947   6.960  13.839   2.187 -0.1495  0.1583  0.2789
25101W        W41948   2.472  18.356   4.108  0.0126  0.0759 -0.2769
25102W        W41949   7.879  16.519  14.613  0.0518 -0.0245 -0.1872
25103W        W41950   6.594  15.289   0.791 -0.0547  0.0849 -0.3553
25104W        W41951   6.995   2.162  15.399  0.1548 -0.0705  0.3373
25105W        W41952   8.014   2.995  15.694  0.0675 -0.0523  0.1382
25106W        W41953   7.008  11.177  16.292  0.0688  0.0229  0.3920
25107W        W41954  16.762   1.314   3.256 -0.1209  0.1507 -0.3854
25108W        W41955   4.394   8.975  14.885 -0.2117  0.1190 -0.1280
25109W        W41956   5.481  16.365   4.488  0.0848  0.0648  0.0283
25110W        W41957   6.581  10.938   5.359 -0.0606 -0.1326  0.4054
25111W        W41958  14.617  16.927  13.734 -0.0271 -0.0025  0.1666
25112W        W41959   2.654   9.472  14.561  0.0657  0.2502 -0.0214
25113W        W41960   2.040   7.434   0.101  0.0046  0.0194  0.2373
25114W        W41961   3.025   2.385  16.308 -0.1502  0.0757  0.0424
25115W        W41962  10.283  12.230   1.835 -0.0422 -0.1857  0.0735
25116W        W41963  10.277  10.076  14.578 -0.0647  0.0347 -0.0791
25117W        W41964   1.017  13.026   0.207 -0.2130 -0.1437  0.0300
25118W        W41965   2.195   5.256  12.708  0.3380  0.1738  0.1201
25119W        W41966   1.036  13.372   0.672  0.1830 -0.2204  0.3178
25120W        W41967   8.263   6.410   2.762  0.2040  0.1199  0.0352
25121W        W41968   5.555   0.460   1.378 -0.0667  0.1074  0.0217
25122W        W41969   6.530  14.940   0.396  0.0856  0.4718  0.0960
25123W        W41970   1.165  11.185  12.641  0.1730  0.0414  0.0932
25124W        W41971  15.413   9.108   1.665 -0.0165  0.0001 -0.2121
25125W        W41972  11.937  11.010   3.893  0.0082 -0.3672  0.1495
25126W        W41973  15.651   9.089  14.261  0.0376 -0.0588  0.0493
25127W        W41974   9.812  11.891   0.540  0.2228  0.0365 -0.0244
25128W        W41975  17.050   5.354   3.287 -0.0073 -0.2308  0.0627
25129W        W41976   8.098   4.408   1.176  0.1518 -0.0442  0.1077
25130W        W41977   0.643  13.883   2.249 -0.0968  0.4633 -0.2004
25131W        W41978  10.655   1.786  15.036 -0.1696 -0.0106  0.1620
25132W        W41979  16.353  13.577  15.774 -0.2498  0.2698  0.2791
25133W        W41980  15.397   3.462   3.870 -0.0824  0.2163  0.0854
25134W        W41981  16.529  17.429   2.790 -0.1537 -0.0429  0.0728
25135W        W41982  13.916   9.181  15.942  0.0912  0.1151 -0.0246
25136W        W41983  10.905  16.823   1.133  0.2136  0.0118  0.0017
25137W        W41984  15.589   5.742   2.010 -0.0957  0.1022 -0.0971
25138W        W41985   4.222  10.046  11.489  0.0852 -0.1248  0.2028
25139W        W41986  18.221  16.530   3.076 -0.4440 -0.0606 -0.2850
25140W        W41987  18.212   3.578  14.971 -0.0680  0.1375  0.1504
25141W        W41988   6.023  12.102  12.255 -0.1188  0.2061 -0.0953
25142W        W41989  12.297  12.484  13.462 -0.1894  0.0580  0.1928
25143W        W41990   9.034  17.478  15.842  0.1585 -0.0662 -0.0380
25144W        W41991   5.752   9.817   2.126 -0.0486 -0.1259 -0.2408
25145W        W41992   4.395   5.399  11.410 -0.1298  0.0604 -0.0856
25146W        W41993   6.324  18.109  11.905  0.1223  0.0833  0.2835
25147W        W41994   6.997   7.200  12.920  0.0997 -0.0834  0.1927
25148W        W41995  16.240  12.009  13.435  0.0145  0.0232  0.0362
25149W        W41996  16.254   5.434  13.980 -0.1239  0.0288 -0.0822
25150W        W41997   4.988   8.293   0.316 -0.0370 -0.0336 -0.2530
25151W        W41998   8.906  18.062   1.970  0.0130  0.2359 -0.0554
25152W        W41999   5.695  16.862  16.301  0.0586  0.0812 -0.1321
25153W        W42000   6.262  15.735   4.541  0.2212 -0.1110  0.3212
25154W        W42001   5.650   7.081   3.435  0.2542 -0.2783 -0.1564
25155W        W42002   3.006   4.594  11.332 -0.1382 -0.2238  0.3192
25156W        W42003  15.892   9.722  12.663 -0.0001 -0.1809 -0.0479
25157W        W42004   6.135   4.002  11.152  0.0547  0.1168 -0.0626
25158W        W42005   7.523   5.962  14.458  0.0402 -0.1710  0.0377
25159W        W42006   0.334   4.384  13.463  0.1022 -0.0661 -0.3064
25160W        W42007   2.311   6.620   4.719  0.0024 -0.0058 -0.1585
25161W        W42008   8.613   6.646   4.983  0.0657  0.1414 -0.1542
25162W        W42009  15.773  14.315   4.490  0.0065  0.1214  0.1073
25163W        W42010  13.336   0.092  12.088 -0.3636  0.2844  0.1561
25164W        W42011   9.789   0.004  11.650  0.0379  0.2802  0.2119
25165W        W42012   9.560   6.684  16.204  0.1699  0.1146  0.3170
25166W        W42013  11.065  11.995   2.873 -0.0392 -0.3231  0.0594
25167W        W42014   2.601  15.170   0.911  0.0713 -0.1491  0.0376
25168W        W42015  15.240   6.417  12.931  0.3165 -0.0523 -0.0215
25169W        W42016   9.669  13.215  12.623  0.0103 -0.1512  0.2270
25170W        W42017   5.619  17.480   5.782  0.2715  0.0894  0.1711
25171W        W42018   5.508   5.159   0.476  0.1628 -0.0620  0.0095
25172W        W42019   4.761  11.319   5.042 -0.1350 -0.0012  0.0404
25173W        W42020  13.129   8.138   3.902  0.1686  0.1083  0.0909
25174W        W42021   8.575  18.231   1.401  0.1260  0.0731 -0.0592
25175W        W42022   4.199   5.015   2.485  0.1473 -0.0946  0.3976
25176W        W42023   6.224   5.480  13.089  0.0900  0.2167 -0.0777
25177W        W42024  12.102   0.840  11.286  0.0521  0.2079  0.0213
25178W        W42025   5.856  12.565  14.729 -0.3312 -0.1649 -0.1682
25179W        W42026  10.322  18.325  13.977 -0.4529  0.0220  0.0946
25180W        W42027   3.303   9.323  12.595  0.0939  0.1893  0.0017
25181W        W42028  12.014  17.341   2.257  0.0045 -0.1644 -0.2114
25182W        W42029   5.945  14.006  13.898  0.0003 -0.0738 -0.3386
25183W        W42030   5.933  12.734   4.112  0.1744 -0.2163  0.1938
25184W        W42031   9.441   3.866   4.091 -0.3170 -0.1749  0.0328
25185W        W42032  17.304   8.134   0.192  0.1213  0.2691  0.0059
25186W        W42033   5.156   3.965  12.759  0.1944  0.2095  0.1045
25187W        W42034   5.522   6.778  14.269  0.0536 -0.1152 -0.1384
25188W        W42035   5.866   7.952   2.471 -0.2753 -0.3352  0.0002
25189W        W42036   3.599  10.033   0.282  0.0987  0.1947 -0.2792
25190W        W42037  17.594  15.368   0.640  0.1956 -0.0302  0.1975
25191W        W42038   9.377  10.013  12.995 -0.2570 -0.0224 -0.0158
25192W        W42039  12.084   7.714   1.116  0.0178  0.1533 -0.4515
25193W        W42040   7.599  16.217  12.369  0.1464 -0.0724 -0.1717
25194W        W42041   2.125  10.056   0.652 -0.1188  0.0453 -0.2171
25195W        W42042  14.101   3.106  12.254 -0.1927  0.1934  0.0556
25196W        W42043   1.975   0.110  12.978 -0.1699 -0.0791  0.3158
25197W        W42044  15.980   7.754   2.060 -0.0188  0.1404 -0.1893
25198W        W42045  15.197   4.571   1.374 -0.0854  0.2033  0.2635
25199W        W42046  15.325   0.833   4.931  0.1654 -0.1190 -0.1205
25200W        W42047   4.914   0.377   0.086 -0.1898  0.1158  0.1671
25201W        W42048   7.882  16.568   4.017 -0.3037 -0.2628 -0.3580
25202W        W42049  11.367   8.262  15.346  0.1913 -0.0128  0.0767
25203W        W42050   5.558  13.841   2.234  0.1365  0.0291  0.0869
25204W        W42051   6.570   9.881   0.196  0.0563  0.0187 -0.1210
25205W        W42052   7.269   5.011   2.087 -0.0897  0.0657 -0.0178
25206W        W42053  15.051   1.416  11.528 -0.2469 -0.1388  0.1870
25207W        W42054  16.834  17.478  15.385  0.0329  0.0186  0.2755
25208W        W42055   3.742  11.247   4.480  0.1334  0.0495  0.0511
25209W        W42056   4.267   0.172  12.409 -0.0230 -0.0891  0.4063
25210W        W42057  12.599   2.017   1.677  0.0686 -0.0728  0.0228
25211W        W42058   8.492   8.192   4.150 -0.1264  0.0224  0.2261
25212W        W42059  10.804   8.170   0.113 -0.0023 -0.0991 -0.0186
25213W        W42060  13.386   5.645  12.941 -0.3157 -0.1321 -0.3324
25214W        W42061  13.800  15.361   0.008  0.3997  0.1138  0.2068
25215W        W42062   3.414   9.263  14.847 -0.2486  0.3716 -0.1366
25216W        W42063   1.675   4.852  14.757 -0.0073  0.0656 -0.3474
25217W        W42064  10.374  17.929  16.300 -0.0379  0.1044 -0.1764
25218W        W42065   9.041   3.247   4.138  0.0234 -0.0615  0.0296
25219W        W42066  18.023  16.165  15.664 -0.1262 -0.3074 -0.1159
25220W        W42067   6.062  14.769  12.829  0.1858 -0.0985 -0.1207
25221W        W42068  13.905  12.262   3.593  0.1022 -0.0319  0.1089
25222W        W42069   4.006   4.118  15.014  0.1635 -0.3185 -0.0863
25223W        W42070   0.386  15.963  12.705  0.3602 -0.3606 -0.2440
25224W        W42071   7.364  17.585   2.586 -0.1875  0.2816  0.1583
25225W        W42072  14.097  13.574   5.997 -0.1903 -0.4546 -0.2063
25226W        W42073  11.083   9.585  14.110 -0.2602 -0.0319  0.1358
25227W        W42074  13.892  15.588   3.058  0.1826 -0.2080 -0.0089
25228W        W42075   1.945  17.606  13.291  0.1413  0.1681  0.1088
25229W        W42076   8.537   1.520   2.687 -0.3455  0.2337 -0.2129
25230W        W42077  17.815  13.579   5.207  0.4249  0.1040  0.0603
25231W        W42078   2.397   9.594  14.985  0.1090  0.3431  0.1564
25232W        W42079   6.650  14.954  14.574  0.0803 -0.0548 -0.2258
25233W        W42080   0.020  11.573  13.697 -0.4969 -0.0913 -0.3347
25234W        W42081   0.372   1.933   1.185 -0.2085  0.0493  0.2118
25235W        W42082  15.626  10.608   4.148  0.0652 -0.4493  0.1572
25236W        W42083   7.633   4.054  12.832 -0.1348  0.1350 -0.1553
25237W        W42084  13.502  16.929  12.818  0.3311  0.0691  0.1051
25238W        W42085  16.923   9.750   4.098 -0.0995 -0.0865 -0.1077
25239W        W42086  16.709   0.434   2.335 -0.1414 -0.5079  0.0213
25240W        W42087  17.226   6.962   1.917 -0.0159 -0.0760  0.3446
25241W        W42088   8.263   4.451  13.330 -0.0738  0.0457  0.0952
25242W        W42089   0.855  13.069   4.704  0.2228 -0.1310 -0.1398
25243W        W42090  16.685  14.204  13.872 -0.0443  0.1714  0.4260
25244W        W42091   2.455  13.668   3.959 -0.3790 -0.0362  0.2954
25245W        W42092  15.739   2.496   1.733  0.0747  0.0479 -0.3366
25246W        W42093  10.251   4.203   5.619  0.1410 -0.0815  0.2159
25247W        W42094  16.788  15.386   0.250  0.4148  0.0817 -0.3364
25248W        W42095   4.702   0.206   3.066  0.1984 -0.2110 -0.2692
25249W        W42096   1.160  11.188  14.625  0.0290  0.0253 -0.2279
25250W        W42097   4.073  15.967   2.710  0.3089  0.2492 -0.0882
25251W        W42098   5.737  11.621  12.241  0.1927 -0.3238  0.2188
25252W        W42099  13.696  12.811   0.822  0.1298  0.0153  0.0793
25253W        W42100  14.785   5.954   3.775 -0.1812 -0.4551 -0.0488
25254W        W42101   3.845  13.543  14.179  0.2026 -0.1807 -0.0516
25255W        W42102   6.652   3.395   4.475  0.4633  0.2329  0.2016
25256W        W42103  17.033  14.976  15.136  0.1617  0.6638 -0.1158
25257W        W42104  18.045  17.326  14.929  0.1342 -0.1839  0.0798
25258W        W42105   3.404  17.197   0.564 -0.0615 -0.4520  0.0109
25259W        W42106  10.915  14.324   2.379  0.3681  0.0464 -0.0870
25260W        W42107   3.865   6.242  10.745  0.1907  0.0979  0.1034
25261W        W42108   4.357   3.465  14.509  0.0003  0.1020 -0.1015
25262W        W42109   3.421   2.300  13.949 -0.0389  0.1586 -0.2806
25263W        W42110   8.210   4.216  11.532  0.0761  0.1404 -0.2239
25264W        W42111  18.305  12.025  14.320 -0.1135  0.1657 -0.0246
25265W        W42112   9.489   1.103  13.818 -0.0002 -0.0515 -0.1416
25266W        W42113   2.477  11.655  13.234 -0.1748 -0.2532  0.2866
25267W        W42114  10.336   6.848  14.648 -0.0304 -0.2516 -0.4215
25268W        W42115   3.713   2.368  13.436  0.1191  0.0097 -0.0729
25269W        W42116   6.991   5.124   0.249 -0.0152 -0.0408  0.0677
25270W        W42117  13.178   0.563  11.935  0.0368  0.0132  0.0238
25271W        W42118   7.408   7.333   3.782 -0.0903 -0.0493  0.0969
25272W        W42119   5.439   6.674   5.133  0.3428  0.0630  0.1349
25273W        W42120   8.429   9.503   3.243 -0.1360 -0.0297 -0.1005
25274W        W42121  18.344   2.766   0.101  0.3642  0.2237  0.3108
25275W        W42122   7.709  10.347   5.351  0.1629 -0.1778 -0.3734
25276W        W42123   8.034  15.954   1.267  0.2226  0.1415  0.2502
25277W        W42124   0.947   9.198   5.599 -0.1977  0.3891 -0.3257
25278W        W42125   3.671  15.319   3.219  0.1225  0.3767 -0.1554
25279W        W42126   4.768  15.677   4.235 -0.1265  0.0774 -0.0415
25280W        W42127   3.681   5.382  12.226  0.0259 -0.2376 -0.2632
25281W        W42128   2.986   9.601   0.544  0.0658  0.0037 -0.2971
25282W        W42129   6.071  10.633  14.291  0.1078 -0.2508  0.1629
25283W        W42130  14.568  13.402  16.068 -0.2514 -0.3317  0.1123
25284W        W42131  13.086   6.376   2.271 -0.1226 -0.2240  0.0557
25285W        W42132  14.713   2.403  16.143  0.0945 -0.0706  0.0602
25286W        W42133   2.951  17.157   2.145 -0.2029  0.0390 -0.3901
25287W        W42134   4.969  12.530  12.567  0.1733  0.1233  0.1393
25288W        W42135   8.889   7.297   0.622  0.0346  0.0984  0.0401
25289W        W42136   5.117   0.045   5.493  0.0190  0.1045 -0.1506
25290W        W42137   0.672  11.504  13.301  0.2063  0.1028 -0.1733
25291W        W42138   4.932  12.495  15.783 -0.1094  0.0050 -0.1097
25292W        W42139   4.013   8.778  15.785  0.3287 -0.0151 -0.1423
25293W        W42140   4.125   8.363  15.485  0.0790 -0.0172  0.1450
25294W        W42141   0.130   0.521   2.631  0.0200 -0.1255 -0.1554
25295W        W42142   0.326   9.619  14.384 -0.3502  0.2064 -0.2535
25296W        W42143  14.295   4.916   0.496 -0.0408 -0.2570 -0.3623
25297W        W42144  18.242   3.343   2.110  0.3092  0.3072 -0.3723
25298W        W42145   1.867  16.537  16.183 -0.1314  0.1232 -0.0059
25299W        W42146  13.522   8.311  12.546 -0.0019 -0.2163 -0.1917
25300W        W42147  10.574   0.322  15.851  0.1693 -0.1003  0.0425
25301W        W42148  10.157   5.810   4.288 -0.0730 -0.0472  0.0619
25302W        W42149   7.560  13.316  13.986 -0.2443  0.0490 -0.2409
25303W        W42150   7.992   6.158  13.315 -0.0554 -0.0112 -0.0968
25304W        W42151   2.018   2.352  14.547  0.2107 -0.1995 -0.0022
25305W        W42152  13.702   7.584  16.346 -0.1305  0.0544 -0.0579
25306W        W42153   4.661   0.551   4.551 -0.2093 -0.0895  0.1503
25307W        W42154  12.531  13.139  12.746 -0.2008  0.3571  0.0507
25308W        W42155   1.404   8.691  15.086 -0.1615  0.1866 -0.0165
25309W        W42156  18.039   2.390   1.629 -0.0330 -0.0749 -0.1829
25310W        W42157  13.322  14.882  13.928  0.0509 -0.1971 -0.0800
25311W        W42158  13.255  17.449  11.767 -0.2417 -0.1814 -0.1264
25312W        W42159   0.860  16.999  14.501  0.2122  0.0949  0.0189
25313W        W42160  13.096  15.577  12.629  0.1791  0.0034  0.0026
25314W        W42161  11.952   0.628   4.938 -0.0058  0.1348 -0.1886
25315W        W42162   4.593   2.308  13.789  0.1094  0.0111  0.0416
25316W        W42163  16.324   0.565  16.129  0.0830  0.0161 -0.0119
25317W        W42164   6.176  12.742   5.438  0.0256  0.0537 -0.1892
25318W        W42165  14.009   4.900   2.690  0.0452 -0.1147  0.0847
25319W        W42166  11.888  13.417  14.727 -0.1206 -0.1684 -0.0492
25320W        W42167  18.131   7.628  14.990 -0.1886  0.1130  0.1249
25321W        W42168  13.350   9.572  13.146 -0.1344  0.1394 -0.1327
25322W        W42169  16.219  14.759   4.026 -0.3197 -0.2346  0.0830
25323W        W42170   3.798   5.077  12.871 -0.2887 -0.1101 -0.1696
25324W        W42171  10.059   0.015   2.991 -0.2148 -0.1233 -0.2064
25325W        W42172  11.511  18.140  13.344 -0.0500 -0.0373  0.2830
25326W        W42173  13.283  17.185   3.899  0.2896  0.3269 -0.1061
25327W        W42174  10.726  10.887  13.508 -0.1702 -0.1022 -0.1023
25328W        W42175   0.032  12.674   0.240  0.0871 -0.0705 -0.3792
25329W        W42176  17.758   4.644   1.097  0.2296 -0.0799  0.0588
25330W        W42177  15.158   1.796   1.911  0.0900 -0.2292 -0.0968
25331W        W42178   0.876   6.004  11.732  0.0795  0.0775  0.0626
25332W        W42179   0.375  18.149   0.025 -0.1790 -0.0607 -0.0430
25333W        W42180  11.054   4.180   2.470 -0.0600 -0.1224 -0.1829
25334W        W42181  10.247   7.760   2.590 -0.0277 -0.3778  0.1144
25335W        W42182   7.582  17.903   1.217 -0.1332 -0.3164 -0.0698
25336W        W42183   8.669  13.462   3.282  0.0807 -0.2102  0.2043
25337W        W42184  10.784   7.821  12.755 -0.1044 -0.0196 -0.0077
25338W        W42185   6.029   7.472  12.059 -0.0603 -0.1370 -0.0133
25339W        W42186   2.489  11.194   3.628  0.1502  0.0003  0.2863
25340W        W42187   9.047   8.164   3.176  0.1132  0.2291  0.0148
25341W        W42188  16.864   7.990   3.687  0.4950 -0.2027 -0.0117
25342W        W42189   4.716   6.810  11.557  0.4139  0.2267 -0.2336
25343W        W42190   3.881  11.272  13.238 -0.1203  0.0920  0.1902
25344W        W42191   0.920  12.936   1.334 -0.1083 -0.0323 -0.0523
25345W        W42192  18.143   4.664  14.991  0.1616  0.0248  0.0484
25346W        W42193   7.090   6.668  11.344 -0.0708  0.1891  0.0016
25347W        W42194   1.368  11.048   1.311  0.1030 -0.2556 -0.0010
25348W        W42195  15.882  14.682   1.831 -0.1430  0.0636  0.2392
25349W        W42196  16.235   6.978   2.841  0.1368 -0.0930 -0.2100
25350W        W42197  18.187  16.116   1.100  0.3313 -0.1904 -0.2398
25351W        W42198  11.773   6.013   1.045  0.1290  0.2213 -0.1817
25352W        W42199   7.541  15.050   5.525 -0.1253  0.3104 -0.0400
25353W        W42200   8.915   7.622  13.719  0.1849 -0.0834 -0.3991
25354W        W42201  18.243   2.407  13.091 -0.0084 -0.0784 -0.0514
25355W        W42202   2.110  17.885  11.368 -0.0686 -0.3247 -0.3164
25356W        W42203  14.287  14.951   5.269 -0.3493  0.1097  0.0209
25357W        W42204   8.376   7.242   6.074 -0.0300  0.3040  0.0275
25358W        W42205  14.403  13.362   4.784  0.0567  0.0791  0.2403
25359W        W42206  11.866   5.780   1.519  0.0897 -0.1170  0.2576
25360W        W42207  14.567   2.727   0.953  0.0817 -0.0108  0.0781
25361W        W42208   4.059   8.361   1.067  0.0562  0.0116 -0.1012
25362W        W42209   8.258   6.801   3.083  0.1252  0.0695  0.0856
25363W        W42210   8.305  18.400   0.958  0.1036  0.2336 -0.2293
25364W        W42211  12.851   5.571  13.043 -0.4406 -0.0736 -0.1473
25365W        W42212   9.096  15.751  13.902  0.0438 -0.0473 -0.1023
25366W        W42213   8.001  15.919  15.040  0.3676 -0.0050 -0.0342
25367W        W42214   6.875  14.183   1.135 -0.2334  0.3956  0.0630
25368W        W42215  14.923   9.557   4.073 -0.0622 -0.0720 -0.3207
25369W        W42216   2.958   0.922   3.428  0.0392 -0.0376 -0.2494
25370W        W42217  12.256  14.660   4.184 -0.1982  0.1085 -0.1245
25371W        W42218   1.595   7.629  12.727 -0.1645  0.1038  0.1458
25372W        W42219  11.963   4.668   2.273 -0.0649  0.1030  0.2526
25373W        W42220  13.595  10.028   3.283  0.0045  0.0498  0.2159
25374W        W42221   5.076  12.076  14.940 -0.0481  0.1472 -0.0792
25375W        W42222   1.123   8.172   4.462 -0.2570 -0.0031 -0.0958
25376W        W42223   6.952  15.327   1.894 -0.1366  0.0990 -0.3375
25377W        W42224   6.981   7.554  13.472  0.0639  0.0531 -0.3485
25378W        W42225   9.652  11.302   1.056  0.0821 -0.4716  0.0869
25379W        W42226  15.909  15.821   5.002 -0.1638 -0.1196 -0.1821
25380W        W42227  12.678   8.113   4.595 -0.1371  0.1546 -0.1273
25381W        W42228  15.148   9.162   4.261  0.2391 -0.0510  0.0822
25382W        W42229   9.887   3.846   5.423  0.0284  0.2434 -0.0938
25383W        W42230  14.576  12.816   3.667 -0.0683 -0.1636  0.0488
25384W        W42231   9.645   0.437  15.000  0.3610 -0.0594  0.2746
25385W        W42232   7.662  16.848  14.289  0.0131  0.1008 -0.0513
25386W        W42233   6.875  15.848  14.132 -0.0125 -0.3610 -0.0748
25387W        W42234  18.180   7.573   5.263  0.1104  0.0079 -0.1014
25388W        W42235  13.761  10.468  12.240  0.0735  0.1260 -0.0143
25389W        W42236   6.635   6.239  11.912 -0.1025 -0.2933  0.1409
25390W        W42237   7.318   2.345   4.445  0.0355  0.2745 -0.0597
25391W        W42238   4.734   0.852   0.094 -0.3164  0.1137  0.2197
25392W        W42239  15.109  11.922  15.642  0.1995 -0.0686  0.0005
25393W        W42240   6.396  17.605   2.510  0.0795  0.2410  0.1011
25394W        W42241   8.907   1.415   3.513 -0.1207 -0.2217  0.3887
25395W        W42242  12.421   6.595   5.767 -0.2399  0.0628  0.1343
25396W        W42243   9.553  17.348   2.408  0.0858 -0.1036  0.2204
25397W        W42244  17.213  13.479  15.287  0.0035  0.0772  0.0753
25398W        W42245  12.247  11.894  13.439 -0.1592 -0.0916 -0.4211
25399W        W42246   6.082   5.055   5.183 -0.1812  0.0425 -0.0037
25400W        W42247   7.009  13.023   4.346  0.1654 -0.0833 -0.1248
25401W        W42248  11.767   3.040   5.184 -0.3960  0.1044 -0.0558
25402W        W42249   6.861  15.979   6.486 -0.2560  0.0326  0.0753
25403W        W42250   0.929  14.107  13.887 -0.0508 -0.1684  0.4459
25404W        W42251  10.631   9.524  13.351 -0.1855 -0.1232 -0.2470
25405W        W42252  16.170   9.050   2.151 -0.1111 -0.1664 -0.0422
25406W        W42253   6.689  11.874  11.559 -0.1550 -0.0755  0.1687
25407W        W42254  12.458   9.354  12.749 -0.2555 -0.0163  0.1261
25408W        W42255   4.204   5.183  12.246  0.2259  0.0009  0.1078
25409W        W42256   8.125   3.883   0.487  0.0857 -0.0754  0.0181
25410W        W42257  12.368   3.329  14.609  0.0744 -0.0595  0.2743
25411W        W42258  17.976  17.326  15.530  0.0179 -0.0557 -0.0958
25412W        W42259  10.486  15.408  13.104  0.2012 -0.4496 -0.0630
25413W        W42260  14.007  12.172   4.619 -0.0479  0.1020  0.2735
25414W        W42261   5.039  18.196  13.532 -0.1385  0.0516 -0.1823
25415W        W42262   5.416  11.919   2.495  0.2301  0.0667 -0.2279
25416W        W42263  13.279   5.211   1.877  0.4379  0.1205  0.1219
25417W        W42264  11.941   5.742   2.828  0.0759 -0.2433 -0.2297
25418W        W42265   8.768   9.819   3.170 -0.2535  0.3484 -0.1514
25419W        W42266  14.037  10.470  14.514  0.3537  0.3609  0.2279
25420W        W42267   0.483   2.981  13.541 -0.3101  0.0301 -0.1183
25421W        W42268   6.512   2.401   4.658 -0.2661  0.3863  0.2218
25422W        W42269   7.473  13.243   2.428  0.2212  0.2719  0.1029
25423W        W42270  12.503   5.817  14.429  0.2589 -0.1033 -0.2066
25424W        W42271   3.260  14.669  14.968 -0.0678  0.0100 -0.1148
25425W        W42272   9.163   5.820  14.720  0.0894  0.0690  0.1432
25426W        W42273   5.161   1.230   4.862 -0.1568 -0.0397 -0.2042
25427W        W42274   9.094  14.418   0.844  0.3744 -0.1693  0.2490
25428W        W42275   5.124  18.311   0.486 -0.2224  0.0656 -0.0392
25429W        W42276  13.138   4.060  13.269 -0.0434 -0.1197 -0.0222
25430W        W42277   5.952  11.383   0.399  0.0543 -0.0896  0.2727
25431W        W42278  15.729  15.120  15.418 -0.0264  0.3637  0.2695
25432W        W42279  16.395   8.457   2.956  0.0550  0.0688 -0.0855
25433W        W42280  11.188  16.860   2.187 -0.0611 -0.0466  0.1194
25434W        W42281  10.582  10.617   4.763 -0.0264  0.0143 -0.0855
25435W        W42282   1.108   1.912  12.726  0.1676 -0.1202 -0.0303
25436W        W42283   9.135   5.108   1.390  0.1230  0.2750  0.2493
25437W        W42284   5.118   1.981  13.006  0.2113  0.2625  0.2379
25438W        W42285  15.683   6.449   5.291  0.0130  0.1532  0.1395
25439W        W42286  18.254  16.343   4.226 -0.0726 -0.1778 -0.4164
25440W        W42287   4.167   6.887   1.690 -0.4364 -0.2970 -0.1012
25441W        W42288   8.536   3.322   5.189  0.0795 -0.0173  0.2314
25442W        W42289  13.313   6.781  16.116 -0.0801 -0.0985 -0.2645
25443W        W42290  17.664  13.992   3.486  0.0744  0.0725 -0.4285
25444W        W42291   5.909  13.103  13.331 -0.1065  0.0703 -0.0520
25445W        W42292   4.990  13.968   3.843  0.1533 -0.1809  0.0513
25446W        W42293   9.808   1.616   3.689  0.0986  0.1014  0.1164
25447W        W42294   1.211  12.086  15.298 -0.0690  0.0623 -0.2534
25448W        W42295   3.083   5.446  15.978  0.2402 -0.3696  0.1726
25449W        W42296   8.207  12.304   1.084  0.0708 -0.0353  0.0132
25450W        W42297  14.317  12.608  12.959 -0.0342 -0.4534  0.1962
25451W        W42298   9.432  13.920  12.203  0.0453 -0.4042  0.0888
25452W        W42299   2.405   4.702   4.481 -0.1258  0.0921 -0.0326
25453W        W42300   8.023  14.749   1.085 -0.3685 -0.0395 -0.0695
25454W        W42301   3.615  12.183   4.086 -0.0118 -0.1470 -0.0459
25455W        W42302  14.037   5.180  12.543 -0.2054 -0.1060  0.0631
25456W        W42303   1.952  11.673   1.505 -0.2956  0.1635  0.1118
25457W        W42304  13.495  14.085   2.447  0.1163 -0.0983 -0.4137
25458W        W42305   7.971   5.996   3.555  0.2497 -0.3258 -0.0301
25459W        W42306  13.983   7.472  15.513 -0.2342 -0.1441  0.1347
25460W        W42307  12.682   3.497  12.931 -0.0225 -0.2615  0.1484
25461W        W42308   7.959   8.472  13.627 -0.2008 -0.2159  0.0287
25462W        W42309   2.281  12.651  15.906  0.0017  0.1438 -0.2796
25463W        W42310   5.321  14.627  13.403 -0.2163  0.0034  0.1507
25464W        W42311  16.659  13.702   4.961 -0.0457 -0.0969 -0.1379
25465W        W42312   8.699   0.773  12.551 -0.0941 -0.1681  0.0480
25466W        W42313  11.239  11.466   2.743  0.1607  0.2277  0.0821
25467W        W42314  18.088   8.755   2.273 -0.1957 -0.3881 -0.2350
25468W        W42315   7.086   6.248  13.752 -0.0515 -0.0922  0.0352
25469W        W42316   7.407   9.283   2.538 -0.2958  0.3419 -0.0790
25470W        W42317   2.096  16.407  14.498 -0.0287 -0.0218 -0.0982
25471W        W42318   0.045   6.007   2.075  0.1715  0.0113  0.1120
25472W        W42319   7.928  16.566   2.498  0.1808  0.3255  0.0041
25473W        W42320  10.270   5.273   1.511 -0.2590 -0.1751  0.0923
25474W        W42321   4.948   3.830   4.531 -0.0696 -0.2226 -0.4361
25475W        W42322   6.069   4.918  16.348  0.1145 -0.0502  0.0263
25476W        W42323   8.133  15.872  14.520  0.1040 -0.2423  0.1308
25477W        W42324  11.050   4.159  14.459  0.0147  0.1113  0.0440
25478W        W42325   2.909   2.820   3.096  0.1048 -0.1582  0.1169
25479W        W42326   0.167  17.527   4.924  0.3588  0.0600  0.0371
25480W        W42327   4.348   2.987  14.348  0.1585 -0.2049 -0.1186
25481W        W42328   2.071   9.299  12.197 -0.3369 -0.1506  0.2713
25482W        W42329   5.455  13.705  11.773 -0.2916 -0.1343 -0.1103
25483W        W42330  17.136   1.460   1.810 -0.1464  0.2107 -0.0580
25484W        W42331  16.838  12.451   4.962 -0.0124  0.0422  0.2858
25485W        W42332  13.089   2.986   0.362  0.0319 -0.0000 -0.3433
25486W        W42333  13.532   1.624  14.356 -0.0902  0.0474  0.1343
25487W        W42334  15.970  16.079   2.676 -0.0504  0.1465 -0.0430
25488W        W42335  11.802  16.167   1.920  0.3132  0.1501  0.0187
25489W        W42336   3.816   2.434  12.370 -0.1242 -0.3073 -0.1571
25490W        W42337  15.808  16.409   6.132  0.1502 -0.0833 -0.1968
25491W        W42338   6.392   9.052   4.123  0.0338  0.2608 -0.0639
25492W        W42339   8.571   8.922  14.955 -0.2623 -0.1221 -0.1469
25493W        W42340   4.366  17.184   3.699  0.0301  0.1845 -0.1272
25494W        W42341   5.786   2.884  15.161 -0.0043 -0.2992 -0.0054
25495W        W42342  16.746   6.054  14.447  0.2644 -0.0997  0.1459
25496W        W42343   0.937   5.382  14.892  0.1512  0.0475  0.1377
25497W        W42344  16.532   9.073  15.213 -0.0477 -0.0616  0.1108
25498W        W42345   8.027  16.975  12.892  0.1376  0.0384 -0.1696
25499W        W42346  10.787  12.130   0.406 -0.0995 -0.1014  0.0320
25500W        W42347   4.128   8.502   0.544  0.3024 -0.0183  0.0810
25501W        W42348   3.341  10.766  12.557  0.1336 -0.1019  0.0787
25502W        W42349  10.474   3.727   5.635  0.1263 -0.2475 -0.2579
25503W        W42350  11.933   9.322  15.850  0.1304  0.0238  0.0365
25504W        W42351   6.432  16.670   0.837  0.1004 -0.1304  0.0028
25505W        W42352  12.858  14.368   4.722  0.1893 -0.1466  0.1178
25506W        W42353   8.885  13.259  12.171  0.0980 -0.1378 -0.0609
25507W        W42354   3.084  15.843  14.404 -0.4222  0.2507  0.1781
25508W        W42355   8.083   9.523   5.230 -0.3803  0.0105 -0.5183
25509W        W42356  14.352   5.663   3.776  0.0373 -0.0138  0.4561
25510W        W42357  12.916   9.264   2.167  0.1792 -0.1203 -0.3821
25511W        W42358  16.262   5.610  11.596  0.0246  0.0553  0.2006
25512W        W42359   3.393   0.329   4.625 -0.1113  0.0766 -0.0672
25513W        W42360  16.134  16.583   1.850  0.2614 -0.0194 -0.2322
25514W        W42361   7.085  12.114  13.147  0.0181 -0.1193  0.3109
25515W        W42362  15.504   7.493  13.910 -0.1732  0.4228 -0.1520
25516W        W42363  14.068  13.286  14.862 -0.0075  0.1960 -0.1883
25517W        W42364   8.930   5.743  11.426 -0.1356  0.0458 -0.0755
25518W        W42365   6.371  10.652  11.969 -0.3771 -0.0504  0.0330
25519W        W42366   3.804   0.905   3.917  0.1944  0.2194 -0.0216
25520W        W42367   4.469  14.056   5.507  0.0209 -0.0691  0.0907
25521W        W42368  15.410   2.859  10.498 -0.0017 -0.5176  0.3049
25522W        W42369  14.332  13.739   0.006  0.0340 -0.2314 -0.1807
25523W        W42370   4.400  14.480   3.500  0.4217  0.2754  0.1035
25524W        W42371   2.417  10.355  15.763 -0.2159  0.3054  0.1169
25525W        W42372  10.949   6.121   1.510 -0.2421 -0.0549 -0.3072
25526W        W42373   9.185   9.381  13.705  0.2360  0.3297  0.1278
25527W        W42374  12.139  16.195  12.597 -0.0261  0.0798 -0.1793
25528W        W42375  11.844  14.439   5.654 -0.2414 -0.1694  0.3551
25529W        W42376  16.290   3.104  14.581  0.0624 -0.0745  0.0798
25530W        W42377   7.160  15.674   5.551  0.2500 -0.0240  0.3262
25531W        W42378   0.993   4.337   4.289 -0.1028  0.1259  0.0948
25532W        W42379  16.203  12.528   0.055 -0.2085  0.1583 -0.2559
25533W        W42380   2.013  16.533   4.892  0.2155 -0.0697 -0.2288
25534W        W42381   9.653   0.574   4.567 -0.0929  0.0984  0.1145
25535W        W42382  10.704  15.613   2.688  0.0352  0.1693  0.1898
25536W        W42383  14.631  10.588  15.748  0.0508 -0.2271  0.2480
25537W        W42384   4.828  12.937  13.279 -0.0969  0.1901 -0.0648
25538W        W42385   5.919   4.081   2.629  0.1157 -0.1809 -0.0099
25539W        W42386   0.580  16.595   0.215 -0.1856 -0.0349  0.1033
25540W        W42387   8.225  16.252   4.890 -0.0909  0.3243  0.1786
25541W        W42388  12.918  14.043   1.736  0.3059  0.0062  0.2191
25542W        W42389  12.882  17.317   2.328 -0.1090 -0.0305  0.0100
25543W        W42390  14.444   5.208   2.492  0.0197 -0.1390  0.1985
25544W        W42391   8.723   3.630  13.676 -0.2591 -0.1644  0.1998
25545W        W42392   2.527   3.633  14.483 -0.0491 -0.1827  0.0116
25546W        W42393  17.252  11.913  13.110 -0.0721  0.5375 -0.3286
25547W        W42394   1.212  12.204  11.696  0.0422  0.0818  0.1015
25548W        W42395  16.473  17.309   0.228 -0.1360 -0.1937 -0.1400
25549W        W42396  17.901   3.760  15.381 -0.1159  0.0055  0.0480
25550W        W42397   3.027   3.581  12.784 -0.2055  0.2619 -0.1022
25551W        W42398  11.652   3.604   5.270 -0.2236  0.0575  0.1114
25552W        W42399  14.093   5.962  15.517 -0.0914  0.0957 -0.4170
25553W        W42400  13.931  16.076  12.833  0.0688 -0.0608  0.0855
25554W        W42401   6.449  11.560   3.000  0.1891 -0.0789  0.2208
25555W        W42402  17.955  11.079   4.622  0.0113  0.0684 -0.0444
25556W        W42403  16.685  11.234   3.555 -0.4474  0.0212  0.0164
25557W        W42404  13.705  11.477   1.408 -0.2443  0.2006  0.0090
25558W        W42405  11.110   8.680  11.709 -0.0337  0.1359  0.2112
25559W        W42406   0.286   5.815  10.898  0.0728 -0.0191  0.2511
25560W        W42407  14.459   5.377  14.604  0.1262 -0.0496 -0.0814
25561W        W42408   6.803  11.532   1.799 -0.0179 -0.0368 -0.2053
25562W        W42409  13.753  15.376  15.096  0.2532  0.1824 -0.1074
25563W        W42410   6.032  17.632   6.192  0.2275  0.0230  0.2571
25564W        W42411   8.600  15.347   2.112  0.2267  0.0788 -0.1718
25565W        W42412  17.813  12.557   3.463 -0.3007  0.3516 -0.1583
25566W        W42413   6.408  12.386   6.292  0.3760 -0.1077  0.1092
25567W        W42414   5.335   2.624  14.058 -0.0359  0.1478  0.0901
25568W        W42415  17.114  11.679   0.621  0.1909  0.0632  0.1489
25569W        W42416  17.476   3.382  11.083  0.0492  0.3479 -0.3974
25570W        W42417   3.558  15.136   5.585  0.0599  0.1064  0.0333
25571W        W42418   5.855  13.266   2.875  0.1697 -0.1967 -0.2166
25572W        W42419  11.620  18.276  12.910  0.2300  0.1136  0.0688
25573W        W42420  15.716   3.547   0.821  0.3000  0.2831  0.0222
25574W        W42421   2.470  10.676  12.960  0.0439 -0.2727  0.1750
25575W        W42422   2.254   1.327   3.884 -0.3142  0.0177  0.4123
25576W        W42423  15.800   0.715  10.739  0.0399  0.1540  0.0147
25577W        W42424   2.035  13.731   3.632  0.0068 -0.1319  0.6065
25578W        W42425  15.422  11.979   1.786 -0.1029 -0.1392 -0.3604
25579W        W42426  14.956   5.274  12.522 -0.0778  0.1137 -0.0387
25580W        W42427  15.932  10.804  12.022  0.0985 -0.0053  0.2817
25581W        W42428  13.804   4.371   1.328 -0.1121 -0.3974 -0.3240
25582W        W42429  12.084  13.451  15.991 -0.1815 -0.1211 -0.0790
25583W        W42430  16.789  11.623  11.824  0.0354 -0.3691  0.1291
25584W        W42431   5.009  15.093  13.929 -0.2178  0.1755 -0.4126
25585W        W42432   8.762   3.916   3.572  0.0482 -0.2904  0.1573
25586W        W42433   7.602   2.118   2.070 -0.2867  0.0357 -0.0468
25587W        W42434   3.018  17.305   0.085 -0.2955 -0.4169  0.4079
25588W        W42435   9.048   5.449  13.823 -0.1198 -0.2954 -0.1152
25589W        W42436  15.261  15.939   1.724 -0.1146 -0.1635 -0.0125
25590W        W42437   7.857   5.481   5.006 -0.1608  0.2071 -0.1732
25591W        W42438  12.433   5.841   0.260 -0.2096 -0.0752 -0.1190
25592W        W42439   0.301  17.439   2.748 -0.1175 -0.0965 -0.1269
25593W        W42440   7.462  13.618  14.533  0.0327 -0.2176  0.1199
25594W        W42441  14.423   1.238  15.707 -0.0496  0.1489 -0.0287
25595W        W42442   9.301   7.673   3.210 -0.1424  0.1310  0.1682
25596W        W42443   8.959  14.684  15.155  0.1919  0.0786  0.0609
25597W        W42444  12.997   8.504  16.315 -0.1931 -0.0126 -0.4448
25598W        W42445   4.069   7.386   1.452 -0.2283  0.1027  0.1330
25599W        W42446   8.889  14.514   1.964  0.1644 -0.1720 -0.0748
25600W        W42447   4.913  12.321   2.551 -0.2994 -0.2110 -0.0813
25601W        W42448   5.957   0.634  15.038 -0.1039 -0.0408 -0.1643
25602W        W42449  16.382  17.912  15.270 -0.1378 -0.0531 -0.3723
25603W        W42450   3.193  11.560   2.254 -0.2235  0.1230 -0.0897
25604W        W42451  11.521  13.898   0.753 -0.0443  0.0209 -0.2743
25605W        W42452   9.864   9.612  13.050  0.1856  0.0074 -0.0810
25606W        W42453   3.428  16.784   1.743 -0.2966 -0.1321 -0.0352
25607W        W42454   7.610  10.902   0.943  0.2602 -0.1293  0.1310
25608W        W42455  11.307   2.716   4.276 -0.1719 -0.0660  0.0679
25609W        W42456   5.988   8.761  12.645 -0.0421  0.0756 -0.2229
25610W        W42457   4.968   6.291  13.731 -0.0326  0.1639  0.0229
25611W        W42458   0.979  17.520  11.784 -0.1054  0.0156 -0.1406
25612W        W42459  10.047  17.877  11.898 -0.0765 -0.1712 -0.0017
25613W        W42460   1.575  18.239   5.823  0.1712 -0.0024 -0.1674
25614W        W42461   0.745  11.037  15.708 -0.0420  0.0787 -0.2528
25615W        W42462   8.971   6.897  13.534 -0.0874 -0.0939 -0.1688
25616W        W42463  11.589  17.427   2.671  0.0014 -0.3045 -0.0421
25617W        W42464  15.161  13.100  14.481 -0.0390  0.0966 -0.3187
25618W        W42465   2.740   6.810   0.601  0.2250 -0.3544  0.1662
25619W        W42466  13.618   8.334  15.120  0.0072  0.0077 -0.1054
25620W        W42467  18.248  12.549  11.250  0.1649 -0.0214 -0.2684
25621W        W42468   4.377   4.285  12.734  0.1305  0.2189  0.2220
25622W        W42469  10.821   3.241   3.812 -0.1400  0.1807 -0.2193
25623W        W42470  12.378   6.837  11.853 -0.1911  0.0600  0.1409
25624W        W42471   4.040  10.417  15.981 -0.0653  0.2617 -0.0257
25625W        W42472   7.289   4.490  12.092  0.1600 -0.1696 -0.0339
25626W        W42473   7.565  13.180  13.472  0.1632  0.0017 -0.0231
25627W        W42474   2.102  15.773  15.969 -0.2088  0.1351 -0.1061
25628W        W42475   3.443  11.277   5.211  0.3536  0.0621  0.0204
25629W        W42476   9.916   7.352   3.784 -0.2112  0.0460 -0.0619
25630W        W42477   1.948   2.914   2.647  0.1148 -0.2333  0.0039
25631W        W42478   4.875  15.111   5.663  0.0163 -0.0507  0.3331
25632W        W42479   1.599   8.171  13.509 -0.0214 -0.0520  0.0247
25633W        W42480  14.895   3.535  15.918 -0.2298  0.0950  0.1780
25634W        W42481   7.261  12.679   5.229  0.0723  0.1247 -0.0503
25635W        W42482   6.154  11.727  12.584 -0.2543  0.1936 -0.1921
25636W        W42483  10.921   9.397   0.288  0.0692  0.1799  0.1407
25637W        W42484  10.442   8.954  11.631 -0.1820 -0.0842 -0.1971
25638W        W42485  16.128   1.827  15.524  0.1607  0.1151 -0.0102
25639W        W42486  10.462  12.716   1.640 -0.0327 -0.1773  0.1034
25640W        W42487  13.125  17.226   4.410 -0.2104  0.3706 -0.0681
25641W        W42488   0.181  15.708  15.769  0.0252  0.0174  0.3621
25642W        W42489  16.352  14.044   5.461  0.0621 -0.1234  0.5221
25643W        W42490  15.203   0.547  15.765  0.1768 -0.2473 -0.1012
25644W        W42491  12.786  16.455  12.039 -0.0370 -0.0521 -0.0590
25645W        W42492   7.177  14.333  14.036 -0.0803 -0.0754  0.0526
25646W        W42493   3.971   3.102   0.992  0.0067 -0.0169 -0.0009
25647W        W42494   9.694  10.425   3.037  0.3042 -0.0669 -0.0516
25648W        W42495  16.565   0.910   2.584 -0.3342  0.0894 -0.0267
25649W        W42496   8.682   8.829  15.440 -0.0818  0.1820  0.1364
25650W        W42497  11.251   2.679  13.327  0.0085 -0.1895 -0.0172
25651W        W42498  18.241  10.593   0.123  0.3398  0.2441 -0.0060
25652W        W42499   0.238   1.096  15.566 -0.1255  0.0921 -0.2587
25653W        W42500   8.290   2.847   1.038  0.1806 -0.0498  0.0367
25654W        W42501  16.717   9.983  13.674 -0.2193  0.1880  0.2253
25655W        W42502   1.015   3.550   1.337  0.2029  0.0000 -0.0842
25656W        W42503   0.724   7.219  15.099  0.0367  0.0875 -0.1156
25657W        W42504  12.549  12.993   2.539 -0.2438 -0.3528 -0.1276
25658W        W42505   3.083  12.317  12.395  0.0326  0.1064  0.3221
25659W        W42506   6.234  12.003  15.650 -0.0123  0.2996 -0.0651
25660W        W42507  15.323  11.222  13.530 -0.1645 -0.5206 -0.0594
25661W        W42508  10.362   8.403  14.231  0.1216 -0.1080  0.0212
25662W        W42509   3.211   2.979   4.554  0.1907  0.2528  0.0200
25663W        W42510  15.927  10.221  15.797 -0.0907  0.1882 -0.1724
25664W        W42511  15.086  14.243   2.820 -0.1103  0.1470 -0.1991
25665W        W42512   7.623   4.048   0.315  0.1139 -0.3691  0.0512
25666W        W42513   4.310  10.819  12.950 -0.1738 -0.1378 -0.0094
25667W        W42514  14.458  14.583   4.086  0.1822 -0.0728 -0.1445
25668W        W42515   2.211  17.786   2.249 -0.0904  0.1084  0.3050
25669W        W42516   5.117  14.500   4.674  0.1251  0.2145 -0.0942
25670W        W42517   8.458   3.845  16.313 -0.2049 -0.1828  0.4226
25671W        W42518   5.619  14.397   4.760  0.0299 -0.0417 -0.1813
25672W        W42519  10.634   3.280  15.929  0.3561 -0.0090 -0.1069
25673W        W42520   8.678  14.432   2.992 -0.2711  0.2737  0.2713
25674W        W42521   6.856   8.876   2.327 -0.0601  0.0703 -0.0753
25675W        W42522   2.108  16.741  15.729  0.1023 -0.1432  0.0373
25676W        W42523  15.366   0.880   4.015  0.1093  0.1714 -0.2464
25677W        W42524   5.552  12.525   0.188 -0.0410 -0.2559  0.1222
25678W        W42525  10.184  14.976   0.974  0.1386 -0.1330 -0.0450
25679W        W42526   2.482   1.436  11.781 -0.0143 -0.1815 -0.2059
25680W        W42527   1.286  16.420  13.031  0.0046 -0.0229 -0.0154
25681W        W42528  17.186  18.379   1.872 -0.1235 -0.1965 -0.2280
25682W        W42529  14.094   1.950  15.617  0.0556 -0.1216 -0.3045
25683W        W42530  11.424   9.088   1.417 -0.1545 -0.2548 -0.1665
25684W        W42531   5.627   5.926  14.319  0.0418  0.4412 -0.0723
25685W        W42532  15.568   8.992  15.105  0.2406 -0.3946  0.1154
25686W        W42533  16.199  13.218   1.340  0.2757  0.2429 -0.0749
25687W        W42534   0.012   7.524  13.058 -0.2199  0.1529 -0.1102
25688W        W42535   0.539  13.733   0.441  0.0724 -0.0210  0.2785
25689W        W42536  12.719  11.670  12.247  0.3724  0.1530  0.2538
25690W        W42537   1.116   6.985   5.097  0.0013 -0.0800  0.1208
25691W        W42538   8.753   4.944   5.409 -0.0704  0.3213  0.2346
25692W        W42539  12.785  13.266   3.987  0.4553 -0.0985 -0.1567
25693W        W42540  17.871  12.772  14.073  0.1056 -0.0034  0.0932
25694W        W42541  10.181  17.463  14.982  0.0799 -0.1924  0.1375
25695W        W42542  12.015  13.850   3.804  0.1849 -0.0562 -0.0476
25696W        W42543  10.176  10.053  12.456 -0.2075 -0.0312  0.0342
25697W        W42544  16.850  10.963  12.320 -0.1901 -0.1515 -0.2461
25698W        W42545  12.252   9.565   1.583  0.0040  0.0890 -0.0807
25699W        W42546   6.973  10.827   1.046 -0.1565  0.2502 -0.3442
25700W        W42547   1.894   5.955  11.616  0.2083 -0.0534  0.2329
25701W        W42548   6.680  17.598   1.826  0.0280  0.2379 -0.0454
25702W        W42549  10.993   0.319   0.671 -0.0228 -0.0147 -0.2187
25703W        W42550   3.718  16.541  11.847 -0.1797 -0.2374 -0.1475
25704W        W42551  13.703   6.345  11.858 -0.3354  0.0415  0.0787
25705W        W42552  10.697  18.395   0.800 -0.1660 -0.0630  0.0535
25706W        W42553   5.609   3.991  10.152  0.1342 -0.2869  0.0383
25707W        W42554   3.051   8.140  12.699  0.1089  0.1366  0.0068
25708W        W42555   0.015   9.768  15.545  0.3131  0.0842  0.0111
25709W        W42556  10.742  10.451  13.762  0.4380  0.2008 -0.0754
25710W        W42557  10.215  14.652   3.610  0.0280  0.0786  0.2008
25711W        W42558   6.798   3.876   2.460 -0.0960  0.1489 -0.0791
25712W        W42559   4.319  10.862   1.462 -0.0322 -0.0915  0.1017
25713W        W42560  18.172   2.242  13.860  0.1597 -0.2213 -0.2128
25714W        W42561   2.627  13.105  12.566  0.2670  0.0062 -0.0334
25715W        W42562   1.417  15.072  14.735 -0.0067  0.1320 -0.0157
25716W        W42563  15.747  11.465  13.122 -0.3220  0.1943  0.0475
25717W        W42564  13.633  17.334  11.475 -0.2720 -0.4078 -0.2171
25718W        W42565  13.712  12.410   0.003  0.1813  0.2125  0.0889
25719W        W42566   9.820   9.229  13.532 -0.2770 -0.2347 -0.1476
25720W        W42567   2.655   7.179   2.722 -0.0101 -0.2312 -0.0978
25721W        W42568   3.617  14.740  13.449  0.0390 -0.2853 -0.0418
25722W        W42569  11.770  14.277  13.566 -0.1380  0.0058 -0.0066
25723W        W42570   0.180   3.818   3.509  0.3570  0.2469 -0.1905
25724W        W42571  12.546  17.838   5.256  0.4623  0.1718 -0.0730
25725W        W42572   5.844  15.676   4.234  0.2688 -0.2574  0.0060
25726W        W42573   7.151   1.082  12.999  0.1715  0.1309  0.0005
25727W        W42574  13.724   3.410   2.089 -0.2528  0.1707  0.0581
25728W        W42575  11.610  13.807  14.063  0.2535  0.1026  0.0690
25729W        W42576   2.317   6.138  11.364  0.0286  0.1357 -0.3200
25730W        W42577  17.656   9.143   3.688 -0.1246  0.3314 -0.1644
25731W        W42578   1.270  12.001   0.336  0.3680 -0.0376  0.0783
25732W        W42579   7.789  11.161  13.548  0.1747  0.0133  0.1536
25733W        W42580   0.671  10.946   5.353 -0.0284  0.1384 -0.1303
25734W        W42581  13.112  16.633  12.485 -0.0342  0.0936  0.0199
25735W        W42582   0.530  16.565   4.194  0.1063  0.0823 -0.3073
25736W        W42583   8.567  18.232  12.367 -0.2180  0.1479 -0.2058
25737W        W42584  13.119   7.021  11.401 -0.2142 -0.0428 -0.2598
25738W        W42585  13.780   7.640   2.874  0.0399 -0.2121  0.2148
25739W        W42586   2.814  16.857   6.444 -0.1335  0.0571 -0.1496
25740W        W42587   9.675   8.457   2.848  0.1824  0.0026  0.1941
25741W        W42588   4.290   2.400   0.117  0.2819 -0.1986 -0.0581
25742W        W42589  13.239  10.298   2.987 -0.0440  0.0651 -0.2843
25743W        W42590   9.297   2.521   2.730 -0.0601 -0.1434  0.1873
25744W        W42591  13.673   5.146  15.487 -0.0663  0.2313 -0.0559
25745W        W42592   5.558   3.569  13.980  0.1294 -0.1795 -0.2790
25746W        W42593   6.364   4.709   1.546 -0.0034 -0.0748  0.0793
25747W        W42594   6.037   8.417  15.448 -0.0994 -0.1585  0.1920
25748W        W42595  15.261  13.093   0.665  0.0095 -0.0350 -0.1045
25749W        W42596   6.116   0.256   3.395 -0.0279  0.0537  0.2769
25750W        W42597  10.859   9.264   2.680 -0.0408  0.3212  0.0689
25751W        W42598  16.439   8.456   0.689  0.0539  0.0565 -0.2321
25752W        W42599   3.533  10.782   4.544  0.1102 -0.4731  0.0737
25753W        W42600  13.041   5.164  14.638  0.3043 -0.0642  0.2021
25754W        W42601   8.687   0.426  16.134 -0.0103 -0.0173  0.2205
25755W        W42602   8.501   2.706  13.984  0.0985  0.0162 -0.0236
25756W        W42603  10.157  16.872   5.542 -0.1476 -0.0202 -0.2092
25757W        W42604   5.836  11.417   5.376  0.4913  0.1364 -0.3251
25758W        W42605   8.275   2.323  13.126  0.0030 -0.0930 -0.5299
25759W        W42606  17.038   6.025  13.190 -0.2263  0.2087  0.0410
25760W        W42607   7.952   9.551   0.398  0.1012  0.2096 -0.0578
25761W        W42608  12.586  13.851  12.916 -0.0354 -0.3452  0.0207
25762W        W42609  12.040   6.481  11.916  0.2274 -0.2041 -0.2856
25763W        W42610  14.988   0.805   5.318  0.0766  0.1499  0.1603
25764W        W42611   0.001   2.758  10.819  0.1188 -0.0674  0.4228
25765W        W42612   9.823   5.734   3.179  0.1606 -0.1930  0.0586
25766W        W42613  15.233   8.230   1.472  0.1666 -0.0831  0.0593
25767W        W42614  15.832  11.273   2.301 -0.2974 -0.0052  0.0366
25768W        W42615  10.029  18.324   5.388 -0.0839  0.0999  0.2509
25769W        W42616   2.021   2.880   4.172  0.0535  0.0357  0.0292
25770W        W42617   7.604   3.390  15.966  0.0485  0.2458  0.0986
25771W        W42618   4.366   4.674  11.025 -0.0774  0.1731  0.0048
25772W        W42619  14.333   2.446  11.557 -0.5111 -0.1005  0.0485
25773W        W42620  11.452  14.050  11.668 -0.1946 -0.0672  0.2115
25774W        W42621  15.755  13.576   0.084 -0.0058  0.1201  0.3079
25775W        W42622  10.506   2.363  11.807 -0.0775  0.0769 -0.0365
25776W        W42623   3.370  12.950  15.718 -0.0938 -0.1095 -0.0379
25777W        W42624   3.171   4.732   1.910 -0.1210 -0.2979  0.1290
25778W        W42625  10.326  18.348  12.768  0.0895  0.0700  0.2465
25779W        W42626   3.571  13.760  13.172  0.1244  0.3071 -0.0742
25780W        W42627   2.724   1.404   1.422  0.2022  0.1340 -0.1608
25781W        W42628   8.468   5.939   3.542 -0.0300  0.1000 -0.0233
25782W        W42629   1.285  12.406  11.034  0.1443 -0.2084 -0.0860
25783W        W42630   2.646  15.448   3.930  0.0284  0.1269 -0.1932
25784W        W42631   0.814  16.055   5.514  0.0547 -0.2365  0.4933
25785W        W42632  15.739   2.335  11.385  0.0446  0.1576 -0.1284
25786W        W42633  13.303  13.117  12.051 -0.0373 -0.3644  0.0242
25787W        W42634   9.966  17.059   4.557  0.0036 -0.1201 -0.1963
25788W        W42635   2.123  15.402  12.950 -0.2221  0.0432 -0.1612
25789W        W42636   7.835   7.583   3.964 -0.1087 -0.3700  0.0944
25790W        W42637  10.490  14.301  14.069  0.2222 -0.0026 -0.0629
25791W        W42638  16.481   0.585   0.342 -0.1747  0.0879 -0.0130
25792W        W42639  17.913  15.306   2.516  0.0709 -0.0299  0.1525
25793W        W42640   5.948  12.488   1.226 -0.1112  0.0946 -0.0666
25794W        W42641   4.981  14.194  13.618 -0.1688  0.1792 -0.0273
25795W        W42642   4.980  18.399   1.464 -0.1673  0.0040  0.4474
25796W        W42643  16.056   5.097   4.335  0.1594  0.1249  0.1967
25797W        W42644   1.705  14.122  15.409 -0.1150 -0.1793  0.1736
25798W        W42645  14.597  14.910  14.709  0.2397  0.0796  0.5058
25799W        W42646  11.003  11.557   6.369 -0.0398  0.0448 -0.0374
25800W        W42647  17.375  11.745  11.761 -0.0527  0.1100 -0.1534
25801W        W42648   4.958  10.032  12.119 -0.2339  0.0951  0.0671
25802W        W42649   0.046   9.636  11.803 -0.1287  0.1545  0.0474
25803W        W42650   6.866  11.169   1.345 -0.2240 -0.1208 -0.0939
25804W        W42651   1.757   3.126  13.910  0.1818 -0.0494 -0.1939
25805W        W42652  16.385  13.665  13.485 -0.2498  0.2381 -0.0626
25806W        W42653   8.483  12.470  13.445 -0.1349 -0.0590 -0.2727
25807W        W42654   2.163  16.470  13.986 -0.1365  0.2045 -0.1383
25808W        W42655  11.618   1.873  13.804 -0.2623  0.0206  0.2122
25809W        W42656  14.885   8.895  14.302 -0.0805  0.1633  0.0501
25810W        W42657   5.435  14.501   4.327 -0.5419  0.0312  0.1113
25811W        W42658  15.129   7.518   2.106  0.4183  0.0709 -0.3137
25812W        W42659   9.335   8.118   4.629  0.1742 -0.0551  0.5422
25813W        W42660   8.786  11.103   5.650 -0.1240  0.0460 -0.1574
25814W        W42661   3.829  13.629  16.351 -0.0344 -0.2404 -0.1442
25815W        W42662   4.180  17.978   4.133 -0.1334 -0.0380 -0.0889
25816W        W42663   6.819  16.291  11.540  0.2092 -0.2082  0.0586
25817W        W42664   6.400  10.969  12.509 -0.1427 -0.1325  0.0840
25818W        W42665   3.078  13.685   0.289 -0.0743 -0.2461  0.3794
25819W        W42666   8.728  14.030   2.095 -0.0323 -0.2621 -0.1384
25820W        W42667   0.023   4.216   3.802 -0.1767 -0.0044 -0.1913
25821W        W42668   0.313  17.184  14.488 -0.0606 -0.1751 -0.3086
25822W        W42669   7.532  14.814  14.077  0.0667 -0.0227  0.0231
25823W        W42670   0.592   3.396  13.248 -0.0319  0.0494  0.0583
25824W        W42671  14.794  13.251   4.363  0.1656  0.0710  0.0072
25825W        W42672   9.701  14.084   1.618  0.0610 -0.0994 -0.1597
25826W        W42673   0.711   3.611   1.694 -0.3961  0.1029  0.0951
25827W        W42674  11.710  18.118  12.137  0.3475  0.0862  0.3306
25828W        W42675   7.127   3.966  15.550  0.0899 -0.1771 -0.0880
25829W        W42676  10.829  12.993   3.443 -0.1273  0.0878  0.0282
25830W        W42677   2.742   4.904  10.991  0.1768 -0.1008 -0.0542
25831W        W42678   1.097   5.431  15.401  0.1386 -0.0310  0.0410
25832W        W42679  14.728  12.372   3.929 -0.2620 -0.2067 -0.0757
25833W        W42680  12.104   1.502   2.243  0.1257 -0.0653 -0.1073
25834W        W42681  10.219   1.493  11.714 -0.2801  0.2699 -0.0887
25835W        W42682  17.051   4.152   1.738 -0.1499  0.4109 -0.0065
25836W        W42683  12.473  16.048  14.743  0.2245 -0.0130 -0.0151
25837W        W42684   1.432  16.597  15.197  0.3815  0.1329 -0.3177
25838W        W42685   0.948  18.032   1.992 -0.2456 -0.1868 -0.0592
25839W        W42686   0.636   2.273  14.163  0.2687  0.2084 -0.0279
25840W        W42687  10.475   4.098   1.071 -0.0149 -0.1614  0.0822
25841W        W42688   3.068  15.041   1.660  0.3291  0.0901  0.0781
25842W        W42689  16.363   1.885  12.809  0.5156 -0.1024  0.2165
25843W        W42690  13.620   7.261   4.464 -0.1896  0.0437  0.0476
25844W        W42691  13.612   4.762   1.587 -0.1828 -0.1184 -0.0745
25845W        W42692   3.864  15.885   1.428 -0.0139 -0.2261 -0.2597
25846W        W42693  17.135   4.645   1.801 -0.1138  0.0248  0.0007
25847W        W42694  17.224   5.370  14.095 -0.0685  0.0551 -0.1174
25848W        W42695   2.523  15.119  11.771  0.3597  0.2058 -0.1360
25849W        W42696  16.142   5.203  11.888 -0.0481  0.1089 -0.1546
25850W        W42697   3.042  13.140   1.934 -0.1817  0.1412 -0.1743
25851W        W42698  14.505   6.599   5.584  0.2641  0.4483  0.3342
25852W        W42699   8.035  16.210  16.041  0.3516  0.0266 -0.0764
25853W        W42700   4.816   2.020   3.226  0.1334 -0.2151  0.0222
25854W        W42701   5.505   3.610   4.244 -0.0205  0.0454 -0.1052
25855W        W42702   0.368   5.884  11.579  0.0084 -0.1325  0.0704
25856W        W42703  11.740  11.945  13.493  0.2811  0.2032  0.1705
25857W        W42704   8.192   6.378   3.784  0.1441 -0.3279  0.1034
25858W        W42705   2.927   2.454   2.635  0.1306 -0.0390  0.0712
25859W        W42706   0.641  15.578   5.263 -0.0579  0.3385 -0.1041
25860W        W42707   9.381  14.939   1.768  0.1395 -0.1665  0.1593
25861W        W42708  13.545   7.784  15.820  0.0205 -0.0892  0.1422
25862W        W42709   5.671  16.706  12.646  0.1620  0.2736 -0.0385
25863W        W42710   2.733  16.763   2.044  0.1503  0.1436  0.0278
25864W        W42711  13.631   6.864  12.382 -0.0702 -0.2437 -0.1091
25865W        W42712   2.046  13.684  14.191  0.0785  0.3780 -0.4081
25866W        W42713   1.767   8.164  11.786  0.0382  0.4119  0.1893
25867W        W42714  14.815  14.942   3.947  0.0672 -0.2763  0.0526
25868W        W42715   5.548   2.561   2.147  0.3166  0.1973  0.0530
25869W        W42716   2.380   6.723  12.183 -0.3152  0.2514 -0.1785
25870W        W42717  17.972  10.267   2.754  0.1985 -0.2290 -0.2533
25871W        W42718   1.207  10.344  13.946  0.0844 -0.2461 -0.3251
25872W        W42719   1.553   9.760   4.317 -0.1766 -0.2322 -0.0015
25873W        W42720   5.371   0.017  14.592  0.1904 -0.0748  0.0092
25874W        W42721   7.505  16.282   3.117 -0.1104  0.1317  0.0509
25875W        W42722   8.407   3.075  12.251  0.0739 -0.1367  0.2226
25876W        W42723  13.649   7.831   3.914 -0.0072  0.0369  0.0445
25877W        W42724   0.909   2.910  14.954  0.2395  0.0962 -0.1574
25878W        W42725  13.526  12.035  13.152 -0.0926 -0.1617  0.0870
25879W        W42726   1.006   1.768   4.280  0.1565 -0.3271  0.1568
25880W        W42727  14.169  17.389   2.098 -0.0749  0.2858 -0.3299
25881W        W42728  17.093  16.994   3.865  0.1113  0.1281 -0.2307
25882W        W42729   4.816  16.393  11.641 -0.0256 -0.1408 -0.0468
25883W        W42730  10.480  11.013   5.726  0.2020  0.0752 -0.0369
25884W        W42731   9.575  12.690  11.305  0.3182 -0.1050  0.1833
25885W        W42732   7.724   5.809   3.158 -0.1644 -0.0600  0.0967
25886W        W42733   9.967   9.901  11.984 -0.4295 -0.0600  0.1206
25887W        W42734  15.734   0.102  11.685 -0.0551  0.0780  0.1604
25888W        W42735   3.463   9.511   0.760  0.1162 -0.1105  0.0430
25889W        W42736   8.859  10.592  11.987 -0.1980  0.0216  0.1389
25890W        W42737  14.128  15.188   2.661  0.1797  0.0379 -0.0076
25891W        W42738  17.133   1.901   1.668  0.0968 -0.0265  0.2171
25892W        W42739   4.030  11.704  11.624  0.4529 -0.0599  0.0149
25893W        W42740  12.429  13.709   0.573  0.1631  0.1938  0.0143
25894W        W42741   7.906  13.364  13.123 -0.0647 -0.2077  0.2264
25895W        W42742  17.690   0.378  13.052 -0.5086  0.4171 -0.4093
25896W        W42743   5.223  14.126  11.834 -0.1261  0.1430 -0.2875
25897W        W42744  12.164  15.258   4.571  0.2612 -0.0339  0.0117
25898W        W42745   0.649   5.517  16.175  0.3200  0.0600 -0.2197
25899W        W42746  16.815   6.759  13.646 -0.0895  0.1236 -0.1273
25900W        W42747  10.399   5.608   5.056 -0.0194  0.4074 -0.0254
25901W        W42748  16.913   9.935  11.699  0.1669  0.1701  0.1640
25902W        W42749  12.735   8.635   4.710  0.1053  0.0662 -0.0017
25903W        W42750  16.092   2.212   4.469  0.1222  0.0427 -0.0471
25904W        W42751   4.346  16.084  16.362  0.1541  0.1300  0.0814
25905W        W42752   9.711  11.419  13.184  0.2023  0.0363  0.2348
25906W        W42753  11.321  11.359  14.264  0.1846 -0.3631 -0.0119
25907W        W42754  15.339   6.605   2.437 -0.0637  0.0208 -0.1711
25908W        W42755   2.328   2.969  14.511 -0.0488 -0.0176  0.0096
25909W        W42756  16.501   4.749  12.876  0.0252  0.1625 -0.2093
25910W        W42757  10.073   2.435  11.695  0.2376 -0.1607  0.1335
25911W        W42758   2.283   1.423  14.825  0.0211 -0.2184  0.0811
25912W        W42759   2.110   0.465  12.672 -0.3227 -0.0126  0.0087
25913W        W42760  16.543   1.438  15.630 -0.3170 -0.3551  0.0118
25914W        W42761   2.783   1.286   4.121 -0.2007 -0.2215  0.0271
25915W        W42762  16.079   2.968  12.126  0.1043  0.2893 -0.0477
25916W        W42763   7.532  17.160   5.984  0.1057 -0.3548 -0.0116
25917W        W42764  10.529   3.859  12.023 -0.2709  0.0212 -0.0962
25918W        W42765   0.891  18.351   1.208 -0.2107 -0.1233  0.0769
25919W        W42766  17.046   6.947  14.081  0.3361 -0.1450 -0.1807
25920W        W42767   0.049   2.643   0.889 -0.4027 -0.2193  0.0350
25921W        W42768   6.988  17.711  13.609  0.2741  0.0580 -0.0818
25922W        W42769   6.767   4.370   2.191  0.0195  0.1288 -0.0115
25923W        W42770  12.312  16.648   0.594 -0.0618  0.0059  0.3028
25924W        W42771  16.468  12.625  14.331  0.0215 -0.0872  0.0308
25925W        W42772   1.504   9.591   3.358  0.0662 -0.0079  0.2420
25926W        W42773   6.159  11.017  11.055  0.5256 -0.0332 -0.3860
25927W        W42774   3.874   2.193   2.915 -0.0919  0.0967  0.1645
25928W        W42775  13.503   7.954   2.511  0.3607  0.2516 -0.0374
25929W        W42776   1.020  10.708   0.560 -0.0815 -0.1908 -0.1302
25930W        W42777   0.725   7.871   0.415  0.2116 -0.1406  0.1301
25931W        W42778   0.461  14.933  11.456  0.0856 -0.2273  0.2758
25932W        W42779  10.274  16.261   0.036  0.1012 -0.2093 -0.0438
25933W        W42780  10.696  14.235  12.347 -0.0533  0.0988  0.0170
25934W        W42781  13.723   1.647  13.813 -0.0601  0.0117  0.1521
25935W        W42782   7.084  15.973  14.671 -0.0224  0.0231 -0.4108
25936W        W42783  18.261   9.375   4.686  0.3027 -0.3677 -0.0084
25937W        W42784   1.851   7.176  12.636  0.3323  0.1900 -0.1982
25938W        W42785  11.921   4.287  15.356  0.0582 -0.1364 -0.0503
25939W        W42786   8.996   8.781  13.824  0.0828  0.0841  0.0855
25940W        W42787   1.438   9.429  12.029 -0.3921  0.1284  0.0599
25941W        W42788  10.730  16.634  15.052 -0.0991  0.1403  0.1780
25942W        W42789   1.822   7.356  15.986  0.1484 -0.2263 -0.1381
25943W        W42790  16.232   8.240  12.607  0.2490  0.1289 -0.2439
25944W        W42791  15.098   8.468  10.945 -0.3277 -0.1192  0.1431
25945W        W42792   3.520   7.036  12.048 -0.1359  0.3071  0.0698
25946W        W42793  13.007   4.036  11.244  0.0692 -0.2586 -0.3092
25947W        W42794  13.372  13.346  14.045  0.0769 -0.0565 -0.0790
25948W        W42795  16.906  16.596   1.896 -0.1777  0.1136  0.1862
25949W        W42796   9.815   5.684  14.957  0.2549  0.2350  0.2883
25950W        W42797   9.565   7.696   4.767 -0.2467 -0.0477 -0.0515
25951W        W42798   7.028   0.114   5.163  0.0645  0.2045  0.0509
25952W        W42799  12.847  17.710   0.687  0.1548  0.2221  0.3598
25953W        W42800   3.161   1.420  14.367  0.1066 -0.1537 -0.0005
25954W        W42801  11.019  17.871  13.384  0.0713  0.0115  0.1200
25955W        W42802  10.338   2.830   5.383 -0.2987  0.1778  0.1464
25956W        W42803  16.186   4.180  11.011  0.5372  0.1719 -0.1568
25957W        W42804  11.712  12.437   5.233 -0.0326  0.1835 -0.1962
25958W        W42805   7.322   4.392  15.465  0.2690 -0.2558 -0.1014
25959W        W42806   9.921   5.594  14.070  0.4158 -0.1850  0.2513
25960W        W42807  10.846  15.548  13.997 -0.1452 -0.1754  0.2069
25961W        W42808  10.257   5.673  12.215  0.0685 -0.2159 -0.2452
25962W        W42809   6.453   2.845   2.162  0.2880  0.0212 -0.2422
25963W        W42810  11.998  10.615  13.934 -0.0376 -0.0884  0.0459
25964W        W42811   4.688  11.408   0.349  0.1738 -0.0579  0.1790
25965W        W42812   7.336   8.751   3.264  0.0497 -0.0153 -0.0411
25966W        W42813   4.967  16.055  12.318  0.2382 -0.1062  0.2079
25967W        W42814  16.014   6.378  15.842 -0.0895 -0.1661 -0.2690
25968W        W42815  14.752   4.559  15.946 -0.0435 -0.2786 -0.3953
25969W        W42816   2.521  13.777   2.359 -0.3987  0.1899 -0.0250
25970W        W42817   1.552   2.298   2.404 -0.1401 -0.1125  0.1223
25971W        W42818   1.120   9.741   6.008  0.0610  0.0798  0.0259
25972W        W42819   0.817  14.776   4.267 -0.0315 -0.2332  0.2769
25973W        W42820   9.165   8.332  13.740 -0.1038 -0.2116  0.0624
25974W        W42821  14.661  14.435  14.803  0.3105 -0.1417 -0.0839
25975W        W42822  18.035   9.904  12.484 -0.0684 -0.1189  0.1244
25976W        W42823   4.304   6.719   3.387 -0.0973 -0.1076 -0.2123
25977W        W42824  13.520   4.158  15.381 -0.0450 -0.4736  0.0098
25978W        W42825   5.289   3.627  15.515  0.0182  0.2768  0.1468
25979W        W42826  16.915   4.816  15.630  0.0435  0.0265 -0.0214
25980W        W42827   7.620   1.344   2.602 -0.2632  0.1651  0.1040
25981W        W42828  13.344  17.226  14.072  0.1023 -0.2051 -0.0406
25982W        W42829   5.021   6.133  14.820 -0.3120 -0.0721 -0.3364
25983W        W42830   5.051  17.093  13.916  0.0776  0.2206  0.2525
25984W        W42831   9.219   4.082   2.834  0.2017 -0.2936  0.0448
25985W        W42832  15.971   6.772  14.392 -0.0390 -0.0285  0.0434
25986W        W42833  17.679   8.261   3.668 -0.2727 -0.0652  0.1973
25987W        W42834  13.793  17.837   1.005  0.1957 -0.0971  0.0728
25988W        W42835  16.519  16.305  12.224  0.0066 -0.2184  0.2736
25989W        W42836  13.037   9.139   0.856 -0.3121  0.1876 -0.2451
25990W        W42837   9.611  10.669  14.588  0.2624  0.2510  0.1163
25991W        W42838  13.837   9.762  11.466 -0.0040 -0.2271  0.0021
25992W        W42839   5.326   3.656   0.993  0.0554  0.1080  0.1117
25993W        W42840   8.998   6.700  14.145  0.0526 -0.0793  0.2837
25994W        W42841   8.313  16.072  10.430 -0.0184 -0.2441 -0.0090
25995W        W42842  14.328  12.013   3.856  0.1236 -0.0186  0.2607
25996W        W42843   2.738   7.800  16.204  0.0210 -0.1118 -0.0044
25997W        W42844   7.723  12.380   0.037  0.1700 -0.0036  0.2358
25998W        W42845  10.833  15.929  12.781  0.1152 -0.1697  0.0956
25999W        W42846   0.011   5.411   4.276  0.2421  0.1817 -0.0988
26000W        W42847   3.155   4.527   4.749 -0.0832 -0.0918 -0.0363
26001W        W42848  10.885  14.348   3.168 -0.2838 -0.1192  0.2984
26002W        W42849   3.377   1.734   3.515 -0.1340  0.2017 -0.2920
26003W        W42850  12.889  12.217  12.130 -0.2367  0.0270 -0.0184
26004W        W42851   5.291  11.803  12.341  0.0281 -0.2083  0.0332
26005W        W42852  12.208  14.973  16.145  0.0979 -0.2326  0.3420
26006W        W42853   7.431  16.482   0.638  0.1712  0.3298  0.0625
26007W        W42854   5.179  17.528   3.342 -0.2460  0.3094  0.1217
26008W        W42855   4.678  10.625  13.367  0.4290 -0.1824  0.1192
26009W        W42856   9.349   1.532   3.920 -0.0523  0.1844 -0.0759
26010W        W42857   2.576   6.082  12.106 -0.0821 -0.1426  0.1189
26011W        W42858   8.471  13.536   3.932  0.0933 -0.0268  0.0789
26012W        W42859   1.979   1.208   0.678  0.0112 -0.2640  0.0088
26013W        W42860   0.632  13.219   0.444 -0.1215 -0.0011  0.0092
26014W        W42861   6.124  16.569  11.913  0.1154  0.0149  0.0684
26015W        W42862   6.977   3.670   4.774 -0.2652 -0.0364 -0.0753
26016W        W42863   2.957  12.471  13.277 -0.0526 -0.3135  0.5277
26017W        W42864  18.350  10.853   5.361  0.0836 -0.0209 -0.3088
26018W        W42865   8.967   4.843   0.128  0.0927  0.1151  0.3981
26019W        W42866  14.227   9.143   3.214  0.0350  0.2654  0.0965
26020W        W42867   6.977   4.960  11.872  0.1664 -0.0086 -0.1930
26021W        W42868  17.109  15.530  13.470  0.2207 -0.0936  0.0136
26022W        W42869   6.364   0.111   3.948  0.3109  0.1565 -0.5326
26023W        W42870  11.514  16.622  13.182 -0.0799 -0.1401  0.0663
26024W        W42871   7.228   6.788   1.105 -0.1049  0.0016  0.0199
26025W        W42872  11.326  18.194   2.270  0.3702 -0.1148 -0.0049
26026W        W42873   0.869   0.370  13.091 -0.0909  0.0338  0.1590
26027W        W42874  12.621   2.826   1.188 -0.2587 -0.1342 -0.1503
26028W        W42875   7.768   0.611   2.689  0.0344  0.0020  0.1292
26029W        W42876  16.776   6.354   1.225 -0.2255 -0.1115  0.2802
26030W        W42877   8.100   3.708  15.094  0.0449  0.1142 -0.0452
26031W        W42878   6.187   9.564  16.261 -0.0439  0.3073  0.1733
26032W        W42879   0.532   1.034   0.385 -0.4097 -0.2368  0.0356
26033W        W42880  10.368   3.688   1.908 -0.0895  0.2438  0.0336
26034W        W42881  14.411   9.913  15.039 -0.2063 -0.1257  0.3757
26035W        W42882  10.246   9.604   2.024 -0.0164 -0.2045  0.1448
26036W        W42883  17.452  12.169   0.417 -0.3296  0.1816  0.0287
26037W        W42884   5.856   6.113  13.730  0.0402 -0.1760  0.1816
26038W        W42885   2.655  10.874   2.643  0.3246 -0.1351 -0.1121
26039W        W42886  15.374   7.193   4.778  0.1123 -0.1820  0.2461
26040W        W42887   5.605  15.890   5.373 -0.1041 -0.1625  0.1632
26041W        W42888  16.542  16.300   2.007  0.0036  0.1460 -0.2162
26042W        W42889   8.810   7.235  14.464 -0.0069  0.1630  0.0454
26043W        W42890  12.041   9.136  12.583 -0.1261  0.0372 -0.0560
26044W        W42891   4.659  17.663   2.074  0.1137 -0.1279 -0.0472
26045W        W42892   5.353  17.156   2.964 -0.1393  0.1660  0.1325
26046W        W42893   2.285   3.563   2.066 -0.0870  0.2523 -0.0095
26047W        W42894  17.040   0.627   5.243  0.2231  0.1322  0.4450
26048W        W42895   2.360  17.213   5.393  0.2608  0.1547  0.1059
26049W        W42896   7.376   8.315   3.458 -0.1445 -0.1742 -0.1587
26050W        W42897  16.881  17.520  13.749  0.1299 -0.1455 -0.2188
26051W        W42898   9.803  14.476  13.237 -0.1408  0.2567  0.0136
26052W        W42899  17.560  11.753  12.235  0.0233 -0.0389 -0.2047
26053W        W42900  18.088   5.891  16.360  0.0790  0.0038 -0.1840
26054W        W42901  13.145   2.403  14.038  0.0073 -0.3286  0.1513
26055W        W42902  10.228  13.643   4.435  0.1113 -0.2005  0.1814
26056W        W42903  10.870  11.078   3.896  0.0849  0.0065  0.0150
26057W        W42904  14.144  11.691  12.130  0.1763  0.0022 -0.0892
26058W        W42905  16.340  10.159   2.871  0.0525 -0.1574  0.0869
26059W        W42906  13.169   0.327   1.920 -0.2180  0.1658  0.1988
26060W        W42907   7.616  16.758   0.314 -0.1982 -0.1611  0.1815
26061W        W42908   9.288   6.964  11.813  0.0321  0.1220 -0.0160
26062W        W42909   5.305  14.827  14.242 -0.0079  0.2055 -0.0508
26063W        W42910  14.423   4.729  10.668 -0.2920  0.0964  0.0295
26064W        W42911   1.268   8.842  11.075 -0.2391 -0.1229 -0.0243
26065W        W42912  11.386  14.977  12.247  0.0998  0.0449 -0.0683
26066W        W42913   3.037  16.683   2.448 -0.1029 -0.1001  0.0451
26067W        W42914  14.849   6.720  12.783 -0.1068  0.0832  0.2834
26068W        W42915   3.573   6.998   3.679  0.2797 -0.2301  0.0362
26069W        W42916   8.096  11.988   1.548 -0.2270  0.0856  0.1700
26070W        W42917   2.464  12.372  14.010 -0.2699  0.0003 -0.0247
26071W        W42918   5.240   4.902   4.260 -0.0577  0.5929 -0.0912
26072W        W42919   7.027  12.863   2.035 -0.0474 -0.2480 -0.2000
26073W        W42920   1.935   5.953   2.057  0.1866 -0.2316  0.1383
26074W        W42921  16.716   8.425  15.973 -0.0206 -0.0627  0.0992
26075W        W42922   5.321  15.032   5.375 -0.2530  0.4955  0.3445
26076W        W42923   7.867  13.927  12.702  0.0836 -0.1722  0.1152
26077W        W42924  13.688  18.409   4.135  0.0794  0.0020  0.1302
26078W        W42925   6.684   3.836  15.800 -0.3081 -0.2428  0.3099
26079W        W42926   8.564   1.907   5.257  0.1834 -0.1415  0.0040
26080W        W42927   3.619   3.748  14.253  0.1701 -0.1537  0.1410
26081W        W42928   2.059  16.429   2.098 -0.1380 -0.0296 -0.1958
26082W        W42929  13.060  18.174  14.766  0.0946 -0.2244  0.2473
26083W        W42930   1.393   7.673  15.963  0.1051  0.0356 -0.0292
26084W        W42931  12.480   7.896   5.279 -0.2948  0.1926  0.1024
26085W        W42932   6.170  14.021   3.998 -0.0788  0.2830  0.1464
26086W        W42933  14.948   9.408  12.721  0.0481  0.1108 -0.1772
26087W        W42934   4.162  14.849  15.079  0.3330 -0.1867  0.0802
26088W        W42935   4.735   1.419  14.286  0.1203 -0.0340 -0.1372
26089W        W42936   3.039  17.684   5.491  0.2537  0.0856 -0.0348
26090W        W42937  14.632   2.146   3.347  0.1188  0.0696 -0.0587
26091W        W42938  17.764   4.231  13.294 -0.1386 -0.4132 -0.1004
26092W        W42939  16.666  16.302  11.692 -0.3352 -0.1424 -0.1256
26093W        W42940  16.861   5.706  15.948  0.1540 -0.2582  0.0052
26094W        W42941   2.583   3.889   2.245  0.1822 -0.1887  0.2444
26095W        W42942  13.672   6.325  16.256 -0.0075 -0.1135  0.3277
26096W        W42943  15.318   1.532  13.270 -0.0468  0.3916  0.2546
26097W        W42944   6.331   0.611   0.869 -0.0448  0.0095 -0.1432
26098W        W42945  16.197  12.619   1.460  0.0456  0.1145  0.0500
26099W        W42946  16.010  12.076  12.480 -0.4243  0.2582 -0.2214
26100W        W42947  15.780   1.715  13.157  0.0881 -0.0800  0.2104
26101W        W42948   6.713   1.028   3.904  0.1095  0.1136 -0.1550
26102W        W42949  12.472  11.145   5.562  0.0542 -0.1533  0.4106
26103W        W42950  15.202  15.337  12.013 -0.0320 -0.0899  0.1209
26104W        W42951  10.184   2.318   1.218  0.1809 -0.2333 -0.0120
26105W        W42952  14.467   2.948  15.932 -0.2969  0.0450  0.1631
26106W        W42953   8.059   4.790  14.813  0.0547  0.0957  0.0653
26107W        W42954   4.251   2.420   2.735  0.0346  0.3022  0.1028
26108W        W42955   2.278  17.527   3.876  0.0532 -0.1229  0.1156
26109W        W42956   4.628  11.187  15.409  0.3924 -0.1070  0.1365
26110W        W42957  16.701   4.340   4.630 -0.0487 -0.1989 -0.2706
26111W        W42958  16.319   8.797  11.112 -0.0919 -0.1567 -0.2817
26112W        W42959   1.165  11.259   3.090  0.0608 -0.2590  0.1175
26113W        W42960  14.105   5.633   0.254 -0.0092  0.0879 -0.0812
26114W        W42961  13.317   7.305  13.138 -0.2216 -0.1459 -0.1953
26115W        W42962   7.376   4.854  13.079  0.1784 -0.1213  0.0235
26116W        W42963   2.286   5.870   2.463  0.0976 -0.0889 -0.0529
26117W        W42964   6.237   2.508  15.438  0.1241  0.0416 -0.1262
26118W        W42965   4.690   9.908  15.444  0.3564 -0.2274 -0.1648
26119W        W42966  18.301   7.939  12.767  0.0620  0.1168  0.0319
26120W        W42967   3.858  17.214   4.027  0.0731 -0.1539  0.0138
26121W        W42968   2.613  11.017  16.348 -0.1495 -0.1244 -0.0110
26122W        W42969  10.282   5.315  11.831 -0.0014 -0.0730  0.2812
26123W        W42970  12.159  14.132   2.464  0.3760  0.1082 -0.0091
26124W        W42971   7.500  17.347  15.970 -0.2293  0.0311  0.0735
26125W        W42972   2.781   2.564  13.181  0.0291  0.2666  0.1127
26126W        W42973  17.791   2.842   4.719 -0.1100 -0.0839  0.0169
26127W        W42974  11.086  11.643   1.360 -0.2318  0.1167 -0.6606
26128W        W42975  12.790   8.791   2.969 -0.1612  0.0213  0.1941
26129W        W42976  17.327   4.911   0.760  0.2806 -0.0572 -0.1742
26130W        W42977  13.400   5.891  13.558 -0.2177  0.3402  0.0972
26131W        W42978   7.150  18.182   4.786 -0.0324  0.1711 -0.0642
26132W        W42979   4.930  14.915  15.817 -0.4229 -0.0607 -0.0492
26133W        W42980   4.905   1.076  15.059 -0.0122 -0.2880  0.2691
26134W        W42981   4.645   6.670  13.696  0.2024  0.0453  0.1983
26135W        W42982   9.571  15.765   4.270  0.0828 -0.0051 -0.0588
26136W        W42983   1.387   2.737   1.165 -0.2375  0.2149 -0.1038
26137W        W42984   2.468   9.725   0.436  0.0016 -0.1088 -0.0250
26138W        W42985   3.816  10.682  12.689 -0.0158 -0.0332  0.0868
26139W        W42986  16.963  11.562   3.973 -0.1739  0.0861  0.1196
26140W        W42987   5.015   6.795  12.526  0.1914 -0.0075  0.0651
26141W        W42988   7.150   8.457   5.065  0.2913 -0.0565 -0.1402
26142W        W42989   8.167  18.100  13.588 -0.1038 -0.0674 -0.2630
26143W        W42990  13.741  15.930   3.471 -0.1138 -0.1168 -0.1264
26144W        W42991  18.375   2.264  11.801 -0.0478 -0.0798  0.0120
26145W        W42992  11.572   9.147   3.629  0.1197  0.0887  0.1504
26146W        W42993   4.828   7.488  13.191  0.0046  0.2175 -0.0994
26147W        W42994   0.490   4.582  12.251 -0.0671 -0.2057  0.1857
26148W        W42995   1.362   6.264   2.772 -0.2871 -0.2484  0.3581
26149W        W42996  17.123   8.965   2.969 -0.1921 -0.0024  0.1428
26150W        W42997  11.893  14.907  15.734  0.3312  0.1085  0.1699
26151W        W42998  11.914  14.049  11.993  0.1361 -0.1388  0.2366
26152W        W42999   2.067  16.998  11.338 -0.3516 -0.3179  0.0167
26153W        W43000   8.327   5.094   4.250  0.2532 -0.0981 -0.1273
26154W        W43001   3.728  13.113  16.345  0.1488 -0.4435  0.1151
26155W        W43002   8.047   9.761  13.355  0.0230  0.0435  0.0318
26156W        W43003  15.306   2.612  15.543 -0.1150 -0.0764  0.2657
26157W        W43004   5.331  13.950   3.463  0.1057 -0.2000  0.0805
26158W        W43005  11.226  12.854  13.842  0.1135  0.2267 -0.0631
26159W        W43006   0.615  17.084   4.133  0.2940 -0.1711 -0.1834
26160W        W43007   4.599   3.212  13.872 -0.1205  0.0729 -0.2150
26161W        W43008  11.502   9.015  11.505  0.0050  0.1240 -0.2137
26162W        W43009  16.631   5.055   2.663 -0.2525 -0.1140  0.1170
26163W        W43010  11.578  13.021  13.431  0.1688  0.1183  0.0611
26164W        W43011  18.259  10.831   1.530  0.0777  0.1095  0.1405
26165W        W43012  13.860  13.427   1.965 -0.1164  0.0672 -0.1018
26166W        W43013   6.182  17.102  11.803 -0.1407 -0.1847  0.3672
26167W        W43014  14.146  18.078  11.932 -0.2860 -0.3291  0.1415
26168W        W43015  12.205  16.019   3.874 -0.0770 -0.0669 -0.2045
26169W        W43016   8.954  11.406  11.761  0.0189 -0.2490 -0.0576
26170W        W43017   8.297  17.169   2.900 -0.3039  0.1702 -0.5445
26171W        W43018  10.568   5.244  16.050  0.0003 -0.0451  0.1914
26172W        W43019   4.736   7.612   0.097  0.3479  0.2676 -0.3238
26173W        W43020   8.713   6.708  15.762 -0.1064 -0.0914 -0.0643
26174W        W43021   8.220   0.660  14.419  0.3494 -0.0371 -0.1062
26175W        W43022   9.468  14.706   3.784  0.1086 -0.0088  0.0892
26176W        W43023   4.045   2.735  10.963  0.1657 -0.2531 -0.0013
26177W        W43024  16.559   1.295  15.092  0.2105  0.2270  0.2976
26178W        W43025  12.077  15.371  12.320  0.1012 -0.0388  0.3404
26179W        W43026   5.990   4.966  11.511 -0.0103 -0.2559 -0.0217
26180W        W43027  15.587   1.107  13.174 -0.1145  0.2009 -0.3803
26181W        W43028   1.120  17.159   1.808  0.2151 -0.0272 -0.0528
26182W        W43029  15.425  13.916  12.426 -0.2261 -0.0477  0.0142
26183W        W43030   4.264  18.152   0.541 -0.5711  0.2525 -0.0436
26184W        W43031   4.228   1.718  11.812  0.1223 -0.0787  0.1156
26185W        W43032  16.076  12.898  14.054 -0.0279  0.1756 -0.0488
26186W        W43033  18.182   3.087   5.518 -0.3079 -0.0413 -0.2225
26187W        W43034   3.825  12.264  15.099 -0.0590 -0.2247  0.1756
26188W        W43035  17.003  11.434  15.441 -0.4045 -0.3278  0.1235
26189W        W43036   8.729   3.832   2.580  0.2947  0.0903  0.4397
26190W        W43037   0.158   4.171  12.338 -0.0456  0.0998  0.2246
26191W        W43038  15.918   0.375  13.666  0.1414 -0.1511  0.0926
26192W        W43039   5.041   3.160  11.107 -0.2486 -0.0804 -0.0790
26193W        W43040   1.868  13.319   5.887 -0.2030  0.1541 -0.2608
26194W        W43041   0.408   4.737   9.956 -0.0072  0.0742 -0.2759
26195W        W43042   5.275   2.939  11.542  0.2570  0.0016 -0.0354
26196W        W43043   9.250  14.041   3.341  0.0080  0.1082 -0.1100
26197W        W43044   6.441   7.307  12.865 -0.0943  0.0492 -0.0363
26198W        W43045  16.622  18.141   0.228 -0.2733 -0.1780  0.4854
26199W        W43046   6.058   7.131   0.161 -0.0459  0.5820  0.3595
26200W        W43047   3.857   3.741  12.190 -0.1988  0.1048 -0.0566
26201W        W43048  14.738  14.082  16.302 -0.0430 -0.0181 -0.0027
26202W        W43049   2.912   0.416   4.817  0.0490 -0.2614 -0.1912
26203W        W43050  13.420   9.950  15.760 -0.0674 -0.2317 -0.2282
26204W        W43051  10.365   1.960  12.607  0.3682  0.3282  0.2276
26205W        W43052   8.946   0.233  11.360  0.6141 -0.2202 -0.0990
26206W        W43053   8.174   5.923   2.548  0.0707 -0.2481  0.0492
26207W        W43054  17.993   5.901   1.058 -0.0787  0.2627  0.0564
26208W        W43055   5.704  14.009  15.780 -0.0784  0.1108 -0.3182
26209W        W43056  14.898   8.866  16.367 -0.2830 -0.0048 -0.0357
26210W        W43057  17.832  11.864  15.193  0.3385 -0.1158 -0.0031
26211W        W43058   6.118   7.933   5.077  0.1223  0.0914 -0.0153
26212W        W43059   7.391   5.060   1.198  0.1650 -0.1825 -0.1371
26213W        W43060  11.769   7.364   5.741 -0.1414  0.3681  0.0110
26214W        W43061  12.686  15.085  11.502 -0.0876 -0.1121 -0.2296
26215W        W43062  11.058   7.869  13.230 -0.1994  0.2133 -0.0630
26216W        W43063  13.149   1.912   1.721  0.0913  0.1203 -0.0530
26217W        W43064  16.327   1.480  13.667  0.1150  0.3789 -0.0968
26218W        W43065  12.432   6.915  14.758 -0.0106 -0.4130 -0.0715
26219W        W43066   0.247  10.200  15.482  0.0823  0.3733  0.0460
26220W        W43067   8.347   0.406   5.682 -0.1455 -0.0629  0.4025
26221W        W43068   6.892  11.055  12.709 -0.4310  0.0070  0.2101
26222W        W43069   5.837  15.820   2.677  0.0378 -0.0253 -0.3342
26223W        W43070   0.035   1.666  13.568 -0.0220  0.5161 -0.0550
26224W        W43071   9.026   7.215   1.557 -0.1977 -0.2755  0.0096
26225W        W43072   3.691   6.591  15.132  0.2563  0.1418 -0.1949
26226W        W43073  14.443   2.283  15.748  0.1036 -0.1763  0.1246
26227W        W43074  11.640   4.894   2.723 -0.0942  0.1507 -0.0738
26228W        W43075   2.079   2.870   3.627  0.0555  0.1113 -0.3017
26229W        W43076   4.444   5.413  13.838  0.1754 -0.0074  0.2030
26230W        W43077  13.599   1.598   2.636 -0.1234 -0.0560  0.0075
26231W        W43078  10.149   5.570  15.793 -0.3136  0.0356 -0.0063
26232W        W43079   1.743   3.418   0.982 -0.1617 -0.2131  0.2243
26233W        W43080   0.133  13.611  14.197 -0.1664  0.1034 -0.2493
26234W        W43081  14.886   4.304   2.943  0.1584  0.0060 -0.0381
26235W        W43082  16.115   1.526  15.042 -0.4035  0.1137 -0.1456
26236W        W43083   3.994  17.227   3.398  0.2043  0.1567 -0.1159
26237W        W43084  14.082   2.945  16.353 -0.0107 -0.1881  0.1464
26238W        W43085   0.950  14.310   0.856 -0.0270 -0.0129 -0.1214
26239W        W43086   2.019   7.288   2.732  0.1659  0.0311 -0.0875
26240W        W43087  13.007  15.723   1.616 -0.0759 -0.0025 -0.0839
26241W        W43088   3.720   2.750  11.534 -0.0092 -0.0266 -0.1562
26242W        W43089   4.493   1.964   3.584  0.5141 -0.0270  0.0356
26243W        W43090   8.397   6.929  14.546  0.3209 -0.0970 -0.1718
26244W        W43091   4.417   5.769  11.008  0.3408  0.0103 -0.1116
26245W        W43092  13.493   0.964   0.696  0.0385 -0.0881 -0.0966
26246W        W43093  17.605   0.788   4.728  0.2335 -0.1513 -0.0799
26247W        W43094   7.145  11.617  11.487 -0.1220  0.0077 -0.3797
26248W        W43095  14.943   6.954   3.463 -0.0441  0.0127  0.0466
26249W        W43096   4.089  17.235   4.514  0.0880  0.3445 -0.0910
26250W        W43097  15.092  11.339  14.026  0.0465 -0.1217 -0.1117
26251W        W43098   9.209  14.517   3.319  0.0978 -0.3949  0.0113
26252W        W43099  12.064   0.508  11.745 -0.5280  0.0695 -0.1164
26253W        W43100   7.164   1.139   1.206  0.0815  0.1787 -0.1033
26254W        W43101  16.577   8.666  14.789 -0.0022  0.0077 -0.0859
26255W        W43102  15.353  11.126   2.517 -0.2077  0.1119 -0.0543
26256W        W43103  16.358   7.601  13.640 -0.2310  0.0700 -0.2732
26257W        W43104   0.004   4.988   2.704  0.0269  0.0017 -0.1890
26258W        W43105   9.517  16.783   2.419 -0.2502 -0.2661 -0.1864
26259W        W43106   5.853  10.170   2.998  0.2741  0.0641  0.1833
26260W        W43107  14.945  10.281   1.816 -0.2188 -0.0587 -0.0605
26261W        W43108   2.658  15.202  16.242  0.0083 -0.0677 -0.0162
26262W        W43109  10.766  17.035   3.578 -0.1088 -0.1496  0.0984
26263W        W43110  12.038  13.945  13.763 -0.0180 -0.3145 -0.1100
26264W        W43111   4.030  13.304   0.518 -0.0033 -0.3265  0.3052
26265W        W43112   4.798   0.456  13.248 -0.0353  0.2406  0.0928
26266W        W43113   8.393  17.340   0.814 -0.1795 -0.1468 -0.0736
26267W        W43114   6.659  15.660   1.087 -0.1009 -0.0265  0.0619
26268W        W43115  13.152  16.138   3.650  0.4380  0.1201 -0.1137
26269W        W43116  12.835   0.709   0.360 -0.1861  0.2195  0.1575
26270W        W43117   1.591  11.391   5.615 -0.0298 -0.3329  0.2488
26271W        W43118  17.795  15.182   3.085 -0.0308 -0.0053 -0.3453
26272W        W43119  11.315  17.053  15.542  0.1828 -0.3129  0.3941
26273W        W43120   4.124   5.040   1.253  0.1376 -0.2031 -0.2519
26274W        W43121  10.551  14.138  16.200 -0.1113 -0.0978  0.0045
26275W        W43122   0.564  13.695  14.036  0.3410 -0.4330 -0.0087
26276W        W43123  17.882   5.044   0.774  0.0570  0.0671  0.0487
26277W        W43124  12.923   9.757   6.371 -0.0298  0.0339  0.0872
26278W        W43125   0.155   7.424   4.571  0.1234  0.0861 -0.0972
26279W        W43126  12.201  14.140  13.284 -0.3613 -0.0795  0.0805
26280W        W43127  12.743   3.834   0.776  0.1997 -0.0975 -0.2176
26281W        W43128   3.522  10.812  13.931  0.2664  0.1122 -0.3770
26282W        W43129   2.152   1.875  13.635 -0.0724  0.1832 -0.0615
26283W        W43130  11.756   6.702  15.615  0.3464 -0.2434 -0.0970
26284W        W43131   1.687   6.282   1.274 -0.0125  0.0251 -0.0133
26285W        W43132   7.585  11.453  12.496 -0.0256 -0.3565 -0.3880
26286W        W43133   1.560  17.437  14.657 -0.1060 -0.0097  0.0039
26287W        W43134  12.833  11.177   0.091 -0.0382  0.1175  0.0523
26288W        W43135   3.122  11.322   5.609 -0.3213  0.1614 -0.3305
26289W        W43136   5.011   5.537   1.384 -0.2107  0.0878  0.1435
26290W        W43137  15.451   2.104  15.626 -0.0333 -0.0079  0.5552
26291W        W43138   9.931  17.807  13.405 -0.1150  0.4964  0.0380
26292W        W43139  14.003   2.634  11.937 -0.1856 -0.0625  0.4036
26293W        W43140   6.099   0.130   0.964  0.0188 -0.5662  0.1702
26294W        W43141   3.945  14.745  15.995 -0.2097  0.1767 -0.1608
26295W        W43142   5.722   8.090   4.179  0.4213  0.1076 -0.2237
26296W        W43143   9.516  16.477  13.636 -0.1348  0.0967 -0.1975
26297W        W43144  10.392   8.336  14.745 -0.0924 -0.1539 -0.0973
26298W        W43145  14.333   4.306  14.168  0.1021  0.0813  0.3160
26299W        W43146   3.681   8.949  12.627 -0.2282  0.1311 -0.1417
26300W        W43147   1.215   4.549  13.277 -0.0373  0.0178  0.2517
26301W        W43148  12.254   9.862   3.584 -0.0203 -0.1058  0.1771
26302W        W43149  17.337  11.659   5.113  0.0077 -0.0537 -0.0471
26303W        W43150  13.813  10.275  13.788  0.2271  0.2181 -0.0450
26304W        W43151  10.942  11.552  15.975 -0.5360  0.0878 -0.0682
26305W        W43152  17.255  12.378   0.021  0.2146  0.1403 -0.0353
26306W        W43153   8.714   4.441   1.573  0.1717  0.1259  0.3752
26307W        W43154  16.256  11.198   2.068 -0.1189  0.1263  0.1064
26308W        W43155   3.889   3.296  13.127 -0.1339 -0.0891  0.2747
26309W        W43156  12.547   5.075   0.573 -0.0281 -0.0257  0.0060
26310W        W43157   1.296   0.458  13.277 -0.2785  0.1761 -0.1881
26311W        W43158  15.847  14.354  15.211  0.0785  0.1826  0.1364
26312W        W43159  15.395  12.532   4.642  0.1610  0.1433  0.0016
26313W        W43160   4.314   0.804   3.821  0.3808  0.1529  0.0689
26314W        W43161  17.682  15.275   4.760 -0.2562  0.0993  0.2998
26315W        W43162   4.599  11.816   1.862  0.0510 -0.1851  0.1185
26316W        W43163   6.108  15.328   1.062 -0.1015 -0.0090 -0.1027
26317W        W43164  14.585   7.919  11.923 -0.1350  0.1740  0.2131
26318W        W43165   3.772  10.481   0.436 -0.0823 -0.2956 -0.0655
26319W        W43166   5.356  17.420  13.553  0.0844 -0.2308 -0.0349
26320W        W43167  10.503  18.272   4.438 -0.0156 -0.1941  0.0898
26321W        W43168   7.794   1.036  12.306  0.1545  0.2216 -0.1331
26322W        W43169   9.934   5.971   3.852  0.1378  0.1445 -0.0170
26323W        W43170  17.110  14.898   4.414  0.0426  0.2041  0.0939
26324W        W43171   2.694   9.777  14.174  0.1368 -0.0789  0.1581
26325W        W43172   4.942  11.594   5.835  0.1351 -0.1510 -0.3795
26326W        W43173  11.693   9.399   4.224 -0.3665  0.2731 -0.0227
26327W        W43174   1.270   0.522   1.942 -0.0629 -0.0363  0.1247
26328W        W43175  12.205   7.557  15.892 -0.0353  0.0368 -0.1898
26329W        W43176  11.151   4.699   2.770  0.1963  0.0489  0.2029
26330W        W43177  14.232   6.928   0.516  0.0196  0.0668  0.2490
26331W        W43178   0.374  12.483  16.266  0.0959  0.2771  0.3055
26332W        W43179   1.050  17.949   0.354 -0.0635  0.0720 -0.0478
26333W        W43180   8.859  15.562   1.033  0.2595  0.1472  0.1834
26334W        W43181  15.202   8.845   3.804  0.1024 -0.0208  0.2173
26335W        W43182  10.314   4.701  15.381 -0.0822 -0.0178  0.1333
26336W        W43183  13.134   5.527   1.376  0.2135  0.1091  0.3133
26337W        W43184   5.403  16.806   0.898  0.0579 -0.0066  0.4459
26338W        W43185  14.136  11.331  13.573  0.2507  0.0780 -0.1954
26339W        W43186  10.179  12.489  12.234 -0.1249 -0.1688  0.0748
26340W        W43187   3.841  10.519  15.528 -0.0688 -0.1162 -0.3380
26341W        W43188  12.573  13.195   1.889  0.2628  0.1789 -0.1349
26342W        W43189  11.138  14.117   1.421 -0.3303 -0.0025 -0.3963
26343W        W43190  16.234  15.129  15.384  0.1345  0.1844 -0.1360
26344W        W43191   4.001   8.013   3.414  0.5221  0.1861 -0.0665
26345W        W43192  15.039   1.471   0.648 -0.2560  0.0096  0.1584
26346W        W43193   1.658  15.677   2.791  0.0499 -0.0828 -0.2773
26347W        W43194  12.809   0.990   1.084 -0.1331 -0.0882  0.1095
26348W        W43195   8.751   2.312  13.374  0.1555 -0.1565  0.1859
26349W        W43196   0.506   9.799   2.040  0.4588 -0.0117 -0.1144
26350W        W43197   5.345   9.806   6.184 -0.3821 -0.0481 -0.1803
26351W        W43198  18.226  18.324  11.670 -0.0234 -0.2142  0.0644
26352W        W43199  10.113   6.445  16.065  0.1739 -0.0279 -0.2595
26353W        W43200  16.913   6.081  13.742  0.0268 -0.0173 -0.0677
26354W        W43201   2.354  11.353  12.128  0.1142  0.1810 -0.1097
26355W        W43202   7.606   4.889   3.065 -0.0342  0.2175  0.0797
26356W        W43203  17.283  11.282  13.266  0.4406 -0.1566 -0.1191
26357W        W43204  17.921   6.322   2.578 -0.1831  0.0982  0.3027
26358W        W43205   6.267   6.443  13.902 -0.0854  0.0897 -0.0561
26359W        W43206   6.538  11.561   4.538 -0.1377 -0.0544  0.0325
26360W        W43207   8.508   0.387   5.155 -0.0571  0.2137 -0.0601
26361W        W43208  14.492   7.585  15.716 -0.0516 -0.1665  0.0051
26362W        W43209  11.949   9.824   0.247 -0.1042  0.4078  0.0950
26363W        W43210  11.167   6.661  11.796 -0.0499  0.1933  0.0716
26364W        W43211  16.661   8.036   2.898  0.0696 -0.0960  0.1333
26365W        W43212  18.176   7.236   4.795  0.0329 -0.3878 -0.1573
26366W        W43213  11.456   6.283  12.022 -0.0548 -0.2531  0.0543
26367W        W43214   8.684  17.743   1.304  0.2316 -0.1676  0.0516
26368W        W43215  13.241   8.323  14.771  0.0650  0.0713  0.0329
26369W        W43216   8.202   5.910  11.274 -0.3494 -0.0094  0.0634
26370W        W43217  13.100   3.648  15.658 -0.1736  0.0834 -0.0643
26371W        W43218   8.189   5.681  10.360  0.1176 -0.0696 -0.3595
26372W        W43219   2.591  16.049  13.258 -0.0720 -0.2687  0.1737
26373W        W43220   2.770   7.209   3.998  0.2019 -0.2397 -0.0664
26374W        W43221   6.835   2.763   0.141  0.1823 -0.0036 -0.2412
26375W        W43222  11.546  12.749   1.412 -0.1966 -0.1240 -0.0521
26376W        W43223   1.611   9.047   0.794  0.1588  0.2922 -0.1834
26377W        W43224   0.644   6.768   0.227 -0.0921 -0.2755 -0.0205
26378W        W43225   0.283   0.241  15.131  0.1173 -0.0128 -0.2164
26379W        W43226   9.843   6.679   1.368  0.0594 -0.0785 -0.0483
26380W        W43227   0.775   7.558   0.774 -0.1800 -0.1161  0.2080
26381W        W43228   1.453   9.968   0.297 -0.1052 -0.2579 -0.0516
26382W        W43229   9.313   8.081   5.721 -0.2043  0.0050  0.2443
26383W        W43230   3.792  11.703   4.219  0.0730  0.1157  0.1285
26384W        W43231   5.463   4.611  14.344  0.0524  0.2963  0.3461
26385W        W43232   6.215  17.741  15.521 -0.1104  0.0186  0.0881
26386W        W43233  13.564   1.858  15.637 -0.2231  0.0978 -0.1488
26387W        W43234   5.645  10.575   0.102  0.1842 -0.2335 -0.3024
26388W        W43235   8.894   5.058  11.526  0.0394 -0.1416  0.0424
26389W        W43236  11.274   9.305   4.022  0.1677  0.0443  0.1681
26390W        W43237  10.911   6.367   2.403  0.0953  0.3120 -0.3594
26391W        W43238  14.331   9.650   2.397 -0.1478 -0.1928 -0.0991
26392W        W43239   4.812   4.333  12.952 -0.1897 -0.2855 -0.3347
26393W        W43240   2.511   0.182   4.550  0.2784  0.0267 -0.3141
26394W        W43241   4.062  12.109   4.361 -0.1463 -0.0791 -0.3618
26395W        W43242  15.035   2.500  13.326  0.1772 -0.3441 -0.1191
26396W        W43243  13.777   1.832  13.337 -0.3169  0.4030 -0.3206
26397W        W43244  16.920   9.562  14.000 -0.1690  0.1165 -0.2326
26398W        W43245   5.945  11.811  13.059 -0.0725 -0.2170  0.2652
26399W        W43246   2.951  12.959  14.639  0.0321 -0.3188  0.0793
26400W        W43247  11.473   1.218  14.955  0.2610  0.1260 -0.1036
26401W        W43248   3.284   8.481  13.247 -0.0560  0.0106  0.0046
26402W        W43249   4.282   0.124   6.091 -0.0413  0.1873 -0.3946
26403W        W43250   1.979  13.757  15.728 -0.2040 -0.1659  0.0242
26404W        W43251  12.064   6.983  12.178  0.4255  0.1503 -0.1307
26405W        W43252   3.015   1.829   4.795  0.1176  0.0551 -0.2542
26406W        W43253   0.425   9.094  14.327  0.2091 -0.0717  0.0963
26407W        W43254  15.703  12.947   0.788 -0.0338 -0.0028 -0.0203
26408W        W43255   6.610   0.366  12.839  0.0718  0.0293 -0.0738
26409W        W43256   2.257   9.372   2.707 -0.1267  0.1629  0.0531
26410W        W43257  12.136   9.365   0.378  0.0107 -0.2897 -0.2347
26411W        W43258  10.446  15.149  15.477 -0.2254  0.1990  0.1175
26412W        W43259   8.640   1.770   3.227  0.1556 -0.2660 -0.0978
26413W        W43260  14.699  13.816   2.913  0.1009 -0.1290 -0.1392
26414W        W43261   7.398   0.345   0.730  0.0065  0.1525  0.0118
26415W        W43262   0.754   0.741  14.405 -0.1256  0.0645  0.2254
26416W        W43263   7.761   7.668  11.398 -0.2099  0.3542 -0.0575
26417W        W43264  13.511  15.476   3.627 -0.0325 -0.1156 -0.2754
26418W        W43265   9.994   5.247   4.631  0.1595  0.2117  0.1269
26419W        W43266   2.972   4.573   0.854  0.3405 -0.0673  0.0175
26420W        W43267  13.310   0.744   2.128 -0.0874 -0.2898  0.1213
26421W        W43268   2.908   2.373  12.179 -0.0023 -0.1328 -0.1668
26422W        W43269   3.383   6.283  12.537  0.0396 -0.0353 -0.1199
26423W        W43270  11.242   2.522  14.685 -0.2538 -0.0023 -0.0061
26424W        W43271  16.184   5.163  13.080  0.0201  0.1763  0.1923
26425W        W43272  10.840   5.385   0.639 -0.0479  0.1456 -0.0797
26426W        W43273   1.742  16.058  13.693  0.1487  0.0738 -0.1361
26427W        W43274  18.396   2.045   1.800 -0.0280 -0.2380  0.3500
26428W        W43275   5.743   5.190   2.372 -0.0827  0.0587 -0.2911
26429W        W43276   3.806   2.595   0.212 -0.1989 -0.0982  0.1819
26430W        W43277   9.214  15.441  14.484 -0.0424  0.3812 -0.2327
26431W        W43278   2.696  15.925   5.217  0.1548 -0.0724 -0.2267
26432W        W43279   8.145   0.733  15.113 -0.2343 -0.0938 -0.0130
26433W        W43280  11.187   7.042  12.950 -0.0346 -0.1167  0.3365
26434W        W43281   1.054  16.936   2.260  0.4771  0.1700 -0.1078
26435W        W43282  16.357  16.809   3.124 -0.0148  0.1205 -0.2281
26436W        W43283   0.816   8.998  11.308 -0.2995 -0.0021 -0.2267
26437W        W43284   1.885   8.190   0.709  0.1180  0.0879  0.0628
26438W        W43285   4.483   0.322  15.208  0.0210  0.1102  0.3327
26439W        W43286  17.175   9.238   3.386  0.0467  0.0446 -0.1617
26440W        W43287  11.169   1.589   0.509 -0.1852  0.1223 -0.0437
26441W        W43288   4.591  15.433  13.278 -0.1474  0.0648 -0.3677
26442W        W43289  16.757  14.448   3.205  0.2713 -0.0159  0.0979
26443W        W43290  15.158   2.808   0.408 -0.1333 -0.2602 -0.0747
26444W        W43291   1.888  13.482   0.207  0.3071 -0.1331 -0.3363
26445W        W43292   4.294   5.012  10.498  0.1227  0.2406 -0.2458
26446W        W43293   1.376  16.063  12.697 -0.0860 -0.4522  0.0994
26447W        W43294   5.488   4.016  15.888  0.0070  0.1086  0.1629
26448W        W43295   9.578   8.742  13.116 -0.0293 -0.0387  0.3551
26449W        W43296  17.798   7.981  13.658 -0.5556 -0.0305  0.0498
26450W        W43297   9.440  13.251   4.572 -0.1380  0.1955  0.0341
26451W        W43298  14.578  11.685   0.009  0.0837 -0.0273  0.3496
26452W        W43299  14.428   7.489  13.873 -0.2049  0.1281  0.0317
26453W        W43300   0.582   1.457   4.883  0.2155  0.0046 -0.1445
26454W        W43301  12.744   5.351   1.621  0.1511  0.0400 -0.0102
26455W        W43302  15.642   6.098  15.908 -0.1644  0.0928  0.1423
26456W        W43303   0.196  11.569   2.019  0.1445 -0.2219  0.2267
26457W        W43304  11.318   3.370   4.983  0.2195  0.0655  0.1589
26458W        W43305   2.187  13.108   2.828  0.1980  0.2347  0.0260
26459W        W43306   8.766   2.867   0.697 -0.2140 -0.1083 -0.2164
26460W        W43307   3.692   3.267   4.581  0.0852  0.2553 -0.1849
26461W        W43308   5.721  16.868  11.657  0.2165  0.3058 -0.0545
26462W        W43309  11.263   6.074   5.955  0.0156 -0.0660 -0.0826
26463W        W43310   4.055  13.247   5.201  0.1243  0.0326  0.0165
26464W        W43311   7.609  18.299  15.110  0.2495 -0.0931 -0.2576
26465W        W43312   6.616   3.002   2.987 -0.2745  0.0705 -0.1446
26466W        W43313   8.462  10.464   2.461  0.0975  0.1138 -0.0436
26467W        W43314   5.277   9.070  12.168 -0.3532 -0.0644 -0.3138
26468W        W43315   7.327   9.705  11.952 -0.0130 -0.5182  0.0888
26469W        W43316   0.325   7.670   1.804  0.3067  0.3112 -0.1775
26470W        W43317  11.172   5.856  16.287  0.1496  0.0127 -0.1835
26471W        W43318   7.808   4.162  13.573 -0.0145 -0.0709  0.0592
26472W        W43319  16.597   3.959  14.135 -0.0140 -0.2108  0.1249
26473W        W43320   0.776   6.432  15.245  0.2936 -0.1770  0.0814
26474W        W43321   2.855   5.175   5.540 -0.3275  0.2203 -0.0639
26475W        W43322  14.984  10.042  16.308  0.1336  0.1161 -0.3729
26476W        W43323   3.629  16.924   5.613  0.0908  0.3031  0.1253
26477W        W43324  15.582  11.874   0.296 -0.0643  0.0282 -0.1635
26478W        W43325  14.029   6.402  15.749  0.0579  0.0858  0.3544
26479W        W43326  13.634   6.898  15.645 -0.0762  0.0889 -0.0713
26480W        W43327   7.281  13.205  16.031  0.0822  0.0431  0.1128
26481W        W43328  15.465  14.932   1.708  0.5005  0.3360 -0.0131
26482W        W43329   2.771  14.682   3.897  0.0076  0.0278 -0.0601
26483W        W43330   7.253   2.632  16.028 -0.1563 -0.1511  0.0851
26484W        W43331   4.143  14.137   2.698 -0.0126  0.0539  0.3769
26485W        W43332   0.950   3.340   2.708  0.1159 -0.4006  0.2005
26486W        W43333  10.298   3.819   4.488  0.0830  0.3912 -0.0738
26487W        W43334  10.438  14.929  15.917 -0.0238  0.0181 -0.2809
26488W        W43335  11.506  10.976   1.227  0.1341 -0.2064  0.3695
26489W        W43336   6.228   1.907   1.790 -0.1236  0.0745  0.0666
26490W        W43337  14.981  16.418   5.110 -0.1826  0.2136 -0.2441
26491W        W43338   7.692   2.735  15.365  0.1644 -0.1758  0.2421
26492W        W43339   6.707   4.436  15.725 -0.2038 -0.0024  0.0726
26493W        W43340   5.496   2.725   3.740 -0.0020  0.0627 -0.1948
26494W        W43341  16.173   7.955  14.477  0.3574 -0.0000 -0.0490
26495W        W43342   2.400   7.173  12.600 -0.0373  0.0488  0.1478
26496W        W43343   9.552   9.706   5.551 -0.1398  0.1216  0.0225
26497W        W43344   2.317  11.896  12.841  0.2358  0.1074 -0.1640
26498W        W43345  13.113   4.711  15.351 -0.0433 -0.0967 -0.1004
26499W        W43346  10.164  10.432  13.923  0.0350  0.0328 -0.1670
26500W        W43347  14.087  10.121   3.174  0.0546  0.3923  0.0834
26501W        W43348  14.242   1.915   0.792 -0.1924 -0.0250 -0.1032
26502W        W43349   9.785  13.635   5.369 -0.0007  0.1621  0.0203
26503W        W43350  10.516   6.010   4.742  0.3226  0.2023 -0.1451
26504W        W43351   8.473   2.091  12.622  0.1540  0.0660  0.0291
26505W        W43352   2.243   1.379  15.820  0.3297  0.2083  0.0889
26506W        W43353   0.105   3.449   0.875 -0.1391 -0.1999 -0.1886
26507W        W43354  10.512   3.117  13.521  0.2705  0.2763  0.1931
26508W        W43355   2.264  13.882   0.120 -0.0061  0.1948 -0.1224
26509W        W43356  15.277  14.464   2.053 -0.0545  0.1026  0.1340
26510W        W43357   3.429   9.195  15.778 -0.2858 -0.1514  0.1652
26511W        W43358  10.358   6.630   5.142 -0.2401 -0.0337  0.0737
26512W        W43359  14.938   5.869  15.805 -0.3771 -0.1781 -0.0376
26513W        W43360   7.292  15.837   3.167 -0.0973  0.1021  0.2435
26514W        W43361  16.550  15.685  14.730  0.0535  0.2116 -0.1528
26515W        W43362   0.149   4.584  13.008 -0.2203  0.0211  0.0589
26516W        W43363   2.281   2.263  15.417 -0.3219  0.0455 -0.2237
26517W        W43364  14.462  17.749  11.501  0.1941  0.3285  0.1856
26518W        W43365  16.749  14.487   1.191 -0.2254  0.1562 -0.3663
26519W        W43366   8.010   7.911  12.372 -0.2805 -0.2557 -0.0808
26520W        W43367  16.223  16.495  13.166 -0.2270 -0.2817 -0.1189
26521W        W43368   7.157   7.120   1.571 -0.1830  0.1920  0.0385
26522W        W43369   5.284   8.516   1.362  0.0137  0.0248 -0.4015
26523W        W43370  14.395  15.481   3.858 -0.0821 -0.1654  0.0324
26524W        W43371   2.929   9.063  14.903 -0.1374  0.1289 -0.3024
26525W        W43372   9.753   7.677   5.248 -0.1823 -0.2014 -0.0134
26526W        W43373   8.673   5.050  11.049  0.0941 -0.0853 -0.0576
26527W        W43374   0.101  17.290   0.369 -0.0346 -0.0720  0.0424
26528W        W43375   5.470  10.452  14.496 -0.1103 -0.0716  0.1769
26529W        W43376   1.320  12.712  13.540 -0.4077 -0.2046 -0.2469
26530W        W43377   1.789  17.621  15.200 -0.1629 -0.3241  0.1010
26531W        W43378   4.906  18.002  14.221 -0.0490 -0.0171 -0.1573
26532W        W43379   7.443  16.649  12.122 -0.2755 -0.1054  0.4463
26533W        W43380  17.648   2.265   3.753  0.0236 -0.2567  0.1690
26534W        W43381  12.147   6.255  12.369 -0.2014  0.0543 -0.1563
26535W        W43382   3.603   2.457  12.792  0.1786 -0.1096  0.0801
26536W        W43383  11.074  12.961   2.867  0.0898  0.0390 -0.0382
26537W        W43384   6.091   5.362  10.368  0.0352 -0.2261 -0.1728
26538W        W43385  15.446   1.493  15.816 -0.0754 -0.0754 -0.0004
26539W        W43386  17.649   5.530  11.431  0.0612 -0.5749 -0.0078
26540W        W43387   7.789  11.999   3.094  0.3788  0.2802 -0.2194
26541W        W43388  14.871   9.630  16.039 -0.2757 -0.1346  0.0782
26542W        W43389   2.437  17.256   4.238  0.1088 -0.0681 -0.1237
26543W        W43390  15.867  11.777   4.861  0.1742  0.1372 -0.0040
26544W        W43391   0.433   0.114   3.813  0.0988  0.0657 -0.2494
26545W        W43392   8.379  16.136  13.136  0.0367 -0.0594  0.1012
26546W        W43393  13.006   3.425   0.641  0.0487 -0.1869  0.0182
26547W        W43394  12.732  10.978  12.851 -0.3018  0.3502 -0.0939
26548W        W43395  13.835  12.125   3.043  0.2417  0.1317  0.2890
26549W        W43396   1.958   8.306   1.227  0.0723 -0.0603 -0.3863
26550W        W43397   1.991   2.830   1.747 -0.1009 -0.1685 -0.1446
26551W        W43398   6.358  16.087   4.954  0.3298  0.0060  0.0688
26552W        W43399   2.229   3.797  11.532  0.2949 -0.0786  0.2562
26553W        W43400  13.861  17.421   2.545 -0.0189 -0.5237 -0.3298
26554W        W43401   9.500   8.825  14.913 -0.1797  0.0705  0.0036
26555W        W43402   6.267   9.494  15.749 -0.1923 -0.0770  0.3963
26556W        W43403   0.253   7.079  15.325  0.3429  0.0203  0.1776
26557W        W43404   9.439   0.595   3.871  0.0386  0.1098 -0.1050
26558W        W43405   1.022  16.343  11.674  0.0592 -0.1602 -0.1401
26559W        W43406  13.268   1.873  14.035  0.2408  0.1610 -0.0173
26560W        W43407  17.586   2.174  12.450  0.0587  0.3381  0.1003
26561W        W43408  10.213   6.052  14.996  0.0065  0.0266 -0.2093
26562W        W43409  11.927   7.618   0.415 -0.3161 -0.3452  0.0957
26563W        W43410   0.447   5.102   0.035  0.2011 -0.0442 -0.2756
26564W        W43411  17.690  18.090   4.767 -0.0915 -0.1761 -0.1559
26565W        W43412  13.764  13.455  14.383 -0.2461  0.0661  0.0704
26566W        W43413  10.684   3.685   0.284  0.1455 -0.0468  0.2004
26567W        W43414   8.782  11.928   3.346 -0.0582  0.3237  0.0480
26568W        W43415   5.825  17.113   0.355  0.0492 -0.0353 -0.1497
26569W        W43416   7.363   1.827  15.348 -0.0783  0.2212  0.2848
26570W        W43417   6.926   0.038  11.308  0.0556  0.3127 -0.1535
26571W        W43418   1.394  17.256  11.697  0.0053  0.3640  0.0338
26572W        W43419   4.655  15.815  14.515  0.1573  0.1221  0.0724
26573W        W43420   6.518   9.684  13.166 -0.1834 -0.0365  0.2527
26574W        W43421  17.533   8.030   3.251 -0.2034  0.1176 -0.2864
26575W        W43422  15.125  12.675   3.771  0.0667 -0.0820  0.3217
26576W        W43423   6.455  11.730  13.769 -0.0736  0.1515  0.2097
26577W        W43424  17.236  14.184   4.742  0.1885  0.2146 -0.2392
26578W        W43425  14.478  13.457   3.270 -0.1394 -0.0954  0.0821
26579W        W43426   3.009   7.960   1.922 -0.2518 -0.0293 -0.3047
26580W        W43427  13.975  14.964  12.142 -0.1584 -0.0101 -0.2591
26581W        W43428  14.922  12.586   0.152 -0.0812 -0.0957 -0.1633
26582W        W43429  12.868  11.534  14.217 -0.0371  0.0722  0.2574
26583W        W43430   4.039   1.658   1.373  0.0047 -0.2410  0.1257
26584W        W43431  18.369   2.445   2.113  0.1655  0.1155 -0.0274
26585W        W43432   6.942   4.642  16.150  0.1864  0.3903  0.0327
26586W        W43433   5.625   5.968  13.054  0.3061 -0.1275  0.0115
26587W        W43434  16.191   1.184  11.302  0.1539  0.2977  0.1045
26588W        W43435  13.706   0.372  11.999 -0.0962  0.1662  0.2941
26589W        W43436   4.093   7.268  12.130  0.1138 -0.2267  0.2126
26590W        W43437   6.339  15.841   1.863  0.1104 -0.0159 -0.0207
26591W        W43438   3.708  14.742  12.250 -0.1163 -0.3756  0.2396
26592W        W43439  16.680   8.752  12.378 -0.3493 -0.1198 -0.0061
26593W        W43440   1.079   7.580   5.740 -0.0052 -0.0162  0.1593
26594W        W43441  15.693  18.062   4.587  0.2726  0.2231 -0.0012
26595W        W43442   4.451  15.208   1.960 -0.0726  0.1348 -0.1358
26596W        W43443   9.848  17.701   1.110  0.0268  0.1269 -0.1140
26597W        W43444  14.944  12.091   2.061  0.1355 -0.1645  0.0760
26598W        W43445  18.359  13.914   3.243  0.3027  0.1157 -0.1168
26599W        W43446   1.665  15.169   1.737  0.0919 -0.0652 -0.1924
26600W        W43447   6.260   9.283  11.862 -0.1344  0.1892 -0.1199
26601W        W43448   6.373  14.253   0.868 -0.1248 -0.2256  0.1614
26602W        W43449  18.004   4.510   1.491 -0.0757  0.1945  0.1820
26603W        W43450   6.123   1.146  15.286 -0.1039 -0.0483 -0.0936
26604W        W43451   5.345  12.651  13.574  0.3646  0.1016 -0.2011
26605W        W43452   0.201   1.071  13.885 -0.2175  0.1945 -0.1105
26606W        W43453  15.278   6.354   1.309 -0.0839 -0.1150 -0.0215
26607W        W43454   4.798   7.113   0.043  0.0957 -0.0497  0.4179
26608W        W43455   8.534   6.406   4.225  0.2925  0.0541  0.2802
26609W        W43456  10.104   4.403   2.050 -0.1363  0.0761 -0.1720
26610W        W43457   0.224   0.160  12.797  0.2627  0.1439 -0.0291
26611W        W43458   2.259   2.951  13.652  0.1682 -0.1376 -0.2996
26612W        W43459  16.174  13.284  14.485  0.0429  0.1425 -0.1288
26613W        W43460  10.810   3.397   4.942 -0.0353  0.0382  0.1243
26614W        W43461  17.445  14.208   0.620 -0.1243 -0.3681  0.1116
26615W        W43462  13.136   2.083  12.865  0.0727  0.1473 -0.1242
26616W        W43463  12.889   6.217  14.492 -0.2319 -0.1521  0.1427
26617W        W43464   4.766   0.844   3.596  0.0230 -0.1222 -0.0711
26618W        W43465  13.539   0.100   2.304  0.0887  0.0570 -0.0021
26619W        W43466   6.148   9.005   1.967  0.2869 -0.0515 -0.2641
26620W        W43467  14.044  10.319   1.740  0.1260  0.0777 -0.1213
26621W        W43468   8.899   4.443   3.152 -0.3198 -0.2396 -0.0065
26622W        W43469  15.789   4.229  12.207 -0.0654 -0.3554 -0.1095
26623W        W43470   0.185  16.795   3.313  0.0598  0.0207 -0.2179
26624W        W43471   5.454   2.581   4.251 -0.0304 -0.2360 -0.1151
26625W        W43472  18.376  15.226   0.187 -0.0933  0.1963 -0.1066
26626W        W43473   9.883   6.449   4.702  0.2202  0.0825 -0.0788
26627W        W43474   9.816   8.434  12.045  0.0947 -0.2478 -0.0724
26628W        W43475  10.195   3.411  14.736  0.1801  0.1128  0.1039
26629W        W43476  13.509   2.534   1.229  0.2745  0.0975 -0.2095
26630W        W43477   6.311  11.207  15.140 -0.0828 -0.2316  0.2256
26631W        W43478   1.300   6.430  14.192 -0.0188 -0.1164  0.2871
26632W        W43479  10.556  18.039   1.191 -0.0133 -0.0491 -0.5008
26633W        W43480  14.593  14.016  14.472 -0.2103  0.2167  0.1114
26634W        W43481  18.066  16.966  12.131  0.2753 -0.0710 -0.1954
26635W        W43482  15.457  15.922   5.055  0.1814  0.0309 -0.1505
26636W        W43483  15.770   9.098   2.531 -0.0381  0.2596  0.2365
26637W        W43484  12.581   1.379   1.306 -0.0788  0.1324 -0.1624
26638W        W43485   4.960  12.520   2.112  0.1309  0.0594 -0.1283
26639W        W43486   0.371   0.583  12.991 -0.3144 -0.1394 -0.2185
26640W        W43487   6.035   5.779   0.399 -0.1004  0.3558 -0.2049
26641W        W43488   4.370  13.209   4.184  0.0217 -0.0627  0.1237
26642W        W43489   6.485  13.454   2.954  0.0759  0.0263  0.0861
26643W        W43490  11.631  11.910   4.152 -0.4570  0.1071  0.2352
26644W        W43491   7.646   2.633   1.211 -0.0531 -0.1772  0.0638
26645W        W43492  14.646   6.783   0.816 -0.0884  0.0481 -0.1545
26646W        W43493  10.863   2.467  14.426  0.1321 -0.1846 -0.3076
26647W        W43494   2.996  13.422  14.310  0.3359  0.1796  0.0554
26648W        W43495   0.891   1.158  13.656  0.1473  0.1388 -0.1474
26649W        W43496   6.472  10.418   1.250  0.0710  0.1715  0.0352
26650W        W43497  17.078  13.649   4.684  0.0844 -0.0125  0.1298
26651W        W43498   7.397  15.951  16.196 -0.1682 -0.0465  0.1213
26652W        W43499   9.304   2.299   0.301 -0.0090  0.0590 -0.5560
26653W        W43500  12.337  16.456   1.950  0.2116  0.1518 -0.1711
26654W        W43501   5.581   4.534  14.901 -0.0862 -0.0334 -0.0710
26655W        W43502  10.546  17.411   4.280 -0.0016 -0.1692 -0.0654
26656W        W43503   6.913   3.734  12.628 -0.0007 -0.1163 -0.0995
26657W        W43504  14.048  18.283   1.742  0.0037 -0.0679  0.0916
26658W        W43505   1.109  14.372   6.012 -0.0098 -0.2001 -0.0322
26659W        W43506  15.362   0.081   3.661 -0.1182  0.1004 -0.3000
26660W        W43507   9.639  17.413   0.291 -0.0253  0.1934 -0.0713
26661W        W43508  14.241   3.726   0.148  0.2973 -0.1134  0.0086
26662W        W43509  17.161   3.761  13.144 -0.3628  0.1369 -0.4189
26663W        W43510   8.301   3.176   3.653 -0.3876  0.1660  0.0123
26664W        W43511  12.497   5.735  15.960 -0.1555  0.1317 -0.2003
26665W        W43512   3.642  15.923   4.715  0.2315  0.0350 -0.0039
26666W        W43513  11.249  12.260  13.686  0.3733 -0.0761  0.1652
26667W        W43514   8.848   5.506   1.343 -0.0683 -0.1659 -0.0579
26668W        W43515  10.161  10.228  15.027  0.1288 -0.3252 -0.0841
26669W        W43516   5.089  12.545   0.031 -0.3577  0.1422 -0.2228
26670W        W43517   1.664   5.481   2.830  0.2795 -0.0215  0.0692
26671W        W43518   3.534   4.060  15.976  0.0623 -0.0917  0.0706
26672W        W43519  17.518  12.822   0.314  0.1081  0.1589 -0.2058
26673W        W43520   8.679  14.749  12.786 -0.0529  0.3455  0.0883
26674W        W43521   0.073   5.961  13.992 -0.0175 -0.0931  0.0239
26675W        W43522   4.678  15.446  15.771  0.1220 -0.0070 -0.2252
26676W        W43523  14.183  12.679  13.422 -0.0971 -0.0367  0.0265
26677W        W43524  11.138  12.226   0.096 -0.0158 -0.0468  0.0888
26678W        W43525  10.888   6.088   5.593 -0.3899 -0.1100 -0.1318
26679W        W43526   7.405   9.859  14.432  0.0702  0.1681 -0.3540
26680W        W43527   0.245   5.594   1.855 -0.0784 -0.1242 -0.1045
26681W        W43528  13.590   1.298   5.280  0.2812  0.4632 -0.1848
26682W        W43529   8.651  16.763   1.796  0.0123 -0.1503  0.0293
26683W        W43530   4.245   4.856  12.789 -0.2011  0.2984  0.1582
26684W        W43531  11.034  10.608   4.575  0.0355 -0.2028 -0.0373
26685W        W43532   2.166  15.399  11.504  0.1500 -0.1419  0.2788
26686W        W43533   5.638  10.190   4.005 -0.0230 -0.2402  0.1218
26687W        W43534  17.025  11.939  15.595 -0.1613  0.2795 -0.3558
26688W        W43535  11.726   0.323  13.149 -0.1060 -0.1537  0.0534
26689W        W43536  15.586  10.753  14.569 -0.1909 -0.0554  0.0613
26690W        W43537  16.462  12.974  13.303 -0.1061  0.0207  0.2153
26691W        W43538  18.365   8.151  14.333  0.0723  0.1310 -0.2352
26692W        W43539   7.252   1.728   2.623 -0.1646  0.2507 -0.0347
26693W        W43540   4.591  13.253   5.033 -0.2664  0.4095  0.0746
26694W        W43541   1.962  17.178   3.450  0.2256 -0.2054  0.1991
26695W        W43542   9.891   0.910   0.892  0.0292  0.2071 -0.0717
26696W        W43543   2.501   0.720   4.686  0.1280  0.1379  0.0928
26697W        W43544  15.447   6.601  13.478 -0.0686 -0.0030 -0.4366
26698W        W43545  18.070  17.170  13.351  0.2536  0.1122 -0.0364
26699W        W43546   0.599   9.572   5.729 -0.2794 -0.1091  0.0645
26700W        W43547   2.073  16.990   4.528 -0.1742 -0.2690  0.4001
26701W        W43548  17.323  14.687   6.061 -0.0543 -0.3616  0.0477
26702W        W43549  14.184   2.017   3.175 -0.0923  0.2510 -0.2062
26703W        W43550  17.176   4.048   5.047 -0.1657  0.5278  0.0234
26704W        W43551   5.510  13.477  13.944 -0.1688  0.0137  0.1256
26705W        W43552   9.777  10.383   1.472  0.1803  0.0931 -0.1744
26706W        W43553  15.342  13.721  14.827  0.1353  0.0136 -0.2037
26707W        W43554  11.941   9.721  13.462  0.0329 -0.0341 -0.0224
26708W        W43555  11.766   6.881   1.473  0.0614  0.1288  0.2398
26709W        W43556   0.066   3.830  11.181 -0.2460  0.3258  0.0299
26710W        W43557   6.194   2.951  15.967 -0.2389  0.0632 -0.3736
26711W        W43558  10.885   8.413  14.126 -0.1606 -0.2867 -0.0534
26712W        W43559  10.014   2.948   0.538 -0.0806 -0.1909  0.1526
26713W        W43560   8.956  13.003   1.010  0.0902 -0.2445 -0.0294
26714W        W43561   2.634  12.217  13.033 -0.0673 -0.2427  0.3812
26715W        W43562   6.554   4.244  14.934 -0.2746  0.0548  0.0296
26716W        W43563   1.312   2.869  11.841  0.0187 -0.0960 -0.1967
26717W        W43564  18.009   8.098   1.765  0.2357  0.1252  0.0677
26718W        W43565  14.954  15.125   0.796  0.2202 -0.2654 -0.1416
26719W        W43566   8.424   9.024  14.527  0.1115 -0.0398  0.2827
26720W        W43567  10.389   4.780  12.877 -0.1151  0.2350 -0.0460
26721W        W43568   1.106  12.633  14.548 -0.2651 -0.0313 -0.4663
26722W        W43569  14.301  13.281  12.433  0.0077 -0.1342  0.3005
26723W        W43570   7.513  11.202   5.449 -0.1531 -0.1792  0.1571
26724W        W43571   6.960   9.631   0.428  0.2391 -0.0721  0.0353
26725W        W43572  12.503  12.458  12.018  0.0566  0.0834  0.1135
26726W        W43573  17.320   1.960  11.165 -0.3020  0.0863 -0.0401
26727W        W43574  10.855   9.891   0.827  0.5221  0.1531 -0.1332
26728W        W43575   6.235   0.622  12.665 -0.0281 -0.0426 -0.1323
26729W        W43576  15.023   5.327  15.805 -0.2180  0.0252  0.2108
26730W        W43577  11.547  11.987   4.960  0.4037  0.2030  0.1904
26731W        W43578  13.692   9.915   0.835  0.0230  0.0833 -0.4204
26732W        W43579   7.091   0.770   0.878  0.2905  0.1401 -0.2736
26733W        W43580  15.816   8.604   2.282  0.1148 -0.1544 -0.2330
26734W        W43581   0.983   5.922   3.993 -0.2790  0.0777  0.0798
26735W        W43582  13.004  16.583  16.328 -0.0465 -0.1060  0.1895
26736W        W43583  16.655   4.407  15.844  0.0037  0.0345  0.2616
26737W        W43584  10.868  12.319   5.599 -0.0359  0.0518  0.1250
26738W        W43585   4.140  12.019  16.331  0.0319  0.1374 -0.2558
26739W        W43586   5.937   2.970   4.987 -0.0598  0.0259 -0.2549
26740W        W43587   0.844   6.475  12.704  0.2570  0.2823  0.0748
26741W        W43588   2.876  13.891   3.661  0.1845  0.0126  0.0261
26742W        W43589   6.365   1.797   2.788  0.1138 -0.1550  0.3989
26743W        W43590   9.746  14.713   3.352 -0.0698  0.1634  0.1745
26744W        W43591  16.730   2.535   1.135  0.0818 -0.0749  0.0159
26745W        W43592   3.319  18.162  16.122  0.3095  0.0319  0.1061
26746W        W43593   1.972   1.342  11.780  0.1456 -0.1115  0.0103
26747W        W43594  10.375  18.049  11.535  0.2179  0.3307 -0.2028
26748W        W43595  10.537   2.356   0.568 -0.0548 -0.3398 -0.0441
26749W        W43596  17.029   0.098  12.614  0.4739  0.0247 -0.1960
26750W        W43597   8.804   2.302   5.468 -0.0242  0.1444  0.1937
26751W        W43598   7.887   9.476   5.707  0.0568  0.2757  0.0978
26752W        W43599   4.414   0.874   2.002  0.1710 -0.0555 -0.1609
26753W        W43600  11.515   0.221   4.470 -0.2042  0.2095  0.0572
26754W        W43601   5.788  17.890  15.315  0.0794  0.0740 -0.1453
26755W        W43602  16.596  18.282  15.023 -0.1969  0.2307  0.2585
26756W        W43603  13.501   8.368   3.224 -0.1037  0.3606 -0.0859
26757W        W43604  12.020  17.321  14.775 -0.2261 -0.3587  0.1325
26758W        W43605  17.568   9.122   0.496  0.1541 -0.1605  0.1006
26759W        W43606   5.173   6.916  14.703 -0.2915 -0.3206  0.0024
26760W        W43607  12.142   3.639   0.141 -0.3457 -0.0233  0.1944
26761W        W43608   4.402   6.739  15.355  0.0968  0.0193  0.0992
26762W        W43609   4.830   8.482  15.586  0.0173  0.0780 -0.1070
26763W        W43610   0.882  17.623  14.683 -0.0353 -0.1244 -0.0035
26764W        W43611  12.393  13.061   4.801 -0.2063  0.1056  0.0024
26765W        W43612   6.612   6.076   1.743  0.2152  0.1917  0.1920
26766W        W43613   5.847  13.148   0.759  0.3793  0.1336 -0.0792
26767W        W43614   5.704   7.275  12.441  0.2095 -0.0593  0.0859
26768W        W43615  16.870   6.827   3.955 -0.1844  0.3946 -0.1514
26769W        W43616  11.893  14.700  13.905 -0.1999  0.1760 -0.0071
26770W        W43617   9.232  10.015  15.004 -0.1668  0.0026 -0.0852
26771W        W43618   6.891  13.296   2.655 -0.0921 -0.0776 -0.0745
26772W        W43619  14.758   1.190   3.188 -0.2385 -0.0530  0.0186
26773W        W43620   3.393  14.364  12.203 -0.0858  0.3822  0.0824
26774W        W43621   3.671  12.701   0.322 -0.2494 -0.2051 -0.1064
26775W        W43622   3.587   1.816   1.096 -0.1454  0.3669  0.1685
26776W        W43623   0.230  11.600  11.146  0.0643 -0.3127  0.4772
26777W        W43624   0.607  13.474  14.498  0.0952  0.0785  0.0620
26778W        W43625  16.717  18.232  15.588  0.0115 -0.2041  0.1123
26779W        W43626  16.120   3.178   4.649  0.2777 -0.3249 -0.2098
26780W        W43627   5.441   7.937  14.834 -0.0060 -0.1619 -0.3608
26781W        W43628   7.959   2.961   3.966 -0.0785  0.0026 -0.1361
26782W        W43629   9.342  13.316  15.219  0.2498  0.0018  0.0529
26783W        W43630  13.402   3.804   4.413  0.3548  0.3621  0.4813
26784W        W43631  16.087  17.654   2.888 -0.0312  0.0853 -0.1927
26785W        W43632   8.680  14.910  11.730 -0.5446 -0.1545  0.1805
26786W        W43633  17.228  10.337  15.065 -0.2180 -0.2041  0.0480
26787W        W43634   5.899   0.567  14.281  0.1047 -0.1982  0.2744
26788W        W43635  12.178  11.382   2.110 -0.2845 -0.2636  0.0943
26789W        W43636   6.373   2.395   3.482  0.2047  0.1491 -0.1564
26790W        W43637   0.540   0.007   4.364 -0.0440 -0.2244  0.1606
26791W        W43638   2.573  16.197   1.301  0.2268  0.1147 -0.0365
26792W        W43639   6.870  13.922   0.593 -0.1207  0.1840 -0.0248
26793W        W43640  13.161  13.373   4.874 -0.1543  0.3678 -0.0303
26794W        W43641   1.541   9.261  14.462  0.1147  0.1259  0.1509
26795W        W43642  17.803  10.469  14.089 -0.0224  0.0456 -0.4236
26796W        W43643  12.691   5.408   2.134 -0.0045 -0.3431  0.1767
26797W        W43644  15.315   6.632  12.481 -0.0588 -0.2948  0.3740
26798W        W43645   2.956   7.232   2.316  0.1033 -0.3979  0.3380
26799W        W43646   7.837   3.049   1.031  0.2524 -0.0119 -0.1079
26800W        W43647   1.365  14.073   4.367 -0.1772 -0.0546  0.0193
26801W        W43648   2.916   4.193  10.847  0.1422  0.1979  0.0437
26802W        W43649   2.008  16.128   4.543  0.0689 -0.0853  0.0141
26803W        W43650   5.297  16.756   0.346 -0.2883 -0.3687  0.2148
26804W        W43651  12.682   0.556  14.374 -0.3467 -0.1059 -0.0120
26805W        W43652   7.681   3.566  13.073  0.2225  0.3261 -0.1217
26806W        W43653   4.297  15.873   5.482 -0.2303  0.0852 -0.2084
26807W        W43654   5.074  16.664   5.279  0.1462 -0.3243 -0.3096
26808W        W43655   3.503  16.320   1.093 -0.0911 -0.4024  0.1495
26809W        W43656   7.443   3.318   3.619 -0.0668 -0.1358 -0.1651
26810W        W43657   1.167  12.133  14.525 -0.4331 -0.1046  0.1359
26811W        W43658  10.799  16.767   1.675  0.2487 -0.4007 -0.1665
26812W        W43659   4.040  14.503   4.811 -0.0540 -0.0283 -0.1311
26813W        W43660   2.571  17.455  12.886  0.0187  0.2201 -0.0750
26814W        W43661   9.083  17.568   4.675  0.0332  0.1428 -0.1931
26815W        W43662   1.705  14.317   5.178 -0.0738 -0.0813  0.0202
26816W        W43663  17.607   6.630   0.461 -0.0358  0.1105 -0.0403
26817W        W43664   8.920  10.620   0.842  0.0274  0.0637  0.0224
26818W        W43665  13.120   2.792   2.046  0.2571  0.0548  0.1030
26819W        W43666  11.851   9.263  14.710 -0.1116  0.1103 -0.3310
26820W        W43667  10.001  10.964  15.364  0.0282 -0.1734  0.0703
26821W        W43668  12.981  15.035   1.008  0.3990 -0.1923 -0.1309
26822W        W43669   9.792  12.337   2.929 -0.2453 -0.1792 -0.3670
26823W        W43670   7.604   9.792   4.205 -0.0870 -0.0645 -0.0846
26824W        W43671  14.583  12.041  14.795 -0.1593  0.1295  0.1730
26825W        W43672   9.276   1.400   2.594  0.0239 -0.1591  0.1517
26826W        W43673   6.611   0.552  13.804  0.1725 -0.2262 -0.0125
26827W        W43674  14.822   6.149  12.972  0.1253 -0.2595 -0.0627
26828W        W43675  15.409  16.538   0.251  0.1616 -0.1344  0.0006
26829W        W43676   8.666   5.117  15.308 -0.2350 -0.0917 -0.2082
26830W        W43677   9.189  13.871  15.589  0.1336 -0.1380  0.3458
26831W        W43678   5.234   0.808   4.067 -0.0017 -0.0124  0.0931
26832W        W43679  15.964   3.732   4.537  0.0597  0.0015 -0.2172
26833W        W43680   1.200   5.529   1.651 -0.1160  0.1192 -0.1331
26834W        W43681   1.892   2.996   0.227 -0.1174 -0.2107 -0.0810
26835W        W43682   3.982   4.275   3.848 -0.2369 -0.0943 -0.0319
26836W        W43683  14.728   8.234  11.542 -0.4617 -0.0780  0.1173
26837W        W43684  18.114   5.815   4.616  0.3339 -0.1150 -0.0496
26838W        W43685  13.812  11.552   5.862 -0.1259 -0.2001 -0.0894
26839W        W43686  12.363  13.423  14.547 -0.3630  0.1160 -0.1532
26840W        W43687   6.421  10.428   3.704 -0.2865  0.4733  0.1903
26841W        W43688   1.511  10.495   5.255 -0.0263  0.0394  0.0834
26842W        W43689   2.751  10.430  14.715 -0.0594  0.2279  0.0542
26843W        W43690  13.314   4.428  11.053 -0.1527  0.1029  0.4671
26844W        W43691   4.425   7.201  11.802  0.0014 -0.0245  0.2309
26845W        W43692  18.085   0.040  10.250  0.0728  0.1624  0.0006
26846W        W43693   2.224  13.158  12.867  0.2049 -0.4174 -0.2161
26847W        W43694   4.489   0.825  15.167  0.1277 -0.0575 -0.1350
26848W        W43695  10.190   8.733   5.460 -0.1033 -0.0411 -0.0646
26849W        W43696   9.196  15.991   3.458  0.2754  0.1752  0.0833
26850W        W43697  15.355  10.036   2.000  0.1155  0.1865  0.0303
26851W        W43698   8.740   1.960  11.617  0.1519  0.0112  0.0714
26852W        W43699  12.362  10.335   4.837 -0.2417  0.0607 -0.0517
26853W        W43700   4.452  14.193  13.579 -0.2573  0.2636 -0.3994
26854W        W43701   5.245   9.629   3.562  0.3808  0.1638  0.0349
26855W        W43702   4.065  17.663   0.656 -0.0473  0.0217 -0.3595
26856W        W43703   9.954   3.751  15.006 -0.2040  0.3088  0.1083
26857W        W43704   0.154   5.965   3.350 -0.3789 -0.1804  0.4296
26858W        W43705  10.141   3.001   6.146 -0.1508  0.0306 -0.0068
26859W        W43706   8.828  16.587  10.697  0.1726 -0.0708 -0.1102
26860W        W43707  15.277  12.774  16.231  0.0141  0.0900  0.0745
26861W        W43708   8.434   7.293   4.703  0.2232  0.2064  0.0589
26862W        W43709  11.899   2.483  12.811 -0.3080 -0.0667  0.0872
26863W        W43710  17.004   3.021   2.251  0.1245 -0.0235 -0.2929
26864W        W43711  16.216  18.107   0.683  0.0834 -0.0842 -0.4456
26865W        W43712  10.638  10.760   4.239 -0.2210 -0.2039  0.1037
26866W        W43713   2.866   3.574  12.305  0.0936 -0.0824  0.0005
26867W        W43714  14.314  16.858  15.588 -0.2866  0.2036  0.1019
26868W        W43715  14.695   3.751   2.784 -0.1530  0.0737  0.0898
26869W        W43716   3.110   7.055  13.847 -0.1121  0.0565  0.3666
26870W        W43717   3.416   6.404  13.209  0.0851  0.1160 -0.1725
26871W        W43718   0.419   7.712  14.289 -0.0401 -0.2164 -0.0910
26872W        W43719   4.062   5.258   0.439  0.1221  0.1768  0.0507
26873W        W43720  10.055  17.931  14.358 -0.1944 -0.1598  0.0644
26874W        W43721   7.998   0.648   6.065 -0.0027  0.1580  0.0551
26875W        W43722  14.985  13.989  12.052 -0.1412 -0.1499 -0.2044
26876W        W43723   8.992   8.113  12.625  0.1999  0.2040 -0.1323
26877W        W43724   0.668  11.375   5.099 -0.0227 -0.0590  0.1384
26878W        W43725  11.502  10.588   0.599  0.1656  0.0112 -0.0603
26879W        W43726   5.124  15.199  12.083  0.0884  0.3016  0.1759
26880W        W43727  13.903  14.540   0.263 -0.1036  0.2722 -0.0615
26881W        W43728   2.211   0.533  14.863 -0.1851 -0.1535 -0.1743
26882W        W43729   9.262  12.391   5.217  0.5225  0.1786 -0.0833
26883W        W43730   1.594  16.803   0.318 -0.0429  0.1814  0.1848
26884W        W43731  12.284   1.225  13.981 -0.4255 -0.0482 -0.1557
26885W        W43732   0.624  17.624  11.486 -0.1087  0.0915 -0.0507
26886W        W43733  14.903   5.478  11.492 -0.1006  0.3188  0.3940
26887W        W43734  18.290  16.080  16.227  0.0336 -0.1088  0.1090
26888W        W43735  18.153  12.381  14.057 -0.0947  0.0032  0.3075
26889W        W43736  15.586  15.496  14.405  0.2560  0.1401  0.0285
26890W        W43737   2.108   5.467  11.394 -0.0105  0.3452  0.2959
26891W        W43738  14.466   9.210   3.679  0.0152  0.0823  0.0754
26892W        W43739   8.998   5.538  15.236 -0.0568  0.2083  0.1125
26893W        W43740   5.611   3.746   2.906 -0.0708  0.1249  0.2868
26894W        W43741   5.796  14.774  13.762 -0.3587  0.3397  0.1580
26895W        W43742  13.520   0.050   4.610 -0.3787 -0.0003  0.2314
26896W        W43743  18.365  17.793   2.462  0.5079  0.0597 -0.1345
26897W        W43744   1.518  11.853  14.152  0.1969  0.1764  0.0713
26898W        W43745  13.058   1.477  14.984  0.0344 -0.0485  0.1172
26899W        W43746   6.910  16.381  14.383 -0.2341 -0.1181  0.0766
26900W        W43747   0.314   1.037  16.303 -0.0552  0.1190  0.3371
26901W        W43748   5.407   9.581  12.139  0.1229  0.0971  0.3892
26902W        W43749  11.797   7.967  16.074 -0.2012 -0.0772 -0.1199
26903W        W43750   3.568   2.356  16.137 -0.0872 -0.0476 -0.0619
26904W        W43751   6.091  13.150  12.539  0.0123 -0.0288  0.1399
26905W        W43752  12.635  14.681  11.790  0.1646  0.0251 -0.0161
26906W        W43753   2.191  13.329   4.861 -0.0518 -0.1509 -0.3954
26907W        W43754  11.615   5.912  14.698  0.1322  0.0964  0.1330
26908W        W43755   6.369   4.291   3.269  0.0113 -0.3219 -0.0974
26909W        W43756  11.882   5.718   0.664 -0.4751  0.0255 -0.0623
26910W        W43757  11.735  11.301   2.958  0.1004  0.0948 -0.0060
26911W        W43758   4.800  10.615   0.965  0.2677 -0.0837 -0.4144
26912W        W43759   0.450  14.732   3.914  0.0318 -0.2233  0.1413
26913W        W43760   6.225  11.071   3.060  0.0877 -0.0276  0.1303
26914W        W43761   5.660  17.804   3.489 -0.0491 -0.0459 -0.1238
26915W        W43762  18.065   3.125   1.629 -0.2866  0.3719  0.0159
26916W        W43763   1.757   7.894   3.568  0.1709 -0.3832 -0.1026
26917W        W43764  11.738  13.520  12.642  0.0709  0.1156  0.2891
26918W        W43765   1.450   6.257   0.074  0.3055 -0.2817  0.2848
26919W        W43766   5.527  18.389   4.164  0.0952 -0.1329 -0.1740
26920W        W43767   4.727  11.693   4.532  0.2131 -0.1719  0.4415
26921W        W43768  13.386   0.857   3.105  0.2911  0.2248  0.1766
26922W        W43769   8.563  13.902   1.217  0.4990  0.0022  0.1053
26923W        W43770   7.091  14.386  13.511  0.3069  0.3687  0.4194
26924W        W43771  15.788   3.393  12.224  0.1414 -0.0000 -0.1753
26925W        W43772  18.032  18.122   2.648  0.0940 -0.2151 -0.0402
26926W        W43773  12.724   1.363  13.703  0.2885  0.1896 -0.2486
26927W        W43774  18.408  10.025   2.789  0.0686  0.0472  0.0501
26928W        W43775   2.701   1.718  12.886 -0.2195  0.0460  0.2818
26929W        W43776   5.965   1.741  11.313 -0.2908  0.0851 -0.0181
26930W        W43777  16.547  16.968   1.772  0.2423  0.1494  0.0943
26931W        W43778  14.214   2.998  14.282 -0.3136  0.2504 -0.0545
26932W        W43779   0.864   8.619   0.856 -0.0744 -0.0553  0.1866
26933W        W43780   2.241   7.100  10.851 -0.0001 -0.0651  0.2243
26934W        W43781  15.052  16.352   3.727  0.0627 -0.1608  0.0280
26935W        W43782   0.091   3.252  10.964  0.1511  0.2783 -0.0866
26936W        W43783   9.089   8.686   0.342 -0.0913  0.2026 -0.1369
26937W        W43784   4.019  12.883  10.600  0.0663 -0.0831  0.0148
26938W        W43785  10.579   1.566   2.993  0.2645  0.1853  0.0410
26939W        W43786   3.895  11.087   1.663  0.1879 -0.0235 -0.2435
26940W        W43787   4.583   3.686  14.106  0.0868  0.0206  0.1006
26941W        W43788  16.653  13.737   0.754 -0.1772 -0.1686 -0.3293
26942W        W43789   2.245  14.621  14.706 -0.2509 -0.2109 -0.0401
26943W        W43790  12.049  16.535   4.650  0.1147  0.1341 -0.0999
26944W        W43791   6.155   5.882   6.066  0.0487 -0.3954  0.3038
26945W        W43792  16.149  15.242   3.894 -0.2210 -0.0560 -0.3184
26946W        W43793  12.103   4.341   3.253  0.0993  0.0041  0.3949
26947W        W43794  15.037  13.848  13.603  0.0382  0.2348 -0.0721
26948W        W43795  10.557  10.212  12.184 -0.3351  0.2750  0.1707
26949W        W43796   7.071   5.896  16.063  0.0417  0.1730  0.4040
26950W        W43797   0.589   2.062   5.536  0.0007 -0.0118 -0.0647
26951W        W43798   0.771   4.477  10.589 -0.7864 -0.0414 -0.1887
26952W        W43799   6.961   0.608   3.747  0.0016 -0.1320  0.0468
26953W        W43800   0.028  13.236  13.754 -0.0087  0.2008  0.1777
26954W        W43801  12.528  12.230  11.348 -0.1425  0.1822 -0.0467
26955W        W43802   9.794  12.744  15.835 -0.1570  0.0387 -0.0082
26956W        W43803  13.514  15.860   1.706  0.2372  0.0785 -0.2434
26957W        W43804  12.177  13.813  12.387 -0.0248 -0.0627 -0.4385
26958W        W43805   5.864   4.808  15.787 -0.0552 -0.0241 -0.2159
26959W        W43806  10.738   6.750  15.500  0.2216 -0.0247  0.1166
26960W        W43807   4.779  14.927   0.872  0.2624  0.1386  0.0006
26961W        W43808  17.314  14.480   1.011 -0.0846 -0.1382  0.2415
26962W        W43809   9.219   7.348   2.050 -0.3204  0.2473  0.1179
26963W        W43810  13.133  11.769   4.307  0.0211 -0.0308  0.1580
26964W        W43811  13.899  13.430   4.817  0.2688 -0.0253 -0.0038
26965W        W43812   5.567   9.257  15.249  0.0385 -0.1501  0.0175
26966W        W43813  14.479  15.862   5.215  0.3168 -0.1792  0.1214
26967W        W43814   4.536  12.591   2.352 -0.0459 -0.0650  0.0858
26968W        W43815   5.829  12.700   5.926 -0.1570 -0.0369 -0.1825
26969W        W43816  11.976   9.410   4.962 -0.2471 -0.2230  0.3957
26970W        W43817   3.312   4.759  14.050  0.1004  0.0366 -0.1322
26971W        W43818  16.916  12.381   4.090  0.1065  0.2104 -0.0158
26972W        W43819  10.328   8.100  12.795 -0.0789  0.1260 -0.2061
26973W        W43820   5.719   2.593   5.192 -0.0685 -0.0015  0.1248
26974W        W43821  15.938  14.398   3.999 -0.0995 -0.0052  0.0496
26975W        W43822  15.882   0.150   0.681  0.0949 -0.1523  0.1319
26976W        W43823  12.297  11.379   3.192 -0.3446 -0.3471  0.1202
26977W        W43824  17.088   9.006  12.072 -0.1849 -0.0806  0.4684
26978W        W43825  13.902   5.322  14.853  0.2073  0.0182  0.0112
26979W        W43826   3.813   2.105  15.699 -0.0310  0.4165  0.2317
26980W        W43827  14.710   7.220   2.109  0.1287  0.0777 -0.1026
26981W        W43828   0.574   8.861   4.410 -0.1737 -0.0729  0.1479
26982W        W43829   7.557   8.983  11.744 -0.2886 -0.0384 -0.0023
26983W        W43830  11.828   0.261  16.128 -0.1733  0.0337 -0.2558
26984W        W43831   7.667  17.387   1.195  0.0717  0.0332 -0.3897
26985W        W43832  16.796  13.219   4.726  0.1893 -0.0301  0.0141
26986W        W43833  12.024   0.853   0.736  0.0663 -0.0789  0.2585
26987W        W43834  13.375  15.417  13.934  0.2213 -0.1506 -0.1132
26988W        W43835  12.494   5.451   4.630 -0.3427 -0.2513 -0.0335
26989W        W43836   3.556  10.629   2.588 -0.0324 -0.3162  0.1124
26990W        W43837   7.399  16.713   4.115 -0.2182  0.1935  0.0556
26991W        W43838  14.025  15.973   1.971  0.0351 -0.1116 -0.0035
26992W        W43839   1.703   0.015   2.552 -0.1627 -0.0715 -0.1004
26993W        W43840  17.781   6.618  12.953 -0.1891  0.0225  0.0039
26994W        W43841   0.783   8.257  13.773 -0.0917  0.1883 -0.2659
26995W        W43842  13.084   8.553   0.848 -0.4353  0.0149  0.1536
26996W        W43843   2.978  14.973   5.611 -0.0103 -0.2421  0.0901
26997W        W43844   1.390  10.900   0.272  0.1401 -0.1703 -0.2745
26998W        W43845   0.302   7.695   2.315  0.0375  0.0229  0.1518
26999W        W43846   6.317  10.934   0.426  0.4034 -0.3511 -0.1231
27000W        W43847  17.693  11.432  11.552 -0.0538  0.2377  0.4816
27001W        W43848  15.469   4.054  13.586  0.0621 -0.3304  0.0314
27002W        W43849   1.741   1.660  13.927 -0.1484 -0.3455 -0.2387
27003W        W43850   4.494  11.777   4.943 -0.0501 -0.0753 -0.1722
27004W        W43851   4.634  16.317  14.789 -0.1584 -0.2796  0.0504
27005W        W43852   2.403  14.634  11.968 -0.0977  0.2280  0.3047
27006W        W43853   6.680   3.919  11.323 -0.1275 -0.0391 -0.1337
27007W        W43854  10.584  16.475   4.690 -0.2485  0.1913 -0.0383
27008W        W43855  11.149   9.311  10.242  0.0885  0.0758 -0.1864
27009W        W43856  13.569  13.769   4.599 -0.0319  0.0787 -0.1889
27010W        W43857   4.431  11.862   0.409  0.0036  0.1154 -0.1846
27011W        W43858   2.891   3.764   3.329 -0.1605 -0.1853 -0.0426
27012W        W43859   2.341   9.808   4.945  0.0624 -0.1665  0.0387
27013W        W43860  12.544   0.825  11.038 -0.1041  0.2309  0.2067
27014W        W43861  12.856   3.615  11.470  0.0609 -0.3417  0.1787
27015W        W43862  14.278   0.725  12.583 -0.1694 -0.2210 -0.2850
27016W        W43863  15.970   9.784  13.195 -0.0786 -0.0855 -0.1173
27017W        W43864  12.976   2.306  16.304 -0.2996 -0.2149  0.0702
27018W        W43865  10.368   3.074  13.034 -0.0285 -0.2177  0.1627
27019W        W43866   3.592   6.865  11.339  0.2573 -0.1367  0.0897
27020W        W43867  15.069  16.143   5.924  0.0873 -0.1194 -0.3690
27021W        W43868  17.136   6.382  14.607  0.0091  0.2263 -0.1104
27022W        W43869  12.174   4.103  13.904  0.3555  0.0285 -0.2916
27023W        W43870  17.713  13.422  15.306  0.3078  0.0308 -0.0915
27024W        W43871   0.646  10.813  14.350 -0.0873 -0.0743 -0.4617
27025W        W43872   2.196   7.777  16.166 -0.0713 -0.1680  0.1498
27026W        W43873   9.565   5.797  11.636 -0.0395 -0.2154  0.1874
27027W        W43874   3.147  13.508   3.327  0.2514  0.1344  0.1939
27028W        W43875  17.252   8.078   4.617 -0.1996  0.0044  0.0053
27029W        W43876   8.437  10.105   4.446  0.0271  0.0280 -0.1272
27030W        W43877   4.733   6.041   0.628  0.1363  0.3103  0.2816
27031W        W43878   2.359   0.734   5.179 -0.4212 -0.1319  0.1589
27032W        W43879   4.578   1.240   2.687  0.1908  0.0701  0.0852
27033W        W43880   9.307  17.822  13.302  0.0049  0.0620  0.2057
27034W        W43881   2.518  14.222  12.250  0.1336 -0.2426 -0.0369
27035W        W43882  14.250   6.193  14.050  0.1400  0.4035  0.0741
27036W        W43883   3.244  11.651   2.763 -0.0611  0.0713 -0.0903
27037W        W43884  16.292  14.573  14.728 -0.0606 -0.2963  0.2479
27038W        W43885   2.187   7.902   0.337  0.4154 -0.1313  0.0748
27039W        W43886   5.186   7.449   2.719  0.1190 -0.0711  0.0664
27040W        W43887   3.910   8.297  15.982 -0.1202 -0.2276 -0.0829
27041W        W43888  15.317   9.600   2.860 -0.1748 -0.1378  0.1441
27042W        W43889   7.114   0.431   1.963  0.0183 -0.2130 -0.4138
27043W        W43890  11.564  13.886   1.265  0.1244  0.3448 -0.0332
27044W        W43891   7.036  10.458  15.606 -0.1856  0.2990 -0.2872
27045W        W43892   4.747   1.045   4.060  0.0422  0.0465 -0.0573
27046W        W43893   2.599   2.681  15.397  0.0423 -0.0226 -0.0162
27047W        W43894   7.082   8.853   5.473 -0.4071 -0.0759 -0.0647
27048W        W43895  15.210  13.686  15.399  0.0871 -0.0476 -0.1760
27049W        W43896   6.555   4.090   2.873 -0.1947  0.0359  0.0585
27050W        W43897   4.365   0.890  13.019  0.0382  0.2578 -0.2729
27051W        W43898   2.509   5.762   3.036 -0.1545 -0.2634  0.4242
27052W        W43899  12.221   6.232   1.252 -0.2105  0.1870 -0.2312
27053W        W43900  11.252  10.279   4.239  0.1011 -0.1876  0.3000
27054W        W43901   9.063   8.982  15.129  0.1985 -0.0004 -0.0390
27055W        W43902  12.779  16.338  13.434  0.1112 -0.0856  0.1689
27056W        W43903  16.084   3.933  11.495 -0.4275 -0.2925  0.0532
27057W        W43904   2.588   5.758  11.309 -0.1184 -0.3252 -0.0101
27058W        W43905  17.035   8.565  11.729  0.0057  0.1306 -0.0472
27059W        W43906   1.566   4.144  12.759 -0.0879 -0.3608 -0.2608
27060W        W43907   2.142  12.817  13.473  0.1341 -0.2676 -0.1084
27061W        W43908   4.823  17.919   4.508 -0.1546 -0.0196 -0.0313
27062W        W43909  13.999   6.333   4.746  0.0145 -0.0234  0.3522
27063W        W43910   8.500  14.645  14.089  0.0874  0.1069  0.0422
27064W        W43911  17.386  15.969  13.779 -0.1772 -0.1536 -0.2184
27065W        W43912   8.732  10.121   5.484  0.1669 -0.2429  0.0132
27066W        W43913  13.133   1.462  11.064 -0.0933 -0.0573  0.0955
27067W        W43914  15.166  18.365  13.994  0.1464 -0.1133  0.0711
27068W        W43915   9.322  14.286  15.257  0.1240  0.1027  0.1725
27069W        W43916   2.797   2.739  12.532 -0.2912 -0.1188  0.2095
27070W        W43917  11.204  12.495  12.008 -0.0762  0.1632  0.2246
27071W        W43918  17.859   8.542  15.489 -0.0339  0.1915  0.0024
27072W        W43919   9.732  17.182   4.158  0.1471 -0.0476 -0.2198
27073W        W43920  12.757  15.950  14.339 -0.0220  0.0481  0.1429
27074W        W43921  17.106  16.911  14.185  0.1225 -0.0041  0.1430
27075W        W43922   7.731   9.157   3.548  0.1351 -0.1479  0.2135
27076W        W43923  14.700  12.217  14.358 -0.0051  0.2243 -0.0416
27077W        W43924  11.233   5.043   0.627  0.1950  0.3087 -0.0870
27078W        W43925  10.035   0.144  12.345 -0.3914 -0.1466 -0.0393
27079W        W43926   2.238   0.141   0.519  0.2758  0.1065 -0.1073
27080W        W43927   8.898   5.637  14.256  0.0343 -0.0059  0.1171
27081W        W43928  13.017  13.008   1.726  0.0037  0.0525  0.0218
27082W        W43929   0.572   9.238  15.148  0.1715 -0.0284  0.2995
27083W        W43930  16.354  12.560   4.389  0.1147  0.1812  0.1408
27084W        W43931  14.148  11.745  13.931  0.1976  0.0007  0.0120
27085W        W43932   4.773  13.878  15.168 -0.1233 -0.1062 -0.3119
27086W        W43933  12.538   7.590   3.502 -0.3300 -0.0428  0.1099
27087W        W43934  16.974  18.083   5.498  0.0054 -0.1270 -0.0079
27088W        W43935   2.879  13.942   6.449  0.0328  0.0645 -0.4388
27089W        W43936  10.793  11.261  14.341  0.1811  0.1387  0.2316
27090W        W43937   2.651   0.693  13.136 -0.2136 -0.0654  0.0123
27091W        W43938  12.684   4.670   0.357 -0.1934  0.0359  0.0014
27092W        W43939  15.083  10.595  15.475 -0.1123  0.1129  0.2952
27093W        W43940   0.558   8.069   0.857  0.0415  0.0013 -0.2812
27094W        W43941   8.904   3.750   0.120  0.2141  0.0802 -0.0547
27095W        W43942   1.449   5.137  10.776 -0.0563 -0.3079 -0.0529
27096W        W43943   6.124  11.033  15.588  0.1641  0.2148  0.0573
27097W        W43944  18.075   9.890   2.383 -0.0120 -0.0110  0.0339
27098W        W43945  16.023   5.104  15.615  0.1477  0.1734 -0.0279
27099W        W43946  12.318   7.440   2.097  0.1152 -0.2049 -0.2285
27100W        W43947   1.475   4.054   4.251 -0.0744 -0.0768  0.2226
27101W        W43948   3.533   5.411   0.294 -0.0503  0.1767 -0.3440
27102W        W43949   0.595   6.998   5.311 -0.3904 -0.0128 -0.1723
27103W        W43950  16.295  17.907  14.092  0.0096 -0.0605  0.1423
27104W        W43951   7.385  12.445   2.181  0.0785  0.1687 -0.2079
27105W        W43952  10.020  10.398   2.167 -0.1023  0.0784  0.1756
27106W        W43953  11.881   4.686   4.627  0.1792  0.3034  0.1462
27107W        W43954   2.694  13.612  16.374  0.0306 -0.1722 -0.4684
27108W        W43955  16.735   4.299   0.227  0.0923 -0.1359 -0.3879
27109W        W43956  14.003  15.634  14.708 -0.1003  0.0049 -0.0689
27110W        W43957   8.944  12.333  15.971 -0.0708  0.0989  0.0130
27111W        W43958   9.093   7.503   5.039  0.2456 -0.0926 -0.4266
27112W        W43959   1.350  15.839  13.369  0.0450  0.0094  0.1234
27113W        W43960   6.995  15.438   3.159  0.1187  0.1470  0.1591
27114W        W43961  11.362  12.364   1.635 -0.4391  0.0084  0.0162
27115W        W43962   7.565  17.957  15.922  0.0900 -0.1163 -0.0680
27116W        W43963  13.162   9.695  13.787 -0.0304  0.3800 -0.1037
27117W        W43964  11.188  15.235   5.492 -0.3710 -0.2182  0.0063
27118W        W43965   0.066   5.067  14.872  0.2315 -0.2581  0.2707
27119W        W43966   0.289  13.884  16.139  0.0035  0.1382  0.1409
27120W        W43967   1.624   1.347  14.363 -0.0869  0.0151 -0.2540
27121W        W43968  12.877   4.253   0.592  0.0718  0.0221  0.0300
27122W        W43969   5.528  13.502  13.463 -0.2715  0.0327  0.1253
27123W        W43970   3.263   3.289   3.928 -0.0557 -0.0179  0.0411
27124W        W43971   3.063   5.894   2.127  0.3250  0.3708  0.1958
27125W        W43972   0.948   7.572   5.219 -0.0168 -0.0710 -0.0916
27126W        W43973   3.853  15.825  15.514  0.2396 -0.0784 -0.2292
27127W        W43974  12.048  12.048   2.701 -0.4238 -0.2442  0.2221
27128W        W43975   7.085   9.692   4.123 -0.2477  0.1269 -0.0398
27129W        W43976  14.868   5.466   3.767  0.0724 -0.2945  0.0060
27130W        W43977   2.636  15.002   5.255  0.1347  0.2853 -0.3896
27131W        W43978  12.817   1.572   4.722  0.2390 -0.1434  0.1118
27132W        W43979   0.630  13.622   4.741 -0.0815  0.2268 -0.1147
27133W        W43980  16.227  16.364  11.371  0.3633  0.1103 -0.0492
27134W        W43981   5.246  18.259   4.538  0.0849  0.1250 -0.1226
27135W        W43982   9.198   9.856   5.149 -0.6006 -0.0372 -0.1028
27136W        W43983  13.097   2.122   0.420  0.4297 -0.2522 -0.0786
27137W        W43984  10.644   4.306  12.947 -0.4107  0.0123  0.2106
27138W        W43985   1.970  14.246   1.335 -0.1161 -0.0856 -0.1430
27139W        W43986   4.734  13.084  15.790 -0.0633  0.0992  0.1124
27140W        W43987   2.564   4.783   1.719 -0.0512  0.3141  0.2730
27141W        W43988  14.780   8.215   2.338 -0.4683  0.3370 -0.2059
27142W        W43989  10.310  15.057   0.077 -0.1157  0.2056 -0.2956
27143W        W43990  12.262   2.174  14.860  0.1182  0.0301  0.2028
27144W        W43991   7.207   0.915  15.203 -0.0260  0.0130  0.1360
27145W        W43992   1.693   3.751   0.052 -0.0720 -0.0668  0.3770
27146W        W43993   1.936   3.173   2.105  0.1022 -0.1308  0.4388
27147W        W43994   4.070   1.482  13.595  0.0217  0.0718  0.1611
27148W        W43995   0.875   7.535   1.591 -0.1171 -0.4874  0.2177
27149W        W43996   8.158   9.632  13.962  0.0148  0.0953  0.2807
27150W        W43997   2.488  10.406   2.724  0.0319 -0.1493  0.0160
27151W        W43998   0.284  18.005  10.557 -0.0321  0.0755  0.2081
27152W        W43999  16.337  11.093   2.799 -0.0164  0.2061 -0.0767
27153W        W44000  16.811   5.468  15.370 -0.0640  0.1820 -0.0541
27154W        W44001   1.744   3.190   3.056  0.0958  0.2159  0.0157
27155W        W44002  17.638  13.762   0.621  0.0123  0.1882  0.1371
27156W        W44003  15.491   7.172  11.149  0.1220 -0.0055  0.0668
27157W        W44004   2.381  10.133  14.160  0.1817  0.1944 -0.2637
27158W        W44005  17.113   1.372   0.479  0.0686  0.2637 -0.1186
27159W        W44006  17.776  11.408  14.262 -0.0073  0.0553 -0.1208
27160W        W44007  18.021  17.892   0.547 -0.4016 -0.1050  0.0129
27161W        W44008   7.950   0.272  14.659  0.0825 -0.1679 -0.1325
27162W        W44009  17.902   5.249   1.649 -0.0794 -0.0351 -0.2120
27163W        W44010  11.524  14.083   2.342  0.1558  0.0629  0.1399
27164W        W44011  11.929   2.795  15.295 -0.1686  0.0471 -0.0384
27165W        W44012  14.266   7.503   2.774 -0.1617 -0.2099  0.0141
27166W        W44013   5.817  14.116   3.639 -0.0040  0.0098  0.2813
27167W        W44014   4.656  18.041  13.251  0.0857  0.2091 -0.1060
27168W        W44015  16.934  18.104  12.333  0.0213  0.0383 -0.1560
27169W        W44016  13.994   9.651  15.608 -0.1501  0.3218  0.0016
27170W        W44017  12.176  13.296  12.392  0.1986 -0.1192  0.2514
27171W        W44018  10.542  15.178   4.441  0.0145 -0.0857  0.1277
27172W        W44019  13.012   0.235  13.138  0.0370 -0.0964  0.1543
27173W        W44020   3.156  12.499   4.126 -0.0042  0.0188 -0.1119
27174W        W44021   6.044  12.820  12.956 -0.1905  0.0540  0.1324
27175W        W44022  11.040   5.324  13.602 -0.2629  0.2061  0.0483
27176W        W44023   9.923   2.625   4.422  0.2674  0.1290  0.0525
27177W        W44024  14.461   8.990  14.078 -0.2490 -0.0455  0.2513
27178W        W44025   7.619  18.269   2.610 -0.2317 -0.4002  0.1010
27179W        W44026  10.669  15.540  15.326 -0.2318 -0.1727 -0.1297
27180W        W44027   0.423   9.101  12.611  0.1895  0.1097  0.1250
27181W        W44028  10.818   4.097  11.593 -0.1091 -0.0335 -0.0197
27182W        W44029   4.077   7.629   3.787 -0.2410  0.0188 -0.2419
27183W        W44030  13.645   9.470  13.568  0.1609 -0.1701 -0.0005
27184W        W44031  14.730   4.238  13.223  0.1360 -0.0096 -0.1947
27185W        W44032  17.866   7.264  16.023  0.2741  0.1782 -0.1012
27186W        W44033   6.400  13.202  14.946 -0.3338 -0.1977  0.2587
27187W        W44034   8.212   4.665   3.438 -0.1697 -0.0359  0.0449
27188W        W44035   5.522   5.933  15.895  0.0973  0.4181 -0.0002
27189W        W44036   8.289  10.395  13.390 -0.1387 -0.0437 -0.2358
27190W        W44037  16.007  13.869   2.135  0.1578  0.2610 -0.1774
27191W        W44038   7.897  10.037  14.604  0.0073  0.2798  0.0147
27192W        W44039   2.695   0.191  12.149 -0.1171 -0.0751  0.2918
27193W        W44040   2.708   0.644  14.800 -0.2977 -0.2174  0.3766
27194W        W44041   5.322  12.217  13.861 -0.2822 -0.0080  0.0068
27195W        W44042   8.951   8.467   1.628  0.2003  0.2028  0.1015
27196W        W44043   4.766  14.443  13.235  0.0719 -0.2273  0.1698
27197W        W44044  15.106   4.471  11.532 -0.2437  0.0381  0.3424
27198W        W44045  16.120   6.858  12.836 -0.1827  0.3905  0.0945
27199W        W44046  17.580   0.226  14.228 -0.2078 -0.0922  0.2916
27200W        W44047  10.674   9.085   3.798  0.0243  0.0145 -0.1034
27201W        W44048  17.971  12.047  14.777  0.1641  0.2589  0.1639
27202W        W44049   1.254  12.237   3.541 -0.0475 -0.0596 -0.0430
27203W        W44050   1.392  11.342  14.215  0.2102  0.0888 -0.1999
27204W        W44051  16.045   8.279   1.940 -0.2799 -0.2617  0.4321
27205W        W44052   3.924   4.558   5.545  0.5198  0.0687  0.3420
27206W        W44053   4.614  10.611  13.994 -0.2662 -0.1376 -0.0232
27207W        W44054   0.216  17.572  13.200 -0.3104  0.1500  0.1360
27208W        W44055   2.025  10.407   0.281 -0.0658  0.1012 -0.0955
27209W        W44056   3.036  15.314  12.298  0.1270 -0.1234 -0.4038
27210W        W44057  14.118   5.757  14.960 -0.1361 -0.0472 -0.0752
27211W        W44058  13.355   0.501   0.386 -0.1256 -0.2631  0.1176
27212W        W44059   6.705   8.488   4.730 -0.1377  0.1281 -0.1018
27213W        W44060  15.698   5.959   1.545  0.0858 -0.0111 -0.1882
27214W        W44061   1.261  10.891  14.049  0.3109  0.1983  0.1480
27215W        W44062   4.433   5.205   2.105 -0.1507  0.1820 -0.2710
27216W        W44063   8.261  15.679   2.245  0.0637  0.0530  0.2161
27217W        W44064  12.802  16.598  15.375  0.1779 -0.1433  0.0303
27218W        W44065   3.928   1.134   1.218  0.1187 -0.0683 -0.0120
27219W        W44066  16.143   7.949   1.608  0.3011 -0.0030 -0.3656
27220W        W44067   9.548   5.551   4.998  0.0653  0.2746  0.0469
27221W        W44068  11.255  13.052  11.891  0.1010 -0.1504  0.1526
27222W        W44069   7.724   4.717   1.950  0.0217 -0.1850  0.0592
27223W        W44070  13.551  14.404   4.256 -0.2771 -0.1907  0.0401
27224W        W44071   6.911  17.811  15.611 -0.1315  0.0000 -0.0921
27225W        W44072  10.276   7.525   5.289  0.0838  0.0538 -0.0749
27226W        W44073   6.703   4.772  11.083  0.1036 -0.1623  0.1350
27227W        W44074  12.577  11.199  12.322 -0.0404 -0.2962 -0.0576
27228W        W44075  10.925  16.589   5.098  0.0078  0.1053  0.0071
27229W        W44076   3.139  11.810  12.205 -0.1143 -0.3751 -0.1358
27230W        W44077   1.286   1.657   1.126 -0.0748  0.0209  0.0109
27231W        W44078   7.248  13.273   0.137 -0.0618  0.0014  0.0628
27232W        W44079   6.399   4.925  15.637  0.0962 -0.1375 -0.2379
27233W        W44080   8.160  15.169   0.809 -0.0826 -0.2000  0.1515
27234W        W44081   6.985  17.491   2.252 -0.0448 -0.1847  0.0315
27235W        W44082  15.404   9.257  15.451  0.2083  0.3091  0.1240
27236W        W44083   1.440   6.196   2.255  0.0883  0.0934  0.0329
27237W        W44084   7.585   1.116   3.036 -0.1876 -0.0556  0.3740
27238W        W44085  16.598   7.380  15.761 -0.2583  0.0372 -0.0584
27239W        W44086   1.887  18.357   0.187  0.0407 -0.2799  0.0964
27240W        W44087  12.567  17.527   1.967 -0.0878 -0.1187 -0.0936
27241W        W44088  12.774   0.573   4.338 -0.1942  0.1029  0.1965
27242W        W44089  13.432  16.381  12.911  0.1276  0.0924 -0.1577
27243W        W44090  11.235   2.227  13.617  0.0794 -0.1086  0.3558
27244W        W44091   1.481  17.165   4.877  0.0366 -0.0089  0.1935
27245W        W44092   6.725   3.303  15.852  0.0280  0.2204 -0.1230
27246W        W44093   2.594  13.511  12.809 -0.2118  0.0025 -0.0589
27247W        W44094   1.008  13.129   4.212 -0.1107 -0.1620 -0.1532
27248W        W44095   6.612   0.297  13.398 -0.0696 -0.2806  0.1354
27249W        W44096   4.352  11.819   3.257 -0.0129  0.0426 -0.1849
27250W        W44097  14.759  14.324   1.984 -0.1758 -0.3234  0.1436
27251W        W44098   0.659  16.194  11.970  0.2177  0.0493  0.1371
27252W        W44099  11.097  14.113  14.786  0.1035 -0.0398  0.0448
27253W        W44100   2.327  14.313   5.951  0.1159  0.3581 -0.2409
27254W        W44101  12.769  12.710   4.829  0.2154  0.2709  0.2715
27255W        W44102  17.260  12.601  15.182 -0.2813 -0.2092  0.1600
27256W        W44103  14.619  10.063  15.882 -0.0695  0.1162 -0.0550
27257W        W44104   2.257   8.764   1.396  0.0233 -0.0255 -0.0781
27258W        W44105  17.324   2.536  13.334 -0.1653  0.0654 -0.1182
27259W        W44106   6.960  10.848   5.992  0.1065 -0.2137 -0.1879
27260W        W44107  11.464   8.383   5.187 -0.0537  0.1364  0.0842
27261W        W44108   8.445  10.461  13.968 -0.1661  0.1381  0.0262
27262W        W44109  10.791   5.568  14.115 -0.0905  0.0348 -0.0346
27263W        W44110  11.322  13.362  12.407  0.0917 -0.2599 -0.0605
27264W        W44111   7.206  12.098   0.101 -0.2030 -0.1757  0.1065
27265W        W44112   6.789  10.715   1.568  0.1038 -0.0873  0.2398
27266W        W44113  10.882   6.743   5.182 -0.0422 -0.0677  0.0719
27267W        W44114   7.380  15.173   2.381  0.1219  0.1165 -0.0801
27268W        W44115  18.093   9.239  11.263  0.0362 -0.0738 -0.1219
27269W        W44116  18.383   9.253  14.222 -0.0699  0.0751  0.0791
27270W        W44117   0.352   9.845   1.560  0.1918 -0.3240  0.0375
27271W        W44118   3.414  10.588  13.496  0.1026 -0.0707 -0.1083
27272W        W44119  10.807   4.599  12.412 -0.1707  0.2273  0.3303
27273W        W44120  15.786  10.420   3.701  0.0221 -0.0866 -0.0567
27274W        W44121   1.303  17.858  14.550  0.2526  0.3226  0.1484
27275W        W44122  15.573  11.963   3.425  0.0785 -0.2459  0.0823
27276W        W44123  12.078   7.142  13.457 -0.1751 -0.2368  0.1740
27277W        W44124   3.531  17.472   3.554 -0.2433  0.0926  0.0260
27278W        W44125   6.789   2.319   4.299 -0.1244 -0.1615  0.0375
27279W        W44126   6.836   6.535   1.496 -0.1717 -0.1824 -0.3017
27280W        W44127   8.551  12.367  12.172  0.0984 -0.1134  0.2603
27281W        W44128  12.736   8.293   0.626  0.1242 -0.2006 -0.0464
27282W        W44129   3.279  18.081   5.235  0.0997  0.0735 -0.2102
27283W        W44130   4.863   5.515  14.208 -0.3223  0.3439  0.1281
27284W        W44131   6.910   7.187   5.222  0.1829  0.2032  0.0523
27285W        W44132   0.050  11.864   3.867  0.0571 -0.0286  0.2305
27286W        W44133   8.068   1.868   2.075  0.1795  0.1486 -0.0064
27287W        W44134   7.882   5.655  14.310  0.1253 -0.4122 -0.1402
27288W        W44135  14.352  16.720  14.625 -0.0640 -0.2599  0.1373
27289W        W44136  13.791   9.083   0.123 -0.3618 -0.1595  0.1202
27290W        W44137   4.409   6.254   1.493 -0.1004  0.1217  0.1441
27291W        W44138   8.022   0.165   2.617  0.0575  0.2028  0.1091
27292W        W44139   0.128   2.803  11.767  0.1170 -0.1127  0.0485
27293W        W44140  10.262   1.692   1.438  0.5311  0.1270  0.1980
27294W        W44141  13.450  12.454   3.784 -0.0140 -0.0315  0.0159
27295W        W44142  15.450  10.213  15.631 -0.3597 -0.2620  0.0020
27296W        W44143   1.267  14.110   5.284  0.1652  0.0956  0.1340
27297W        W44144   4.520  10.530  14.578 -0.2994  0.4336 -0.0401
27298W        W44145   3.666   9.780  13.088 -0.3218  0.0938 -0.0905
27299W        W44146   6.049  16.602   3.336 -0.0728 -0.0922 -0.1396
27300W        W44147  15.604   5.020   4.116 -0.2566  0.1871  0.1988
27301W        W44148  14.022  16.136  14.514 -0.0971 -0.0292  0.2355
27302W        W44149  15.584  17.663  13.567  0.2237  0.0416 -0.1508
27303W        W44150   8.953   2.814  12.004  0.3206 -0.5472 -0.0102
27304W        W44151  14.272   2.243  12.324  0.2302  0.0434 -0.0828
27305W        W44152   3.425  10.611  15.187 -0.0168 -0.2923 -0.3004
27306W        W44153   5.640   4.468   1.218  0.1838 -0.0216  0.2800
27307W        W44154  11.922   3.327  15.370  0.2858  0.0490  0.0908
27308W        W44155   0.121   0.963   2.037  0.2918  0.0866 -0.0469
27309W        W44156  17.036   1.846   0.772  0.0555  0.0378  0.2578
27310W        W44157   2.213   2.460  11.314  0.4163 -0.0457 -0.2905
27311W        W44158  13.659  11.188  11.246 -0.0971  0.0424  0.1700
27312W        W44159   6.587   3.353   1.767 -0.2730  0.0145 -0.1158
27313W        W44160   2.348   0.390   0.112 -0.0270  0.3146 -0.0895
27314W        W44161   6.646   8.620   5.297  0.2054 -0.0596  0.1559
27315W        W44162   0.803   1.811  14.143 -0.0862 -0.0546  0.0996
27316W        W44163  13.915   0.486  11.517  0.1529 -0.0059  0.0465
27317W        W44164   1.747   5.371   4.518 -0.0607 -0.0672 -0.0384
27318W        W44165  14.526  17.680  13.259 -0.1740  0.1941 -0.1597
27319W        W44166   7.749  13.386  12.584  0.1709 -0.0247  0.0147
27320W        W44167   0.534   8.720   3.916 -0.1511 -0.0429 -0.3381
27321W        W44168   7.811  18.089   0.043  0.4094 -0.3389  0.2420
27322W        W44169   6.830   4.584  14.706  0.1918 -0.0526 -0.3042
27323W        W44170   2.024  12.256  16.183  0.3814 -0.0934  0.0307
27324W        W44171   9.102  16.806   2.019 -0.0547  0.1081 -0.0418
27325W        W44172  12.955  11.746   0.655 -0.0874 -0.0151 -0.0759
27326W        W44173  11.227   4.492  16.178 -0.1257 -0.2390 -0.0753
27327W        W44174  18.093   3.260  11.882 -0.4653 -0.0938  0.0206
27328W        W44175   8.657   5.458   3.555 -0.0238  0.1155  0.1512
27329W        W44176   9.468   1.284   3.253 -0.0570 -0.1719 -0.0755
27330W        W44177  15.547   4.533  13.035  0.1601 -0.3402  0.1626
27331W        W44178  12.382   6.937   3.218  0.2045 -0.1185 -0.1360
27332W        W44179   2.663  18.151  15.312  0.1615 -0.3532 -0.1043
27333W        W44180  18.091   1.087   4.341 -0.0611  0.1839 -0.2233
27334W        W44181   6.380  15.843   0.257  0.1809 -0.0929  0.3065
27335W        W44182  10.896  10.543   6.463 -0.2909  0.0167 -0.0155
27336W        W44183  11.697  17.743   4.143 -0.0641  0.0067  0.0850
27337W        W44184   7.489  16.897   5.132 -0.1658 -0.2403 -0.2786
27338W        W44185  11.841   4.004   2.992  0.1888  0.1864  0.2581
27339W        W44186   6.466   3.207  12.046  0.0753  0.0149  0.3005
27340W        W44187   1.610  16.677  13.368  0.3091 -0.5629 -0.2268
27341W        W44188   6.108  11.051   2.025  0.0249 -0.1583 -0.2631
27342W        W44189   6.717  11.902   0.049 -0.1071  0.0810  0.1768
27343W        W44190  17.471   1.584  10.710 -0.1109  0.0836 -0.0780
27344W        W44191   7.121  11.450   5.291  0.1318 -0.1353 -0.0161
27345W        W44192  10.947  17.352   0.828  0.0420  0.1635 -0.2622
27346W        W44193  16.893   0.698  15.788  0.3003  0.0806  0.0846
27347W        W44194   7.457   0.677  13.092 -0.4115  0.1197 -0.2681
27348W        W44195  16.706   4.417  15.359  0.1075  0.1710  0.2287
27349W        W44196   8.719   3.777   1.050 -0.1838 -0.3581  0.1336
27350W        W44197  14.234   4.026   3.163 -0.1207  0.1382  0.1286
27351W        W44198  16.111   2.886  14.964 -0.1523  0.1178  0.1821
27352W        W44199  18.392   5.971  15.790 -0.1782  0.1248  0.0136
27353W        W44200   0.500  16.505  12.297  0.2470 -0.2538 -0.2205
27354W        W44201   1.730   1.296   2.935 -0.0665 -0.0080  0.3232
27355W        W44202   0.570  15.571   1.174  0.1054  0.0531 -0.3529
27356W        W44203   1.138  11.605   2.734  0.0153 -0.1237  0.0453
27357W        W44204   6.565  17.957  13.687 -0.2581 -0.1363  0.1444
27358W        W44205   3.853   6.709  11.911  0.0202  0.0061  0.0422
27359W        W44206   0.739   3.402   5.195 -0.1378 -0.0233 -0.2779
27360W        W44207   3.038   0.458   0.375  0.1295  0.0428  0.1535
27361W        W44208  16.977  16.277   0.195 -0.0448  0.0390  0.0257
27362W        W44209  10.408   1.149  14.446 -0.1904  0.2476  0.2199
27363W        W44210   8.211  18.304  12.087  0.1711  0.1581  0.2679
27364W        W44211   6.711  16.835  14.234  0.1692 -0.3406  0.1307
27365W        W44212  14.254  15.073   4.190 -0.0512 -0.1223 -0.0892
27366W        W44213   4.278  15.724  12.921  0.3753  0.2182  0.1184
27367W        W44214  18.271   7.328  12.230  0.2455  0.0389 -0.5035
27368W        W44215   0.448   9.761  15.329  0.2492  0.4436  0.0306
27369W        W44216  17.351   1.897  15.469  0.1895  0.0569  0.0252
27370W        W44217   0.159   1.821  15.072  0.2152 -0.1011 -0.0283
27371W        W44218  11.427   6.071   1.577  0.1120  0.4370 -0.1391
27372W        W44219   2.866   5.819   2.539  0.1262  0.1227  0.1464
27373W        W44220   0.795  11.539  15.542  0.0098 -0.3132  0.0076
27374W        W44221  15.246  17.872   1.575 -0.0964 -0.3022 -0.2914
27375W        W44222   5.796   2.493  14.849 -0.3004 -0.0843  0.2228
27376W        W44223  17.883   1.290  14.933  0.1909  0.0179  0.1104
27377W        W44224   8.385  11.806  14.155 -0.0542 -0.0578  0.1899
27378W        W44225  16.524   1.010  15.916  0.2235  0.0316  0.2287
27379W        W44226   9.977   0.415   2.511 -0.0883 -0.0556  0.1436
27380W        W44227  16.436   9.638   2.857 -0.2485 -0.1582  0.4961
27381W        W44228   8.495  11.722   4.827  0.0047 -0.1013 -0.0048
27382W        W44229   6.147  11.537   4.946 -0.0474 -0.2005 -0.3951
27383W        W44230   8.563  16.634  15.102 -0.2420 -0.1101  0.0986
27384W        W44231   7.646   4.821   3.624 -0.3873 -0.0818 -0.0865
27385W        W44232   0.866  12.877  13.218  0.0562 -0.0944  0.0026
27386W        W44233  15.206  10.131  12.359  0.0291  0.0903 -0.2331
27387W        W44234  14.462  13.225  15.248 -0.1028  0.0781  0.1228
27388W        W44235   9.609   9.950   0.428  0.1399  0.4048  0.0444
27389W        W44236  15.916   3.807   1.264  0.1801  0.0062 -0.0682
27390W        W44237  15.046   8.738   1.496 -0.0161 -0.1905 -0.4546
27391W        W44238  17.192  15.972  14.220 -0.1754  0.4968  0.0484
27392W        W44239   4.276   4.596  12.228 -0.2019  0.2322 -0.2731
27393W        W44240   0.266   9.340  13.849  0.1555 -0.3718  0.2348
27394W        W44241  13.928   9.772  13.178  0.0378 -0.2735 -0.2590
27395W        W44242   4.622  17.616   0.671  0.0777  0.0581  0.0821
27396W        W44243   5.308   4.623   0.166  0.1794 -0.3129  0.2468
27397W        W44244  13.042   8.851  11.456 -0.0164  0.0482 -0.1746
27398W        W44245   4.562  13.546   5.489 -0.1781 -0.1732  0.0830
27399W        W44246   5.139   7.332   4.314 -0.1100 -0.1650 -0.0836
27400W        W44247  13.556  18.058  15.029  0.1891 -0.2911 -0.0340
27401W        W44248  16.470   5.658  14.364 -0.0772 -0.1046 -0.3193
27402W        W44249   5.879   4.563   1.644 -0.1897  0.0041 -0.0981
27403W        W44250  18.096  10.966  12.114  0.2476 -0.4879 -0.3137
27404W        W44251  13.935  11.730   4.899 -0.0768 -0.1155  0.0146
27405W        W44252  11.601  15.811   0.083  0.0759 -0.4100 -0.4356
27406W        W44253  10.313   9.133  13.413  0.0606  0.2293 -0.0609
27407W        W44254  13.111  15.573  15.933 -0.1368 -0.1369 -0.0448
27408W        W44255  15.740   1.030   3.612  0.2577 -0.1879  0.0408
27409W        W44256   3.903   6.320  14.744  0.1382 -0.1631  0.5031
27410W        W44257   8.184   4.857   5.597 -0.0750 -0.0416  0.2839
27411W        W44258   0.218  16.156   4.563  0.1923 -0.0090 -0.1925
27412W        W44259   1.846  13.022   0.505 -0.0274  0.0611  0.0890
27413W        W44260   0.933  13.180  11.758 -0.0499 -0.1600 -0.1493
27414W        W44261   6.059  17.171  16.299  0.1837 -0.0003 -0.0369
27415W        W44262   1.759  17.760   1.449 -0.1437 -0.1048 -0.1557
27416W        W44263   4.279   0.846  14.410  0.2683  0.1021  0.0745
27417W        W44264   8.747   2.045  14.746 -0.1528 -0.0331 -0.2270
27418W        W44265   4.591  14.383   4.503 -0.0462  0.0995  0.4010
27419W        W44266  16.744   6.271   0.216 -0.5244 -0.3348  0.3143
27420W        W44267   8.224  15.256  15.230  0.2705  0.1642  0.0031
27421W        W44268  16.522  14.936  11.450 -0.1657  0.1734  0.1514
27422W        W44269   6.834  17.332  14.335 -0.1374 -0.0699  0.2840
27423W        W44270  10.879   7.892   3.257 -0.1110  0.0700  0.1291
27424W        W44271   0.139   5.593   2.343 -0.0181  0.1334  0.2640
27425W        W44272  15.363  14.895  14.164 -0.1425 -0.1355  0.0151
27426W        W44273   3.163   1.573  15.980 -0.1012  0.2167  0.3457
27427W        W44274   6.452   3.508   3.097  0.1208 -0.1755 -0.1391
27428W        W44275  13.625  13.422  15.889 -0.1276  0.2701 -0.0411
27429W        W44276   2.721   1.150   5.912  0.1527 -0.2536 -0.1743
27430W        W44277   4.725  11.659  13.011  0.1741 -0.1645 -0.1100
27431W        W44278  17.603   2.764   1.288  0.0143 -0.2252  0.1505
27432W        W44279  13.874  12.039  11.775  0.0571  0.0648 -0.2560
27433W        W44280   5.902   4.009   4.245 -0.0396  0.0658  0.0114
27434W        W44281  14.547  12.323  15.213 -0.2027 -0.4833  0.1282
27435W        W44282  14.975  10.105  14.243 -0.1810  0.1764  0.0255
27436W        W44283   0.429  13.575   1.332  0.0104 -0.1474  0.0612
27437W        W44284   2.107  15.795   1.291  0.1316  0.0241  0.1305
27438W        W44285   4.653  13.381  11.783 -0.1965 -0.2171  0.1107
27439W        W44286  12.419   9.081  14.944  0.1481 -0.4432  0.0754
27440W        W44287  14.930   6.328   1.706  0.0359 -0.3633 -0.1046
27441W        W44288   8.219  11.348  13.280  0.1349 -0.0854 -0.2697
27442W        W44289   6.212   9.773   2.368 -0.2558 -0.1856  0.0060
27443W        W44290   2.333   6.642   2.881  0.0093  0.0997  0.1901
27444W        W44291  17.618   3.375  12.899  0.2965 -0.1119 -0.0550
27445W        W44292   9.608   5.578  15.391  0.0921  0.0205 -0.0598
27446W        W44293  12.060   6.233   0.177 -0.2123 -0.3329 -0.3729
27447W        W44294  13.149  10.112  14.246  0.2036  0.0322 -0.1417
27448W        W44295  14.016  12.587   1.166 -0.1175  0.0353  0.2240
27449W        W44296   3.053   9.480   2.282 -0.2782 -0.2256 -0.1024
27450W        W44297  14.399  15.319   0.355 -0.1675 -0.2069 -0.3443
27451W        W44298  17.408  13.749   3.151 -0.1083  0.0642  0.0230
27452W        W44299   3.569  13.788  13.821 -0.3411  0.2688 -0.0060
27453W        W44300   3.860  11.315  16.218 -0.0224  0.0832 -0.1975
27454W        W44301   5.332  15.229  15.649 -0.1007 -0.0516 -0.3366
27455W        W44302  14.084   6.124  14.638 -0.1397  0.2206 -0.2859
27456W        W44303   7.277   2.052  14.409 -0.3922 -0.2305  0.2338
27457W        W44304  17.676   4.352   0.141  0.1284  0.0690 -0.0972
27458W        W44305  10.785   9.445  15.053  0.0784  0.3436  0.0426
27459W        W44306  11.595   4.424  14.990 -0.1433  0.1938  0.2408
27460W        W44307   1.307   8.422   1.484  0.2116 -0.2377 -0.0014
27461W        W44308   2.509  15.337  15.791 -0.0784  0.0939 -0.0041
27462W        W44309  14.073   4.220  14.697  0.0828 -0.4269  0.0649
27463W        W44310  16.985  13.924   0.372 -0.1134  0.0018 -0.0862
27464W        W44311  15.762   0.741   5.839  0.0508  0.1183 -0.2377
27465W        W44312  11.640   5.288   4.791 -0.2212  0.1652  0.1108
27466W        W44313  11.998  14.179   1.342  0.0602 -0.0254  0.2104
27467W        W44314  11.469   9.753  12.183 -0.1284  0.5350  0.1990
27468W        W44315   1.496   2.244  16.013  0.1931  0.3375 -0.0861
27469W        W44316   1.304  16.739   0.743  0.0904 -0.1112 -0.1867
27470W        W44317  13.158   6.120   1.633  0.0936 -0.1583 -0.1953
27471W        W44318   4.028   9.915   1.992  0.1661  0.4846  0.0935
27472W        W44319  13.441  15.435   4.150  0.2550  0.0357 -0.1966
27473W        W44320   0.536   3.514  10.913 -0.0645 -0.2364 -0.0217
27474W        W44321  13.485  14.228   2.976  0.2660 -0.2537  0.0670
27475W        W44322  10.465   1.759  16.216 -0.2696  0.1029 -0.1799
27476W        W44323   3.095   7.859  15.549  0.0015  0.4784 -0.1022
27477W        W44324  13.357  17.804  14.172  0.1600  0.0432 -0.3964
27478W        W44325   9.335  11.607  13.544  0.0920  0.0534  0.1780
27479W        W44326  11.454   9.513   3.285  0.0351 -0.1526 -0.0178
27480W        W44327   5.653  11.944   5.479 -0.1251 -0.1605 -0.1166
27481W        W44328   2.931  18.154   2.871  0.1234  0.2941  0.3230
27482W        W44329   1.648  14.105   1.758  0.2436 -0.0476 -0.0887
27483W        W44330  11.842  11.235   0.462  0.1128 -0.1034 -0.1989
27484W        W44331   3.275   9.985   1.226  0.0260 -0.4281  0.0330
27485W        W44332  14.976  18.380  12.092  0.0067  0.2955 -0.2036
27486W        W44333   2.096  14.215   2.020 -0.2363 -0.0059  0.2252
27487W        W44334   6.489  10.938  13.007  0.1574 -0.2279 -0.1367
27488W        W44335  17.223   4.135  13.988  0.1011 -0.3717 -0.0034
27489W        W44336  12.810  13.653   0.312 -0.2109  0.0026  0.1057
27490W        W44337  15.932   4.654   0.292 -0.2470 -0.0278 -0.0651
27491W        W44338  17.352   3.075  12.528 -0.2573  0.1522 -0.0533
27492W        W44339  10.463   1.794   4.934 -0.0171  0.0415  0.0779
27493W        W44340  13.766   1.382  12.590 -0.0545 -0.0256 -0.0507
27494W        W44341  18.211   8.505  15.111  0.2080  0.0995  0.1137
27495W        W44342  17.579  14.455  12.636  0.2134  0.1052 -0.2432
27496W        W44343   1.445   2.590  15.668 -0.1500 -0.3591 -0.2219
27497W        W44344  13.669   9.305  15.295  0.2496  0.1423 -0.1071
27498W        W44345  17.021  10.595   2.495 -0.4127 -0.3131  0.0267
27499W        W44346   0.121   1.762  10.015 -0.0763  0.0229  0.3613
27500W        W44347   4.553   5.889  15.137  0.2895  0.0719 -0.3154
27501W        W44348  12.963   9.863   2.335 -0.0174  0.0502  0.0840
27502W        W44349  11.374  17.377  13.404  0.0351  0.1565  0.0776
27503W        W44350   2.121   4.192  12.733  0.1514 -0.0471  0.4720
27504W        W44351  16.107   6.937  12.273 -0.2807  0.1981 -0.0609
27505W        W44352   3.055   8.470   2.101  0.2552 -0.2331  0.1301
27506W        W44353  16.623   6.605  11.694 -0.0679 -0.2112 -0.0829
27507W        W44354   7.803   6.340  14.815  0.2745  0.0164 -0.0679
27508W        W44355   6.434  13.296   6.143  0.3517 -0.3463 -0.1617
27509W        W44356  13.948   8.144   3.483  0.3994  0.2681 -0.0076
27510W        W44357  10.929   1.805   5.037 -0.1548 -0.1736  0.0195
27511W        W44358   6.027   9.629  13.036  0.5451 -0.0088 -0.0712
27512W        W44359   5.472  14.393  14.511  0.0152 -0.0208 -0.0800
27513W        W44360   2.580   0.318  12.832  0.0480 -0.1009 -0.1372
27514W        W44361   9.375  13.483  13.021 -0.3225 -0.1410  0.2253
27515W        W44362   0.279   1.780   3.106 -0.2471  0.3063 -0.2067
27516W        W44363  14.851  11.575   0.892 -0.0493 -0.2059  0.1543
27517W        W44364  12.753  14.593   5.538 -0.1406  0.2914 -0.2305
27518W        W44365   2.062  11.906   0.938  0.0441  0.0679 -0.2114
27519W        W44366   4.846   1.840   0.586 -0.2907  0.0842 -0.3574
27520W        W44367  17.353   6.998  12.062  0.3093  0.1225 -0.0079
27521W        W44368  16.397  14.605   0.803 -0.5260 -0.1469  0.1062
27522W        W44369   4.895  16.499   0.719  0.1857 -0.0791 -0.1495
27523W        W44370   2.811  17.276   5.094 -0.1837 -0.0122  0.1118
27524W        W44371   6.980  16.201   0.379  0.1395 -0.1068 -0.0530
27525W        W44372   8.313   2.002  14.101 -0.1536 -0.3494  0.0819
27526W        W44373  13.565   6.349   3.043 -0.0065  0.0068 -0.2688
27527W        W44374   3.683   9.341  12.127  0.4196  0.4892 -0.1525
27528W        W44375  11.003  10.862   0.808  0.2496  0.1660 -0.1460
27529W        W44376  10.279   2.981   4.449  0.0073 -0.3198 -0.1281
27530W        W44377   1.934  10.660   4.411  0.1490 -0.0399 -0.0292
27531W        W44378   9.221   5.992  13.862 -0.1652 -0.1372 -0.1322
27532W        W44379  14.540   6.032   2.008  0.4801 -0.0469 -0.0273
27533W        W44380  15.594   7.390  12.858 -0.2625  0.0408 -0.0325
27534W        W44381  12.564  16.660   4.735  0.3055 -0.0279  0.1399
27535W        W44382   6.886  15.076  12.841  0.1253  0.0586  0.1115
27536W        W44383   9.033  11.402   1.998 -0.3249  0.0548 -0.2313
27537W        W44384   5.776  14.660   3.075 -0.2342 -0.0411  0.1372
27538W        W44385   5.028  12.555   4.239  0.0225 -0.3483 -0.1195
27539W        W44386  13.792  13.643   5.526 -0.2128 -0.1399  0.1274
27540W        W44387  11.901  15.738   2.575 -0.1027  0.2221 -0.2004
27541W        W44388   5.345  10.841  16.140  0.3051  0.0307 -0.1305
27542W        W44389   2.744   8.084  13.095 -0.0550 -0.1173 -0.0530
27543W        W44390   8.770  14.972  15.524 -0.1643  0.1189  0.2596
27544W        W44391   9.231   4.286   1.293  0.0890 -0.1675  0.0790
27545W        W44392   6.675  10.932  15.421  0.1988  0.3172 -0.2037
27546W        W44393  13.053  13.880   5.391 -0.0095 -0.1640 -0.4919
27547W        W44394  14.703   4.816  13.335  0.0442 -0.2558 -0.0382
27548W        W44395  11.063  12.854   3.875 -0.0556 -0.2215  0.0399
27549W        W44396   5.337   9.257   3.259  0.2517  0.3764 -0.0385
27550W        W44397   1.386   0.394   0.602 -0.1279  0.2449 -0.0508
27551W        W44398   2.407   9.753  12.236  0.1610 -0.1456  0.1621
27552W        W44399   7.005  13.744  14.837 -0.3699 -0.2072  0.0582
27553W        W44400  17.223   2.046   4.635  0.0528  0.1519  0.3129
27554W        W44401   6.892   0.511   0.486 -0.0147  0.1554  0.3825
27555W        W44402   3.812   1.455  11.856 -0.1232  0.0873 -0.1803
27556W        W44403   6.481   3.521  11.092 -0.6434 -0.1244  0.1475
27557W        W44404  17.563   7.316  12.806 -0.0486  0.2216 -0.3043
27558W        W44405   1.780   6.341  12.126 -0.0569 -0.0663 -0.0131
27559W        W44406   7.192   6.755  13.932 -0.0331  0.3906 -0.1093
27560W        W44407  16.487   6.059  13.305 -0.0383 -0.2697 -0.1793
27561W        W44408  12.691  17.097  15.401  0.0200  0.0359 -0.1149
27562W        W44409  10.273  15.476   1.698  0.0436 -0.1663  0.1558
27563W        W44410  13.799   5.832   3.768  0.3590 -0.2499  0.2291
27564W        W44411   2.093   0.195  11.488 -0.2125 -0.0391  0.3884
27565W        W44412   9.727   6.314  15.106  0.0635  0.4137 -0.7439
27566W        W44413   2.486   3.588   0.995  0.0125  0.0701  0.0461
27567W        W44414  16.172   7.853   9.653 -0.1082  0.2069 -0.2022
27568W        W44415   2.315   8.442   0.222 -0.0951  0.0765 -0.0450
27569W        W44416   0.495  14.144   0.925  0.3344 -0.1176  0.0937
27570W        W44417  10.238   8.246   5.614  0.1168 -0.1712  0.1682
27571W        W44418   4.140   7.164  15.194 -0.1486  0.2330  0.0672
27572W        W44419  14.660  14.884   4.928  0.0336 -0.0010 -0.2007
27573W        W44420  17.667  13.878   2.241 -0.1389 -0.4326  0.2536
27574W        W44421  14.855  14.232   3.252  0.0950 -0.0099  0.1317
27575W        W44422   8.233   5.934  15.338  0.1739  0.2341 -0.2115
27576W        W44423  18.382   5.008   5.411 -0.0799 -0.3961  0.0013
27577W        W44424  13.097   2.403  11.989 -0.0081  0.0483 -0.2726
27578W        W44425   1.229   7.704  12.353  0.1339 -0.2225  0.1548
27579W        W44426   8.077   7.829  14.238 -0.3699 -0.4035  0.2906
27580W        W44427  11.839  11.673   0.145  0.1587 -0.1077 -0.3791
27581W        W44428  10.640   7.827  15.837 -0.2089  0.2714 -0.1428
27582W        W44429   0.993  15.189   1.723 -0.1128 -0.2357  0.1695
27583W        W44430   1.071  12.397  13.005 -0.0680  0.3054  0.2484
27584W        W44431   8.839  12.708  15.480  0.2097 -0.2748 -0.1840
27585W        W44432  11.622  15.798  14.426 -0.4368 -0.5002 -0.0487
27586W        W44433  14.613  10.999   1.832 -0.3596 -0.2965  0.1176
27587W        W44434  16.034   8.192   0.482  0.0708  0.0376 -0.1507
27588W        W44435  13.153  17.154  16.287 -0.1388  0.0417  0.0604
27589W        W44436   1.016   1.953  12.127  0.2153  0.0274 -0.4858
27590W        W44437   0.139   3.492   5.475 -0.2375  0.2607 -0.4255
27591W        W44438  11.817  13.998   3.298  0.2731 -0.0543 -0.4378
27592W        W44439   5.729   4.891  11.942 -0.1623 -0.2483 -0.1313
27593W        W44440   8.153  10.799  14.880  0.0103  0.0411  0.0631
27594W        W44441   0.136  17.021   4.911  0.2498  0.2730 -0.1798
27595W        W44442   5.149  17.060   5.579 -0.1128 -0.0374  0.3340
27596W        W44443  13.961  13.569   1.506  0.1236  0.2163 -0.0154
27597W        W44444   5.920  15.151  13.373  0.4918  0.1674 -0.1293
27598W        W44445  17.929   2.065   0.588  0.0850  0.0897  0.1688
27599W        W44446  12.741  10.625   4.144  0.4302  0.0372  0.3550
27600W        W44447   0.475   0.874  13.512  0.2247  0.2264 -0.1202
27601W        W44448   7.137  15.492   0.758 -0.1347 -0.0788 -0.0066
27602W        W44449  11.618   6.894   2.004 -0.1844 -0.0590 -0.0911
27603W        W44450   6.291   4.510   0.337  0.2531 -0.1666  0.1202
27604W        W44451  18.131   0.991   0.360  0.0190 -0.2794 -0.4705
27605W        W44452   9.593   3.090   1.950  0.1663  0.1034 -0.1128
27606W        W44453   8.089   5.068   1.779 -0.0207 -0.0244  0.3333
27607W        W44454  13.356  12.094   3.329  0.1057 -0.0615  0.1935
27608W        W44455  10.420  13.152  15.262  0.1030  0.0287 -0.0120
27609W        W44456   8.770   0.338   0.658  0.1340 -0.1472 -0.1297
27610W        W44457  14.705  13.851   0.525  0.0173  0.0367 -0.0007
27611W        W44458   9.981   9.643   4.380 -0.1159  0.1641  0.0290
27612W        W44459   2.724  17.827   4.100  0.2060  0.0752 -0.1277
27613W        W44460   3.899  15.367  15.737  0.3116 -0.0176  0.1594
27614W        W44461   7.791   1.787  13.309 -0.2882 -0.3797  0.0213
27615W        W44462  15.936   5.972   3.904 -0.0309  0.0393  0.0612
27616W        W44463  12.660  11.762   4.582 -0.0407 -0.0562  0.2719
27617W        W44464   0.024  10.049  14.540 -0.0531  0.0410 -0.1490
27618W        W44465   4.296  12.480  15.088  0.0524  0.1798 -0.3950
27619W        W44466  12.503   6.472   0.895  0.3824  0.3429  0.1599
27620W        W44467   1.216  10.215   6.199 -0.4796 -0.2800  0.1555
27621W        W44468  12.282   7.629  15.398 -0.0671  0.0756  0.0248
27622W        W44469  13.433   8.409  11.531  0.1212  0.0112 -0.2975
27623W        W44470   0.758   5.715   2.642  0.1627  0.2179 -0.0018
27624W        W44471  14.368   2.965  15.311 -0.2622 -0.1819  0.1762
27625W        W44472   8.859  13.268  15.086  0.1687  0.0056 -0.2119
27626W        W44473   2.860  12.186   1.508 -0.2113 -0.2501  0.1329
27627W        W44474  10.740   3.732   3.666  0.1388  0.2963 -0.4311
27628W        W44475  10.324  11.228   1.741 -0.1703 -0.0704  0.0403
27629W        W44476  16.905  15.793   0.971 -0.0172  0.0742 -0.1160
27630W        W44477  15.662   6.351  15.438  0.0732 -0.1801 -0.1582
27631W        W44478   1.385   1.077   3.976 -0.2996  0.1121 -0.1400
27632W        W44479  11.112   4.594  14.155 -0.2639 -0.0186  0.4309
27633W        W44480  10.775  13.818   3.773 -0.0368 -0.1971 -0.1550
27634W        W44481  14.510   4.117  13.738  0.0220  0.0288  0.1856
27635W        W44482  14.074  16.385   1.285  0.0868  0.2131  0.3182
27636W        W44483  14.199   9.971  12.631  0.0833 -0.0300  0.1841
27637W        W44484  15.612   0.169  12.305  0.0886  0.1972 -0.1044
27638W        W44485   4.772   4.401   3.570  0.0744 -0.0955  0.0053
27639W        W44486  18.376   4.437  11.179 -0.1398  0.0193 -0.1538
27640W        W44487  12.902  10.761   3.614  0.3280  0.0646 -0.0856
27641W        W44488  15.288  16.977   4.832 -0.1833 -0.0734  0.1407
27642W        W44489  13.886   6.557   0.677 -0.0336  0.0968  0.0525
27643W        W44490  15.101   3.890  14.518  0.1115  0.0952 -0.0868
27644W        W44491  16.518  18.009   2.802  0.1380  0.1060  0.2209
27645W        W44492   6.503   7.181  11.994 -0.1198  0.1310 -0.1636
27646W        W44493   1.013  17.276  12.773  0.1014  0.0533  0.1230
27647W        W44494  15.285  10.347  14.593  0.0950 -0.0318 -0.0460
27648W        W44495   6.686  12.002   0.914  0.3146 -0.3054  0.4753
27649W        W44496  13.324  10.359  13.829 -0.0188  0.3485 -0.0820
27650W        W44497   1.891  11.523  13.791  0.2875  0.0426 -0.3439
27651W        W44498   2.592   2.458  11.774  0.2398  0.3265 -0.1077
27652W        W44499   5.535   7.586  12.040 -0.0562 -0.1393 -0.1135
27653W        W44500  11.691  15.958  11.484  0.2890 -0.1375 -0.2254
27654W        W44501   6.409   6.655   3.104  0.1926 -0.1493  0.0356
27655W        W44502  11.843   4.304   0.843  0.0050 -0.1294 -0.0404
27656W        W44503   3.617   9.160  14.372 -0.0274  0.0351 -0.0509
27657W        W44504   1.238  10.709   3.271 -0.1161  0.1924 -0.1215
27658W        W44505  17.870   8.122  11.753 -0.2206 -0.1446  0.0779
27659W        W44506  17.967   2.001  11.831 -0.1842 -0.1400  0.0313
27660W        W44507   0.883   7.815   2.961 -0.1728  0.1305 -0.1652
27661W        W44508  17.153   6.557  11.042 -0.0710  0.1161 -0.2219
27662W        W44509   7.818  16.654   5.869  0.0740 -0.0967 -0.0066
27663W        W44510   8.697   1.324   1.416 -0.1353  0.1983  0.3218
27664W        W44511   8.117  15.182   1.345  0.2335  0.0727  0.2075
27665W        W44512   7.906  13.346   4.063  0.1353 -0.0130  0.1486
27666W        W44513   7.060  15.938   1.277  0.0875  0.0119  0.0573
27667W        W44514   3.417   5.008   2.357  0.1021 -0.1588 -0.0513
27668W        W44515  12.000   7.104   5.370 -0.0457 -0.0678 -0.0196
27669W        W44516  13.464   4.389   3.679 -0.1500  0.0587  0.2147
27670W        W44517   7.325  14.042   5.418 -0.2327  0.2845 -0.1537
27671W        W44518  13.804  14.917   5.594 -0.0362 -0.1082  0.0902
27672W        W44519  12.613  14.983   3.336 -0.1331 -0.1413  0.1459
27673W        W44520   0.260   9.060  10.112 -0.0001  0.1970 -0.0894
27674W        W44521  17.557   4.225  11.598 -0.2776 -0.2066 -0.0865
27675W        W44522   9.046  14.089   5.074 -0.3354  0.0650 -0.1148
27676W        W44523   1.089  16.465  12.183  0.3038 -0.1121 -0.0595
27677W        W44524   1.605   4.692  12.984  0.1324  0.0083  0.0603
27678W        W44525   3.883  13.389  13.640 -0.0340 -0.1191  0.2752
27679W        W44526  17.083   0.060   0.164  0.0412 -0.1804 -0.0595
27680W        W44527  17.640  17.725  15.719 -0.0576 -0.1793 -0.1500
27681W        W44528   5.116   7.933   2.391  0.0695  0.2733 -0.0448
27682W        W44529   7.254   3.450   1.666 -0.0447  0.2935  0.0618
27683W        W44530   1.407   0.851   0.135 -0.2710 -0.1108 -0.1027
27684W        W44531   7.553   1.782  14.014 -0.0075  0.3227  0.1901
27685W        W44532   3.197  10.361  13.856  0.0585 -0.0938  0.3590
27686W        W44533   2.879  13.750   4.231  0.1685  0.0576 -0.0477
27687W        W44534  14.247  12.119  15.727 -0.0133  0.1356  0.0978
27688W        W44535  14.795  11.726   5.594 -0.2095  0.1713 -0.1385
27689W        W44536   3.596   4.360  15.056  0.0475 -0.1401 -0.2291
27690W        W44537   8.258  15.026   2.918  0.1928 -0.0258  0.0231
27691W        W44538  18.107  14.269   2.803  0.1017 -0.3134  0.0807
27692W        W44539   0.539   2.270   0.290  0.0515  0.0170 -0.0321
27693W        W44540   7.648   0.820  15.441  0.0194 -0.4207 -0.0046
27694W        W44541  10.582  18.328   3.927  0.3908  0.0469 -0.0741
27695W        W44542   7.786  11.608   6.144 -0.2023  0.2101 -0.0433
27696W        W44543   9.749  18.002   5.068  0.3014 -0.1818  0.6330
27697W        W44544  15.576   9.910   1.133 -0.1473 -0.1497  0.2635
27698W        W44545   0.863  11.178   1.438  0.0066  0.1354  0.0646
27699W        W44546   3.595   5.940  14.966  0.1810 -0.2404  0.2394
27700W        W44547   3.545  17.687  12.658  0.1298 -0.0148  0.0691
27701W        W44548   6.229  10.525  12.767  0.1383  0.0591  0.2874
27702W        W44549   4.794   8.598  16.317  0.1416  0.1143  0.1113
27703W        W44550  17.225  10.195   4.983 -0.2496 -0.3732  0.1853
27704W        W44551  11.561  13.085   4.257  0.1054 -0.0756 -0.0675
27705W        W44552   0.881  12.006  11.286 -0.2389  0.0692 -0.0395
27706W        W44553  18.036   3.763  13.126 -0.0177  0.0620  0.1348
27707W        W44554   1.869   8.500  14.305  0.3988  0.4579  0.1119
27708W        W44555   1.928   1.684  14.568  0.0106  0.1000  0.2062
27709W        W44556   4.560   3.936   4.260 -0.2565  0.0131  0.0565
27710W        W44557   5.425  17.885  16.360 -0.0482 -0.2429  0.2180
27711W        W44558   5.117   0.566  13.661 -0.0365  0.2587  0.2095
27712W        W44559   8.328  17.766  13.944  0.2214 -0.0026 -0.3277
27713W        W44560  12.119  13.652  13.371  0.2064  0.0945 -0.0405
27714W        W44561   4.352  17.618  15.195  0.1290  0.0623 -0.0001
27715W        W44562   2.565   7.782   2.071  0.2113 -0.0910  0.0742
27716W        W44563   9.474  11.773   0.173 -0.0837 -0.2599  0.2530
27717W        W44564   0.474  13.279   3.043  0.2010 -0.2011 -0.3026
27718W        W44565  10.405   9.893   4.096 -0.1669 -0.2320 -0.2979
27719W        W44566   8.250  12.687   0.178 -0.1255  0.0111 -0.3408
27720W        W44567  10.039  12.438  12.757  0.3232  0.0027  0.1418
27721W        W44568  11.540   1.557   3.316  0.0767 -0.0851 -0.3288
27722W        W44569   3.106   3.146  12.538  0.1745  0.1593 -0.1360
27723W        W44570  12.832   5.718  15.303  0.2199 -0.1826 -0.2072
27724W        W44571  17.609   1.305  12.452 -0.3195 -0.1413 -0.0385
27725W        W44572  13.139   2.180  14.949 -0.1052 -0.0158 -0.0851
27726W        W44573   5.354   3.638   3.755 -0.2336 -0.1743 -0.0629
27727W        W44574  14.470   1.023   5.276 -0.1840  0.1187  0.1627
27728W        W44575   8.230   0.339   0.626  0.0655  0.1432 -0.0508
27729W        W44576   1.830   4.966  12.159 -0.1898 -0.1928  0.2832
27730W        W44577   6.226  11.919  11.642  0.2685 -0.1736 -0.0140
27731W        W44578  16.149  17.735  12.586  0.1999 -0.1477 -0.1885
27732W        W44579  12.842   6.034   3.497 -0.0497  0.1250 -0.0379
27733W        W44580   6.861   4.015  14.590  0.0688 -0.2605 -0.1956
27734W        W44581  14.889   1.030   2.688  0.1637 -0.1529 -0.0359
27735W        W44582   7.281  18.016   4.332  0.0470  0.1609  0.1091
27736W        W44583  18.342   7.310   0.041 -0.2971  0.0270 -0.1716
27737W        W44584  15.055   2.253   2.033 -0.1796  0.0268  0.2138
27738W        W44585   8.299  13.929   1.712 -0.1256 -0.0535 -0.1364
27739W        W44586   7.289   2.887   4.502 -0.0173  0.2680  0.1325
27740W        W44587   6.053  13.021  15.970 -0.0645 -0.2247 -0.1056
27741W        W44588   6.067  14.214  16.090 -0.0446  0.3281 -0.0838
27742W        W44589   5.210   6.752  13.600  0.0333  0.1712  0.5572
27743W        W44590   1.897  17.532   4.185  0.1018  0.0197 -0.1154
27744W        W44591  17.482   4.915  13.666  0.1237 -0.0254 -0.4021
27745W        W44592   1.594   5.629  11.852  0.2597 -0.0085  0.1601
27746W        W44593   3.653   5.002  11.910  0.1998 -0.1605  0.2697
27747W        W44594  15.923   3.423   5.584 -0.0156  0.2412  0.0390
27748W        W44595  16.181   5.284  14.475 -0.1439 -0.2573  0.0565
27749W        W44596  17.702  14.343   2.035  0.1402  0.0206 -0.0378
27750W        W44597   5.046   5.696   4.303  0.1161 -0.1172 -0.0401
27751W        W44598  14.903   7.588  15.479 -0.2416  0.3079 -0.0537
27752W        W44599   3.726  16.718   3.797  0.0961  0.2622  0.0635
27753W        W44600  12.477   6.979  10.197  0.0691  0.0541 -0.0081
27754W        W44601  10.097   6.740   2.241 -0.0307  0.0097  0.0719
27755W        W44602   1.925   8.993   0.021  0.0514 -0.1089  0.0604
27756W        W44603   6.425   8.852  11.638 -0.2709 -0.4196  0.1603
27757W        W44604   3.790  17.963  16.117 -0.1437  0.2058 -0.1020
27758W        W44605  10.617   6.271   3.489  0.0560 -0.0727 -0.1750
27759W        W44606   0.528   6.838  12.516  0.0667  0.3615  0.0687
27760W        W44607  17.765  17.124   2.692 -0.0417 -0.1713  0.1766
27761W        W44608   1.439   2.303  12.844  0.0753 -0.1000  0.3634
27762W        W44609  11.015   3.366  14.981 -0.1012 -0.1102 -0.1642
27763W        W44610  14.567   2.085  15.282 -0.0621  0.0431  0.2433
27764W        W44611  11.665   7.174   0.217  0.0029  0.1638 -0.1231
27765W        W44612   5.313  11.496   2.741  0.1363  0.0616 -0.1634
27766W        W44613  13.487   3.144   0.022  0.4805 -0.4363 -0.0542
27767W        W44614   0.265   1.021   1.545  0.1571  0.0565 -0.0711
27768W        W44615  14.991  10.603   1.386  0.1524  0.3500 -0.3345
27769W        W44616   5.729  11.179  13.189 -0.2909  0.0305  0.0229
27770W        W44617  13.980  10.841   6.248 -0.2339  0.0928  0.2708
27771W        W44618   5.282   6.410   3.196  0.1659 -0.3385 -0.0202
27772W        W44619   1.363   4.787  11.942 -0.0604 -0.0425 -0.3042
27773W        W44620   7.934   2.126   1.605 -0.0704  0.2753 -0.0018
27774W        W44621  16.225  10.096  12.495  0.1374 -0.1067  0.0804
27775W        W44622   9.127   5.038  15.518  0.0856  0.0759 -0.1295
27776W        W44623  10.187  10.353   4.867 -0.0938 -0.0618 -0.0845
27777W        W44624  15.459   3.063  11.988  0.1045  0.0802  0.0456
27778W        W44625   2.634  16.065  15.766 -0.2543  0.0395 -0.1831
27779W        W44626  17.913   3.949  11.974  0.0810  0.0025 -0.1265
27780W        W44627  13.057  13.257   3.179  0.0596  0.0021 -0.4281
27781W        W44628  14.628   3.959  12.169 -0.2134 -0.0624 -0.0892
27782W        W44629  12.075  17.014   6.035 -0.0865 -0.1232 -0.2670
27783W        W44630  16.487   5.338   0.453  0.0698  0.1168 -0.1828
27784W        W44631   7.261  14.524   3.154 -0.0281  0.1530  0.0724
27785W        W44632   9.095  10.753   5.378  0.2676 -0.0103 -0.1097
27786W        W44633   6.770   0.831   2.939  0.1789 -0.0176  0.3693
27787W        W44634   2.775   1.361  15.657  0.0228 -0.4758 -0.0594
27788W        W44635  17.183  13.149  14.517 -0.5197  0.2080 -0.0837
27789W        W44636  10.026   2.084   3.768  0.1021 -0.0772  0.1218
27790W        W44637  14.578   1.467   2.830 -0.1078 -0.0741 -0.0437
27791W        W44638   7.138  12.702  12.397 -0.0625 -0.1836  0.0773
27792W        W44639  15.470   9.022  10.827 -0.0983  0.4264  0.0688
27793W        W44640  12.179  11.788  12.076 -0.1977 -0.2611  0.0957
27794W        W44641  16.548  18.346  14.193  0.0892  0.0704  0.1186
27795W        W44642  15.174   2.142   4.789  0.0225  0.1376 -0.1226
27796W        W44643   5.860  13.687  16.176 -0.0880 -0.0257  0.0306
27797W        W44644  13.953   2.328  15.071 -0.0852  0.0992  0.2630
27798W        W44645  17.673   8.439  13.837 -0.1246 -0.0043  0.1777
27799W        W44646   8.437  16.760   0.695 -0.1453 -0.2864  0.0542
27800W        W44647   8.671   8.455  15.092 -0.0182  0.1189  0.0800
27801W        W44648   3.629  11.807  12.439  0.1331  0.1360  0.4632
27802W        W44649  11.289   2.731   3.271 -0.0436 -0.1524  0.0404
27803W        W44650  11.105   9.809  16.347  0.1801 -0.5146 -0.1481
27804W        W44651  12.068   8.378  11.714  0.1265  0.0590  0.0514
27805W        W44652  10.505   3.918  14.316 -0.0367 -0.0259 -0.4431
27806W        W44653   3.646   7.087   1.552 -0.0799  0.1684  0.1420
27807W        W44654   6.343  17.137   5.999 -0.0351  0.3455 -0.0834
27808W        W44655  18.296  14.215   1.821  0.2424 -0.2285 -0.1015
27809W        W44656  13.146   4.774   4.701 -0.3268  0.2670 -0.3599
27810W        W44657   5.571  16.883   4.400 -0.2517 -0.2082  0.0357
27811W        W44658   5.826   3.586  14.800 -0.0130 -0.1526  0.1481
27812W        W44659   3.629  13.534  12.658  0.0357 -0.5236 -0.0319
27813W        W44660  10.995   8.008   4.589 -0.0794 -0.3935 -0.1724
27814W        W44661   7.329   0.184   3.531 -0.0533 -0.0752 -0.2315
27815W        W44662   3.120   2.264  11.171  0.0164  0.2449 -0.0034
27816W        W44663   4.002   4.930  13.354 -0.0217 -0.1072  0.1982
27817W        W44664  13.055  13.695  13.337  0.1935 -0.1115 -0.0385
27818W        W44665   4.227   2.169   2.237 -0.0491  0.1455 -0.0039
27819W        W44666   0.540  10.510   0.868 -0.1889  0.0887 -0.0605
27820W        W44667   0.106   6.282   0.818  0.2004  0.0861  0.0543
27821W        W44668  13.034  11.264  12.109  0.0775  0.0195 -0.2562
27822W        W44669  12.890   1.063  15.811 -0.1958  0.2921 -0.0409
27823W        W44670  15.493   2.114  13.001 -0.2435 -0.0400 -0.1635
27824W        W44671   5.965  14.025  12.031 -0.0122  0.1064  0.1086
27825W        W44672   9.262   6.963  14.465  0.3042 -0.2551  0.0184
27826W        W44673   4.933  11.738   0.046 -0.2031 -0.1256 -0.0203
27827W        W44674   1.398   6.407  11.014 -0.0692  0.2805  0.2355
27828W        W44675   2.126   5.502  13.178  0.1754 -0.1333 -0.2331
27829W        W44676   8.524  17.189  16.240  0.0483  0.1482  0.1605
27830W        W44677   0.130   6.936   1.830  0.1513  0.3981  0.1999
27831W        W44678   6.634  10.284  16.104  0.3271  0.0722 -0.1332
27832W        W44679   5.343   9.956   2.477 -0.1209  0.3560  0.2703
27833W        W44680   1.918  17.197   2.951  0.0556  0.1854  0.0617
27834W        W44681  15.851  11.009  14.913  0.1261  0.2581  0.0121
27835W        W44682  10.173   6.772  13.067  0.1098 -0.0318  0.0963
27836W        W44683   1.947   5.165   5.080 -0.1843  0.1514 -0.1036
27837W        W44684  17.769   1.812   0.962 -0.1931 -0.0701  0.1514
27838W        W44685   2.814  17.418   1.328  0.0422  0.3401  0.3339
27839W        W44686  13.511   1.693  14.874  0.1192 -0.2769  0.0926
27840W        W44687  16.745   2.097   0.486  0.0164  0.0325 -0.0076
27841W        W44688   5.854   6.656  13.812 -0.0724 -0.3218  0.1006
27842W        W44689   5.602  16.278   1.655 -0.3584 -0.0777 -0.3586
27843W        W44690   6.357  16.365   5.684  0.0221  0.2126  0.0578
27844W        W44691   7.984   6.122  15.704  0.2315 -0.1321  0.1182
27845W        W44692  18.082   6.741  13.431 -0.0697  0.1545  0.1162
27846W        W44693   5.269   7.502  14.719  0.0194  0.0494  0.1441
27847W        W44694   0.911   0.288  14.205 -0.2557 -0.1516 -0.0229
27848W        W44695   7.707   4.806  14.368  0.1531 -0.1681 -0.1192
27849W        W44696   4.711   4.704   4.443  0.2412  0.3655 -0.2845
27850W        W44697  15.129  12.246   3.042  0.1635  0.1095 -0.0234
27851W        W44698  13.761  13.833  15.556 -0.0559 -0.0026 -0.0451
27852W        W44699   5.317   3.765   0.422 -0.3660  0.0246  0.2571
27853W        W44700   1.755  14.737   5.445  0.1172  0.0824 -0.3498
27854W        W44701   7.690  10.474  14.761  0.0724  0.0658 -0.1934
27855W        W44702   4.839   2.441   0.725  0.2961 -0.0546  0.6375
27856W        W44703   1.043  10.396   5.268 -0.1553  0.0170 -0.3568
27857W        W44704  15.527  10.233   2.446 -0.2303  0.1178  0.1057
27858W        W44705   4.590   0.029  13.497  0.2051 -0.0767  0.0193
27859W        W44706  10.338   9.258  15.286 -0.2110  0.0713  0.1837
27860W        W44707  13.264  18.415   0.283  0.0596  0.2459 -0.1578
27861W        W44708  12.198  17.914  14.979 -0.0965  0.2043 -0.1034
27862W        W44709   0.274  12.898   0.645  0.0383  0.0483 -0.0007
27863W        W44710   6.719   1.801  15.138  0.2297  0.1307  0.1253
27864W        W44711   5.959   9.358  14.397  0.0896  0.0554  0.0062
27865W        W44712  10.483   8.550   0.126 -0.0985  0.1666 -0.0733
27866W        W44713   9.404   8.738  11.563 -0.4060  0.3150  0.1548
27867W        W44714  12.001  10.515   1.043 -0.1329 -0.4445 -0.1248
27868W        W44715  10.377   1.111  15.208  0.0061  0.2027  0.1166
27869W        W44716  16.989  14.378  13.458 -0.0916 -0.0874 -0.0293
27870W        W44717  11.927  11.803   2.274 -0.1211 -0.0503 -0.0727
27871W        W44718  13.921  16.928  13.143  0.0916  0.3439 -0.3953
27872W        W44719   6.263   4.849   2.398 -0.2481  0.0385 -0.1958
27873W        W44720  12.245   2.539   4.502 -0.1885 -0.1423  0.3717
27874W        W44721  10.905   6.406  11.441  0.0916  0.2126  0.0489
27875W        W44722   1.157  18.337   2.816 -0.1895 -0.0103 -0.2341
27876W        W44723  11.850   6.115  11.576 -0.0637 -0.2786 -0.1523
27877W        W44724   1.058   1.703  15.515  0.0771  0.1298  0.2807
27878W        W44725   2.960   7.535   4.427  0.0111  0.0125  0.0173
27879W        W44726  12.293   0.492   5.965 -0.0866  0.1356  0.1034
27880W        W44727   5.815  12.791   2.553 -0.2681 -0.0080 -0.0112
27881W        W44728   7.760   8.239  14.982  0.1069 -0.3030 -0.0191
27882W        W44729  10.371  15.281  14.069 -0.2036 -0.0686  0.0753
27883W        W44730  14.706   4.732  12.489 -0.0977  0.2549 -0.3525
27884W        W44731   6.715  17.938   3.232 -0.2740  0.2332  0.0246
27885W        W44732  13.368   6.951   5.796  0.1686 -0.0716 -0.1361
27886W        W44733   2.268  10.985   1.278  0.0478 -0.2925 -0.0660
27887W        W44734  13.568   4.137  12.980  0.0231 -0.1491 -0.0343
27888W        W44735   2.404  15.080   2.478 -0.0265 -0.0352  0.0580
27889W        W44736   6.407   0.961  14.924 -0.1314  0.0963  0.2280
27890W        W44737  12.692  15.393   4.619  0.0936  0.0881  0.0913
27891W        W44738  11.274  11.796  16.224 -0.2118 -0.1657 -0.2565
27892W        W44739   8.985   6.034   1.404  0.2072  0.0884  0.0955
27893W        W44740  16.992  15.179   3.882  0.0433 -0.1079  0.1400
27894W        W44741  14.273   6.232   1.648 -0.1939  0.0705  0.1558
27895W        W44742   0.460   4.949  13.262  0.0626 -0.2350 -0.1455
27896W        W44743   6.309  14.477   3.818  0.0352  0.0155  0.0033
27897W        W44744   0.196   7.752  11.249 -0.3339  0.2431 -0.3151
27898W        W44745   1.741   6.749  10.867 -0.2358 -0.2456 -0.1203
27899W        W44746   1.939  14.778  13.158  0.0765 -0.0622 -0.4161
27900W        W44747  16.013   0.832  13.995  0.4978 -0.1174 -0.0876
27901W        W44748  16.835   1.032   5.055 -0.0336 -0.3981 -0.1425
27902W        W44749  14.472  12.660   0.360 -0.2542  0.1949 -0.2352
27903W        W44750  13.942   9.717  15.067 -0.1730 -0.1911 -0.3344
27904W        W44751   7.286   8.700  15.796 -0.0562 -0.1563  0.2578
27905W        W44752  16.519   4.547   2.356  0.2411  0.0245 -0.2412
27906W        W44753  11.649  12.538   0.553  0.0131 -0.1227  0.4974
27907W        W44754   9.787  15.965  15.309  0.1716 -0.1593 -0.1761
27908W        W44755   0.106   8.239   4.609  0.0203  0.0385  0.0439
27909W        W44756   4.330  13.362   3.460 -0.0183 -0.3573 -0.2864
27910W        W44757  16.052  12.653   2.148  0.1949  0.0779  0.0601
27911W        W44758  16.395   0.288   5.533 -0.0114  0.0993  0.0064
27912W        W44759  16.058  17.132  16.287 -0.1924 -0.0235 -0.0813
27913W        W44760   5.537  10.285  16.084  0.0158  0.3933  0.3385
27914W        W44761   1.426   6.132  15.453 -0.0675  0.1295 -0.2621
27915W        W44762   5.834   0.333  16.295 -0.0644  0.0806 -0.0581
27916W        W44763   7.312  14.670   6.418 -0.0051  0.1131 -0.2664
27917W        W44764   2.857  18.014   0.444  0.0241  0.2490 -0.1728
27918W        W44765   8.005   6.413  15.276 -0.1535  0.0888 -0.0065
27919W        W44766  14.153  16.370   3.402  0.1862 -0.0114 -0.0217
27920W        W44767   5.893  11.263   1.279  0.1143 -0.0365  0.0342
27921W        W44768   9.706   2.638  15.535 -0.0346  0.3006 -0.0377
27922W        W44769   8.250  15.681  13.104  0.0902 -0.2849 -0.2741
27923W        W44770   8.280   8.735   5.024  0.0254 -0.1172  0.0338
27924W        W44771  11.445  16.627   0.155  0.0246  0.0411 -0.2113
27925W        W44772  12.211   4.896   3.565  0.2724 -0.2337  0.1690
27926W        W44773   2.831   8.678   0.372  0.0806  0.6352 -0.2688
27927W        W44774   8.952   1.970   3.582  0.1644 -0.5611 -0.3075
27928W        W44775   1.913   5.375   1.486  0.0446 -0.0392 -0.0905
27929W        W44776   6.451   8.076   5.419 -0.1316 -0.3057 -0.3028
27930W        W44777  18.310   9.561   2.653  0.1382  0.1737  0.2536
27931W        W44778   5.173   0.544  12.317 -0.3086  0.0441  0.0883
27932W        W44779   8.611  13.165  16.132  0.1757  0.3940  0.0150
27933W        W44780   6.998   9.538  15.871  0.1532  0.2940 -0.2536
27934W        W44781   4.114   3.971   4.639 -0.0107 -0.0145 -0.0447
27935W        W44782   1.229  17.714   0.764  0.1714  0.1586  0.2015
27936W        W44783   4.094  18.302  14.581  0.0835 -0.4292 -0.3006
27937W        W44784  18.168   3.014   4.999 -0.1822 -0.1382  0.4026
27938W        W44785  13.318  10.147  12.138 -0.0230  0.0584 -0.1171
27939W        W44786  10.732  16.395   0.794  0.1655 -0.2208  0.2307
27940W        W44787   8.713   4.767   4.488  0.0642 -0.3444  0.0902
27941W        W44788   5.826   5.783  11.100 -0.1786 -0.2981 -0.0222
27942W        W44789   4.228  18.111   3.618  0.0233  0.1073 -0.2168
27943W        W44790   4.011  12.903  11.857  0.1383  0.0800  0.1893
27944W        W44791   2.178   6.900   2.504  0.1364  0.0419  0.3571
27945W        W44792   5.795  18.333  12.591 -0.3532 -0.2953  0.0918
27946W        W44793   0.500   1.446   1.498  0.3346  0.1415  0.3786
27947W        W44794   8.839  16.914  12.617  0.3086 -0.0940  0.0796
27948W        W44795   7.017   0.994   5.607  0.1359 -0.0501  0.2284
27949W        W44796  12.320   8.736  14.511  0.3965  0.0747  0.1483
27950W        W44797  14.061  17.059   2.936 -0.2240  0.1703 -0.0271
27951W        W44798   2.820   2.396   0.795  0.0076  0.2028  0.0853
27952W        W44799   6.141   3.619   1.748 -0.2800  0.0624  0.1454
27953W        W44800  12.609  12.301   2.214 -0.0557  0.0981  0.0832
27954W        W44801  10.432  11.706  14.256 -0.1418 -0.2953  0.0118
27955W        W44802  10.837  14.737   2.614  0.0314  0.0933 -0.1647
27956W        W44803  15.959  15.298   5.113  0.2355 -0.0116 -0.1210
27957W        W44804   3.777  18.190   0.513  0.2489 -0.1396 -0.2086
27958W        W44805   1.860   9.347   3.030  0.0489  0.2375 -0.1580
27959W        W44806  12.017   4.949  11.849 -0.0397 -0.0169  0.0898
27960W        W44807   9.182   4.116   3.448 -0.1605 -0.1160  0.1356
27961W        W44808   2.358   6.426   2.376 -0.1499  0.2522  0.0588
27962W        W44809   7.183  11.485   0.293  0.1276 -0.2607  0.0712
27963W        W44810  17.191   6.241   0.343 -0.1032  0.0663 -0.1605
27964W        W44811  15.081   2.012  13.290  0.0500  0.2727  0.1773
27965W        W44812  15.729  18.315   2.136  0.1112  0.1755  0.0547
27966W        W44813   7.077   0.578  11.353  0.1935  0.2853  0.0176
27967W        W44814  11.797   2.277  14.042 -0.0556 -0.1622 -0.0365
27968W        W44815  11.056  15.902   1.149 -0.0635 -0.1554 -0.2311
27969W        W44816  14.138   5.687   3.305  0.1093  0.2337 -0.0515
27970W        W44817   9.393  14.930  14.325  0.0338  0.0964  0.0045
27971W        W44818  11.713  11.186  11.652 -0.3767  0.0832  0.0921
27972W        W44819   7.195  17.992   0.836 -0.1842  0.0511 -0.2358
27973W        W44820  11.777   7.043  14.759  0.0190  0.0952  0.1931
27974W        W44821   3.922   6.663   0.167 -0.0282  0.2981  0.2208
27975W        W44822   5.447  15.393   0.257  0.2477  0.1394  0.0778
27976W        W44823  14.845   9.774   1.944 -0.2454  0.2828  0.4338
27977W        W44824   3.076   2.551  11.736  0.2873 -0.1240 -0.0393
27978W        W44825   6.280  15.456  13.517 -0.0864 -0.1178  0.0531
27979W        W44826  14.253   0.939   2.182 -0.1730  0.0736 -0.1517
27980W        W44827   8.435  16.650   6.410  0.0757  0.0180  0.0693
27981W        W44828  13.976   7.964   2.082 -0.1396  0.0113 -0.0997
27982W        W44829  12.359   8.988  15.791  0.2846  0.0670  0.2232
27983W        W44830  17.133  16.691   0.483 -0.0373 -0.1403 -0.0758
27984W        W44831   4.498  10.185   5.537  0.0653 -0.0732 -0.3717
27985W        W44832  10.921  13.804   3.179 -0.2624 -0.0463  0.3470
27986W        W44833   2.077   7.992  15.300 -0.1139  0.0520 -0.0112
27987W        W44834  16.011  17.278   0.431 -0.0787  0.0549  0.0149
27988W        W44835   6.659  15.163  13.641  0.2230  0.2931 -0.1652
27989W        W44836  17.463  12.726  14.472 -0.3175 -0.1523 -0.1861
27990W        W44837   6.450   5.872   3.526  0.2188 -0.0875  0.0123
27991W        W44838   7.527   2.024   5.490 -0.1125 -0.0238 -0.0494
27992W        W44839  10.432   5.697   0.849 -0.3782  0.0476  0.0349
27993W        W44840   7.999   2.325   3.861  0.0617 -0.1933  0.1706
27994W        W44841   0.533  14.920   1.657 -0.2769 -0.1943  0.0888
27995W        W44842  15.711  16.384   1.946 -0.3326 -0.4052  0.0529
27996W        W44843   1.444   3.221  16.335  0.3384 -0.1280  0.2730
27997W        W44844  18.231   7.052  11.830  0.2321 -0.0630  0.0337
27998W        W44845   2.707  14.093  12.671  0.1012  0.1678 -0.0733
27999W        W44846  13.820  10.324  13.195 -0.0928  0.0847  0.1327
28000W        W44847  17.629   6.926   4.888  0.3037  0.1239  0.2140
28001W        W44848  14.221   3.526  12.471  0.0044 -0.2205  0.2621
28002W        W44849   4.795  16.295  13.270 -0.0053  0.0715  0.2476
28003W        W44850   2.368   3.295   2.685  0.3475 -0.0201  0.0369
28004W        W44851  13.747   4.574  14.792 -0.1827 -0.2117  0.3920
28005W        W44852  16.719  15.381  15.273  0.2037 -0.0058 -0.1182
28006W        W44853   4.721  11.473   3.335 -0.0616  0.1004 -0.1000
28007W        W44854  16.157  12.396  13.819  0.4173  0.2660 -0.1581
28008W        W44855  10.327   9.558   6.619 -0.0546  0.1259 -0.0134
28009W        W44856  14.977   4.164   1.573  0.1576 -0.0794  0.0992
28010W        W44857   3.363  12.913   4.776  0.0557  0.1428  0.2507
28011W        W44858   2.249  13.786  11.932 -0.1107  0.1304  0.0118
28012W        W44859   5.067  13.438   0.460 -0.0468 -0.0516 -0.2024
28013W        W44860   3.472   8.173  15.800  0.1458 -0.0718  0.1856
28014W        W44861  12.317   8.500  13.014  0.2901  0.0704  0.1824
28015W        W44862   9.432   0.275  12.712  0.5361 -0.0668  0.0547
28016W        W44863  16.682  16.381   3.095  0.0768  0.1568  0.2921
28017W        W44864  15.657   4.893   1.980  0.0486 -0.0621  0.2440
28018W        W44865  18.354   5.899  11.257  0.2797 -0.1942  0.1427
28019W        W44866   3.724  18.186   2.237  0.0165  0.1541  0.0741
28020W        W44867  10.987  11.082  15.784 -0.0248  0.1216 -0.1450
28021W        W44868   3.489   7.583   2.865 -0.0603 -0.1443 -0.1850
28022W        W44869   4.246  10.350  13.652 -0.0675 -0.0393 -0.1227
28023W        W44870  18.342  15.232   2.727 -0.3753 -0.0216  0.0998
28024W        W44871   8.219   6.686  15.595  0.2567  0.0563 -0.1746
28025W        W44872   2.309  10.201  11.784 -0.2278 -0.1145  0.0037
28026W        W44873   4.582  16.813   5.288  0.3793 -0.0626 -0.2038
28027W        W44874   8.777   0.665   1.125  0.2669 -0.0984 -0.3672
28028W        W44875   6.439  10.670   4.422  0.0355 -0.0062  0.0129
28029W        W44876  17.049  11.042   0.937  0.3301  0.2020  0.2681
28030W        W44877   2.675   9.255   4.475 -0.1517  0.2228 -0.1713
28031W        W44878  13.573   4.100  14.097 -0.5174 -0.2303 -0.0811
28032W        W44879  15.705   2.968  12.984  0.1510 -0.0282  0.0153
28033W        W44880   3.425   8.008  15.254 -0.2345 -0.3918 -0.3771
28034W        W44881  13.810  10.627  11.746  0.0442 -0.2499  0.0648
28035W        W44882   2.607   9.083   1.223 -0.0364 -0.0320 -0.1030
28036W        W44883   8.644   0.708   3.044  0.3267  0.2290  0.1392
28037W        W44884  17.077  13.007   0.203 -0.0717 -0.2042  0.0430
28038W        W44885   4.107  14.927  12.496 -0.2745 -0.0089  0.1896
28039W        W44886   7.702  15.024  12.541  0.0620 -0.1906 -0.0033
28040W        W44887  11.716  11.501  12.121  0.0313  0.1818  0.1214
28041W        W44888  11.500   5.021   1.338  0.0964  0.0996  0.0341
28042W        W44889   5.268   1.328  12.270 -0.1253  0.0540  0.1912
28043W        W44890   9.109   2.214  15.626  0.0402  0.0072 -0.1576
28044W        W44891  12.323  13.920  15.896 -0.0872 -0.2132  0.0375
28045W        W44892   3.213  14.066   3.333  0.0502 -0.2618 -0.1180
28046W        W44893  15.105   9.175   1.238  0.0789  0.0072 -0.1387
28047W        W44894  16.785   1.596   1.270  0.3694  0.2303  0.2034
28048W        W44895   2.909  12.626   1.731  0.1031  0.3594  0.3975
28049W        W44896   5.026   2.491   4.059 -0.3268 -0.3389  0.0145
28050W        W44897   8.887  11.702  14.035 -0.0857 -0.2002 -0.0440
28051W        W44898  11.600   2.218   5.413 -0.2802 -0.0311  0.4439
28052W        W44899  10.828   0.862   4.948 -0.0299 -0.0138 -0.0920
28053W        W44900  10.203   1.458  15.914  0.1326  0.1338 -0.0539
28054W        W44901  12.304  16.415  12.127  0.0990  0.0919  0.3085
28055W        W44902   6.714   1.663   5.182  0.1010 -0.5304 -0.0866
28056W        W44903   0.243   7.085   0.387 -0.0494  0.3715  0.2212
28057W        W44904  10.754   1.702   3.588  0.1731 -0.0078 -0.1042
28058W        W44905  15.989   8.967  13.911  0.1246  0.0317 -0.0870
28059W        W44906  15.279   6.259  16.200 -0.1017 -0.2042  0.0715
28060W        W44907   6.469   9.750  11.499 -0.0360 -0.0563 -0.1579
28061W        W44908  17.070   6.511   5.302 -0.0848  0.1343  0.3247
28062W        W44909  10.509   1.465   0.286  0.2394  0.1455  0.1566
28063W        W44910   2.451  15.572  13.440 -0.1841 -0.1443  0.1719
28064W        W44911  12.161  16.464  16.326  0.1281  0.0872  0.4385
28065W        W44912   6.025  15.830   6.386  0.3429  0.0540 -0.4098
28066W        W44913   0.947  11.701   1.479  0.1907  0.6106  0.0243
28067W        W44914  15.738  14.711  14.498 -0.4279  0.0212 -0.1836
28068W        W44915   1.209  11.678   3.447  0.1643 -0.2555  0.1208
28069W        W44916  13.561  16.644   2.118 -0.2573  0.2001 -0.1836
28070W        W44917  15.812  16.344   4.830 -0.0453  0.0965  0.0897
28071W        W44918  15.072   1.342  14.239  0.0133  0.0644 -0.0957
28072W        W44919  11.374   2.398   0.566  0.4270 -0.0543 -0.1940
28073W        W44920   2.590  15.583   1.408 -0.0368  0.0981 -0.0097
28074W        W44921   0.480   2.151  12.168  0.3671 -0.2452 -0.2944
28075W        W44922   6.793   2.731  13.761 -0.0167 -0.0635 -0.0147
28076W        W44923   0.755   2.556   2.160 -0.0743  0.0160  0.0848
28077W        W44924   8.728   2.451  12.871  0.3884 -0.1792  0.3032
28078W        W44925  11.386  16.913   4.911 -0.2431 -0.3143 -0.2674
28079W        W44926   2.286   5.104   2.056  0.2231 -0.0732  0.0611
28080W        W44927   1.907  10.221  13.511 -0.0084 -0.3564 -0.1440
28081W        W44928   2.139   7.969   3.134  0.1692  0.1619 -0.1784
28082W        W44929   0.177   7.877   4.269 -0.0124  0.1018  0.2163
28083W        W44930  17.212   8.460   3.737  0.2153 -0.1171 -0.2625
28084W        W44931   2.426  10.399   1.887  0.5446  0.1790  0.1922
28085W        W44932   2.505   6.067   2.064  0.0677 -0.0842 -0.1200
28086W        W44933   3.560   3.167   0.228  0.2783 -0.0259 -0.0054
28087W        W44934   9.344  12.887   3.609  0.1487  0.1126 -0.0215
28088W        W44935   1.808   9.712   4.827 -0.0072  0.2357  0.0003
28089W        W44936  12.954   3.298  15.998  0.0563  0.2076  0.0427
28090W        W44937  13.393   5.122   3.731  0.1404  0.1547 -0.0487
28091W        W44938   0.406   8.601   1.186 -0.1935  0.2090  0.1483
28092W        W44939  17.016   8.788   0.815  0.3351  0.1267 -0.0475
28093W        W44940  10.164   6.188   0.883 -0.4793  0.0208 -0.0568
28094W        W44941  14.817  18.007   5.797 -0.3455  0.0312 -0.0187
28095W        W44942   2.563   1.860  15.626  0.0665  0.0654  0.0069
28096W        W44943  14.327   7.956   0.753  0.0211 -0.3794  0.0420
28097W        W44944  11.235   5.982   3.369 -0.0376  0.0960  0.4544
28098W        W44945   6.134  16.176   2.514  0.0713 -0.4473 -0.1836
28099W        W44946   7.940   2.829   3.402  0.1000  0.0450 -0.1676
28100W        W44947   5.136  10.614   1.504 -0.0806  0.3038 -0.2599
28101W        W44948   2.611  17.622   3.532  0.3784  0.1680  0.2184
28102W        W44949  14.046  15.700   2.400 -0.0364  0.2189  0.1212
28103W        W44950  11.591   2.429   2.979 -0.1404 -0.0066  0.0216
28104W        W44951  12.681  10.262   3.818  0.1717  0.4147 -0.1010
28105W        W44952   5.177  16.143   5.467 -0.2336 -0.0281  0.2370
28106W        W44953  13.011  13.008  14.554  0.0521 -0.0286 -0.1471
28107W        W44954  17.080   2.621  14.157  0.0380  0.1376 -0.0801
28108W        W44955   6.492  13.443  12.073  0.0974  0.0812  0.1435
28109W        W44956  11.375   2.742  12.793 -0.0645 -0.0732  0.3129
28110W        W44957   1.667   2.591   3.998  0.0962 -0.1651  0.4287
28111W        W44958   6.959   2.618   4.704 -0.0531  0.2962  0.2584
28112W        W44959   7.111  14.046   3.228  0.1509 -0.2883  0.2255
28113W        W44960   5.764   3.727   0.668 -0.0531  0.1702  0.3787
28114W        W44961   9.330   4.793   3.353 -0.0968 -0.2418  0.0805
28115W        W44962  16.659  16.440   3.597 -0.0935 -0.0182  0.2336
28116W        W44963   1.693   5.046   3.530 -0.1817  0.2817  0.1637
28117W        W44964  15.713  17.278  12.732 -0.2276 -0.3043  0.1463
28118W        W44965  12.538   9.535   4.818 -0.2265  0.2376  0.0504
28119W        W44966   8.638  17.836  14.694 -0.1701 -0.5421 -0.0450
28120W        W44967  15.225   4.209  13.179 -0.0553  0.0487 -0.1445
28121W        W44968   2.851   8.471   3.983 -0.2144 -0.0081 -0.0399
28122W        W44969   2.967   0.030   4.336  0.2213 -0.2396  0.1767
28123W        W44970   9.549   2.461  11.524  0.2821  0.1598 -0.0523
28124W        W44971  17.049  12.218   3.357 -0.0076  0.0839 -0.2854
28125W        W44972  10.674   7.924  14.909 -0.1498 -0.2095 -0.0675
28126W        W44973   1.685   8.729   1.490 -0.0012 -0.0411 -0.1885
28127W        W44974  16.329   6.384   0.952  0.0562  0.0985 -0.3048
28128W        W44975   2.346   3.171  16.034 -0.0653  0.1354 -0.2653
28129W        W44976  17.813  10.912  13.884 -0.1153  0.2220  0.1629
28130W        W44977   4.239   3.585   0.808  0.0775 -0.2597  0.3912
28131W        W44978   1.409   1.155  11.533 -0.1950 -0.1325 -0.2740
28132W        W44979  18.141   5.602  13.717 -0.0508  0.1136 -0.5328
28133W        W44980   7.909  13.858  13.201  0.2347 -0.2692  0.1253
28134W        W44981   1.997  17.570  12.403 -0.0001  0.0176  0.0313
28135W        W44982  12.559  11.931  11.820  0.1218  0.1000  0.0387
28136W        W44983  12.478  11.242   6.138  0.1976  0.2554  0.0893
28137W        W44984   7.021   4.836   4.201  0.2530  0.1268 -0.0878
28138W        W44985  12.278  13.767   5.312  0.0856 -0.2442 -0.1007
28139W        W44986  18.264   0.164   6.023  0.0479  0.2979 -0.1011
28140W        W44987  12.637   3.608   1.499  0.0354  0.0872  0.4003
28141W        W44988  16.981   1.512  12.096 -0.0307  0.0292 -0.2250
28142W        W44989   3.794   4.298  15.523 -0.1536  0.0567  0.0866
28143W        W44990   8.952   7.540  13.217  0.0616  0.0961  0.0906
28144W        W44991   1.106  17.571  12.272  0.0110 -0.3083 -0.1435
28145W        W44992   0.319  11.651  15.766  0.2084  0.0401 -0.0344
28146W        W44993  13.238   1.009  15.279 -0.0027  0.2446 -0.1808
28147W        W44994  16.520   0.684   5.238 -0.1257 -0.1137  0.4335
28148W        W44995   4.993  16.129  15.826 -0.2832  0.0854 -0.0389
28149W        W44996   6.868   6.424   2.186 -0.0624 -0.1682  0.1087
28150W        W44997   5.870  12.797   3.560 -0.0732 -0.1701  0.0733
28151W        W44998  12.453   6.252  10.693 -0.0968 -0.0524  0.2224
28152W        W44999  18.163   6.371   1.137 -0.0403 -0.0418 -0.0143
28153W        W45000  10.905   8.506   2.286 -0.0365  0.2913  0.2611
28154W        W45001   3.438   6.793  15.706  0.2154  0.1800  0.1386
28155W        W45002   6.057   3.870   3.092  0.2178  0.0473  0.3234
28156W        W45003   3.779   5.029  10.912  0.6302 -0.2769 -0.0545
28157W        W45004   8.061  11.458  15.122 -0.2283  0.0769 -0.0351
28158W        W45005  10.238  11.810  11.525 -0.0427 -0.3156  0.1754
28159W        W45006   1.870  17.948   4.969  0.0073  0.1029 -0.1070
28160W        W45007   4.010  17.951  13.947  0.1750 -0.0756  0.2106
28161W        W45008  12.780   5.981   0.694  0.1483 -0.1143 -0.3168
28162W        W45009  13.010   9.739  11.878 -0.0655  0.2145 -0.2121
28163W        W45010  18.127   3.273  10.637 -0.0153  0.4254 -0.1250
28164W        W45011   3.056   6.001  11.093  0.2839  0.0550  0.0622
28165W        W45012  16.147   5.661  13.502  0.3132 -0.0901 -0.3127
28166W        W45013  15.996   7.159  14.011  0.0387 -0.1192  0.4610
28167W        W45014   5.821  13.369  15.701  0.1206 -0.1771 -0.1627
28168W        W45015  14.045  13.418  15.622 -0.0788  0.0007  0.0608
28169W        W45016   3.789   7.230  11.616  0.3109 -0.1811  0.0511
28170W        W45017  13.717  17.305   0.876 -0.0523  0.4333 -0.3323
28171W        W45018   5.521   6.213   2.727 -0.2985  0.0958  0.0560
28172W        W45019  12.945  12.630  14.877 -0.0394 -0.0841 -0.2781
28173W        W45020   5.648  13.287  12.828 -0.0576 -0.0163  0.0895
28174W        W45021   3.994   9.522   4.813  0.0286  0.0477  0.0408
28175W        W45022  17.268   1.941   3.804  0.1913 -0.1853 -0.1398
28176W        W45023   2.540  16.949  11.505  0.0472 -0.1158 -0.2006
28177W        W45024  13.137   0.589   1.359  0.0264 -0.0176 -0.3118
28178W        W45025   0.914  11.394   3.979 -0.4833  0.0545 -0.0643
28179W        W45026   4.945   7.753  12.739  0.0212 -0.2123  0.0786
28180W        W45027   0.495  15.141   4.195 -0.0971  0.0914 -0.1990
28181W        W45028   3.223  12.270  11.846  0.0510 -0.1310 -0.0539
28182W        W45029   9.245   1.960  11.846  0.1251  0.2403 -0.2371
28183W        W45030   2.596  13.147   3.119  0.0537 -0.0437 -0.1219
28184W        W45031   7.994   3.730  11.448  0.1408 -0.0559  0.0279
28185W        W45032  18.111   6.384   0.095 -0.3238  0.1396  0.2110
28186W        W45033  15.957  15.255   2.375  0.1403 -0.2341  0.1230
28187W        W45034  15.540  16.491   3.614 -0.2112  0.0605 -0.1719
28188W        W45035  12.843  11.551  13.734 -0.1077  0.0634  0.3059
28189W        W45036   6.944   8.351   3.147 -0.2196 -0.0473  0.0536
28190W        W45037   6.431   6.974   4.081  0.1819 -0.2251 -0.0407
28191W        W45038  18.174   4.692   3.699 -0.1025  0.1333  0.0081
28192W        W45039   5.145  13.395   2.630 -0.0470 -0.0589 -0.0141
28193W        W45040   4.888   7.097  15.925  0.0834 -0.3261  0.1583
28194W        W45041   6.350   6.848  13.642 -0.0548  0.0030 -0.1146
28195W        W45042  11.738  14.248   3.717 -0.1027  0.0496  0.0757
28196W        W45043   6.496  15.392   2.077 -0.4742  0.1593 -0.0544
28197W        W45044   4.135   3.352  15.622  0.0677  0.0670 -0.2240
28198W        W45045   4.313  18.106  12.402  0.2199  0.2936  0.1338
28199W        W45046  14.429   4.178  15.583 -0.1998 -0.0617 -0.0575
28200W        W45047  15.032   3.461   5.021 -0.4036 -0.3252  0.2844
28201W        W45048   6.361  15.634  15.537 -0.2395  0.1620  0.0643
28202W        W45049   7.232   0.833  11.980  0.0983 -0.2857  0.3358
28203W        W45050   1.473   6.017  13.842 -0.0020 -0.2067  0.0780
28204W        W45051   7.862  17.149   0.763  0.1964  0.0752 -0.2356
28205W        W45052   7.958   2.302  10.575  0.0221 -0.3500 -0.3295
28206W        W45053  10.060  17.701   2.419 -0.1474  0.1567 -0.2288
28207W        W45054   9.153   2.249  14.418  0.0497 -0.0423 -0.2099
28208W        W45055   5.094  13.360  16.277 -0.0483  0.0466 -0.3591
28209W        W45056   6.878  13.038  11.939 -0.1894 -0.2720  0.1333
28210W        W45057   9.673   3.416  11.681 -0.0793  0.2524  0.1179
28211W        W45058  11.025   4.188   4.134 -0.2133 -0.0416  0.0915
28212W        W45059  17.524   2.437   4.547  0.0932  0.4221 -0.0509
28213W        W45060  15.806  16.784   0.565 -0.0376 -0.2252  0.2721
28214W        W45061   2.426  16.769   4.112 -0.2568 -0.3271 -0.0736
28215W        W45062   8.109  12.072   0.166  0.2770  0.0380  0.2855
28216W        W45063  18.199  17.592   2.039  0.0364  0.0967 -0.3665
28217W        W45064  10.793   4.877  15.535  0.3608 -0.3344 -0.2260
28218W        W45065  10.812  15.677  16.167 -0.0031 -0.1289 -0.3990
28219W        W45066  17.634   9.989  12.910  0.4212 -0.1306  0.0633
28220W        W45067   4.814   0.970   0.644 -0.2109  0.0244  0.3594
28221W        W45068   8.860  12.845   2.383  0.2558  0.0604 -0.1199
28222W        W45069   0.364   8.575   0.629 -0.3184  0.1570  0.0256
28223W        W45070  16.257  17.763   0.312 -0.0623 -0.1169  0.2363
28224W        W45071   2.449   0.914   4.151  0.0912 -0.3825  0.2490
28225W        W45072   5.617   9.215   2.762 -0.1795 -0.0051 -0.1858
28226W        W45073   2.131   7.932   2.015  0.0827 -0.1581 -0.1894
28227W        W45074  17.276  15.612  11.315  0.0201 -0.0099  0.0388
28228W        W45075  16.988  16.413   2.554 -0.0818  0.1497 -0.1984
28229W        W45076  14.414  10.599  13.066 -0.2500  0.1151  0.1034
28230W        W45077   1.683   5.835  16.349 -0.1000 -0.4324  0.3430
28231W        W45078   1.459   6.664   1.489  0.3697 -0.1308 -0.3882
28232W        W45079  16.288  16.048   0.605 -0.3682  0.0073 -0.0390
28233W        W45080   1.863   3.692  11.882  0.0268 -0.0750 -0.0372
28234W        W45081   6.865  13.789  14.329  0.2040 -0.1525  0.3186
28235W        W45082   8.687  11.626   2.339 -0.1981  0.0892 -0.1552
28236W        W45083   6.698   1.208  16.285  0.1057 -0.4309  0.0377
28237W        W45084  11.730   1.893   3.708 -0.2986 -0.0607  0.1518
28238W        W45085   5.409  12.349   1.844 -0.0034 -0.1897 -0.3190
28239W        W45086  14.974  15.390   0.363  0.1327 -0.1808  0.2470
28240W        W45087  14.666   6.769  14.961  0.1383  0.2018 -0.1230
28241W        W45088   3.257  16.510  15.043 -0.1538  0.1457 -0.1936
28242W        W45089   0.150   2.302  15.245  0.2199  0.0890 -0.0795
28243W        W45090   1.244  10.197  16.046  0.3619  0.0357  0.0332
28244W        W45091  16.579  13.944  15.605 -0.2917 -0.1052  0.4006
28245W        W45092  17.332   8.469  15.331 -0.3610 -0.0496  0.1808
28246W        W45093   6.133  15.911   5.406  0.0672  0.2003  0.1734
28247W        W45094  10.509   0.434  16.354 -0.0881  0.0384 -0.0531
28248W        W45095  18.239   7.739  13.559  0.2496  0.1076  0.4544
28249W        W45096  16.368   7.072   3.956  0.0655 -0.2143  0.0216
28250W        W45097   0.608   4.748  14.373  0.2224 -0.0166 -0.1408
28251W        W45098  17.812  16.943   0.922 -0.0889  0.1571 -0.1807
28252W        W45099  13.490   2.750   3.377 -0.1412 -0.1393 -0.0150
28253W        W45100   5.216   3.507   1.954 -0.3857  0.4651  0.0328
28254W        W45101  12.885   9.928   2.827  0.0384 -0.0553 -0.0874
28255W        W45102  17.001   9.122  14.193 -0.2395  0.2191  0.0676
28256W        W45103  15.474   9.349   3.943  0.0388  0.0464 -0.4214
28257W        W45104  13.377   6.147  13.106  0.0347  0.1930  0.2425
28258W        W45105   3.427  10.416  14.303 -0.0494  0.3119 -0.3492
28259W        W45106   6.733  18.013   1.019 -0.0653 -0.4482  0.4109
28260W        W45107   8.489  16.858   4.831  0.1772  0.1982 -0.0260
28261W        W45108  16.814   2.089   2.164  0.0673  0.0421 -0.1808
28262W        W45109  12.596  12.952   1.376 -0.1077 -0.0883  0.2179
28263W        W45110  16.205   2.129  14.919 -0.1158 -0.1398 -0.5469
28264W        W45111  10.568   6.183   0.610 -0.2538 -0.0182 -0.3614
28265W        W45112   8.356   9.250  12.247 -0.0129 -0.2742  0.2494
28266W        W45113  10.938  13.796   0.957  0.0831  0.0695 -0.1598
28267W        W45114   0.528   8.200  14.214  0.1913 -0.2723  0.1617
28268W        W45115   6.674   0.758   4.972  0.2070  0.0501  0.0529
28269W        W45116  13.213   2.945  12.139  0.1142 -0.1354 -0.1359
28270W        W45117   1.985   0.876  14.159 -0.0920  0.1981 -0.2406
28271W        W45118  10.147  11.356  13.409 -0.2364 -0.1303 -0.2541
28272W        W45119   0.612  16.877  14.054  0.0958 -0.1262  0.0678
28273W        W45120   1.245   7.409   4.854  0.4704  0.0133  0.1859
28274W        W45121  17.705   2.030  15.088  0.1215 -0.1086 -0.3707
28275W        W45122   2.858   4.222   2.986 -0.0223  0.1881 -0.0367
28276W        W45123   5.305   0.683   0.949 -0.3081 -0.0459 -0.2653
28277W        W45124  11.232  16.567  14.796  0.1183  0.0770 -0.1299
28278W        W45125   0.027   1.269  11.804  0.0711  0.2775 -0.0817
28279W        W45126  16.149   3.755  14.031  0.1419 -0.0929  0.1143
28280W        W45127  10.859   2.430   6.027 -0.1484  0.2263 -0.2521
28281W        W45128  16.173  11.529   5.201  0.2162 -0.1942  0.0966
28282W        W45129   8.988   9.699   5.601 -0.2376  0.0756 -0.0077
28283W        W45130  14.740   2.944   4.365  0.1937  0.0051  0.2467
28284W        W45131   1.231  10.184  13.436  0.0043  0.1927  0.3944
28285W        W45132   0.161  14.047  13.315  0.0818  0.1655 -0.0736
28286W        W45133  10.756   0.621  11.713 -0.0364  0.0232  0.2106
28287W        W45134   6.834  13.874   5.398  0.1727  0.1235  0.3037
28288W        W45135  15.155   2.167   1.536  0.0392  0.4235  0.0952
28289W        W45136  16.698  10.429   0.957  0.2480  0.0627 -0.1506
28290W        W45137  10.017  17.418  12.718  0.0837 -0.2186 -0.3727
28291W        W45138   8.327  16.955  12.520 -0.0497 -0.1109 -0.0436
28292W        W45139   7.972  16.786  16.280  0.3436  0.3074  0.4127
28293W        W45140   6.717  16.419   4.068 -0.1209 -0.2004 -0.0735
28294W        W45141   5.623   1.753   0.545 -0.0929  0.0722 -0.3257
28295W        W45142   6.247  16.860   2.069  0.0657  0.1048  0.2672
28296W        W45143   4.369   1.732  12.344 -0.4825  0.1080 -0.0648
28297W        W45144  11.814  13.900  13.031  0.0990 -0.5242  0.2730
28298W        W45145  13.906   4.078   3.755  0.3381  0.0746  0.3345
28299W        W45146   2.621  15.834   5.812  0.0258 -0.0994  0.2461
28300W        W45147  18.026   7.135   5.605  0.0252 -0.0513  0.0420
28301W        W45148   2.288   8.718  14.251 -0.0264  0.0358 -0.1028
28302W        W45149  15.296   0.519   0.170 -0.5523 -0.2668  0.0007
28303W        W45150  13.791   1.645   2.149  0.1491 -0.1922  0.1691
28304W        W45151   9.235  13.791  13.473 -0.1553  0.0828 -0.1122
28305W        W45152   8.162   1.245   0.716  0.1911 -0.0229  0.1685
28306W        W45153   3.870   2.701   2.822  0.0278  0.1597 -0.1168
28307W        W45154  14.203  15.876  13.581 -0.0572 -0.1731 -0.2271
28308W        W45155   7.457   9.437   1.278  0.0146  0.0208 -0.0680
28309W        W45156  12.387   4.967  14.708  0.1651 -0.3551 -0.1483
28310W        W45157  13.912  16.230   2.459 -0.2078  0.2579  0.0623
28311W        W45158   1.657  13.077  13.368 -0.1646 -0.3622 -0.1972
28312W        W45159  12.865  16.444  12.898 -0.0574  0.1540  0.1285
28313W        W45160   1.099   9.130   0.629 -0.0005 -0.5235 -0.0968
28314W        W45161  11.996   9.752   4.037  0.2078 -0.1989  0.1762
28315W        W45162   0.363   6.105  15.229 -0.2588 -0.2327 -0.1823
28316W        W45163   7.918   9.013  13.326  0.1371 -0.2675 -0.0801
28317W        W45164   7.261   5.183   3.358 -0.1394  0.2103  0.3913
28318W        W45165  17.030   9.199   0.323  0.1559 -0.0310 -0.2094
28319W        W45166  12.039   2.517   0.274 -0.1619  0.0526 -0.2371
28320W        W45167  15.332   4.752  15.085 -0.2471  0.0833  0.0664
28321W        W45168   1.485  13.361   4.126 -0.0149 -0.1396 -0.0266
28322W        W45169   5.306   5.476  11.262 -0.2263  0.1674 -0.1325
28323W        W45170   9.039  18.390  14.034  0.1170 -0.1150  0.0963
28324W        W45171   6.996   3.823  10.228  0.0905 -0.0808  0.2498
28325W        W45172  14.625   8.897  12.143  0.0800 -0.0563 -0.1458
28326W        W45173   8.696  15.445   5.448 -0.0428 -0.1065  0.0789
28327W        W45174   2.893   1.169  13.406  0.0271 -0.0589  0.4072
28328W        W45175   4.864   9.695   0.166  0.1232  0.0002  0.2334
28329W        W45176  12.701  14.690  15.562  0.0152 -0.0774  0.3113
28330W        W45177   9.509   6.734   4.866 -0.2371  0.0807 -0.1706
28331W        W45178   4.139   3.711  10.886 -0.4723 -0.0102 -0.1438
28332W        W45179   5.374   4.688   1.652  0.2431  0.0297  0.0894
28333W        W45180  14.475  10.486   1.604 -0.3026 -0.2907  0.0190
28334W        W45181   6.794   5.152  15.348 -0.0737 -0.2234  0.0746
28335W        W45182   4.942  10.535  11.180  0.3727  0.0911 -0.0367
28336W        W45183   7.891   1.988  13.746  0.1006  0.0236 -0.1934
28337W        W45184   0.753   2.472  15.382 -0.0474  0.1798  0.2941
28338W        W45185  11.692   7.864   1.458  0.1013 -0.0066 -0.0116
28339W        W45186   3.634  11.038   2.158 -0.2070 -0.5354  0.1167
28340W        W45187  15.876   6.176   3.305 -0.1634  0.1825  0.1459
28341W        W45188  11.391  11.018  12.838 -0.0384  0.1090 -0.1502
28342W        W45189  13.036  10.702   0.078  0.1248  0.0346 -0.0281
28343W        W45190   5.701   3.427   0.260 -0.4304  0.1778  0.0945
28344W        W45191  18.360   8.602   3.252 -0.0324 -0.2588  0.0165
28345W        W45192   5.301  13.933   1.680  0.3080  0.0856 -0.0611
28346W        W45193  11.341   5.522   0.836 -0.0010  0.1249  0.1566
28347W        W45194  16.944  14.788  11.315 -0.0799 -0.6387 -0.2697
28348W        W45195  15.899   0.615  12.238  0.1615 -0.0193  0.1704
28349W        W45196  14.354   7.625   1.190  0.3216 -0.1912 -0.1766
28350W        W45197  12.333   5.946   5.225 -0.1966  0.3112  0.0795
28351W        W45198   1.113  14.865   6.197  0.0073  0.1231 -0.2325
28352W        W45199  10.571   9.485   2.359 -0.1104  0.0954 -0.0110
28353W        W45200  15.265   5.172   3.767  0.1978 -0.1266  0.4405
28354W        W45201   4.904   9.357  13.144 -0.4120 -0.1480  0.2464
28355W        W45202  16.398  17.043   0.689  0.1402  0.0236 -0.2319
28356W        W45203   5.581  13.032   5.540  0.0793  0.0018  0.0556
28357W        W45204   3.809   4.331   0.083 -0.0081  0.0047  0.0668
28358W        W45205   6.762  11.684  14.663 -0.1757 -0.0040  0.1722
28359W        W45206   9.790   5.483  12.086 -0.0998 -0.0590  0.2670
28360W        W45207  14.198   7.284   1.564 -0.1518 -0.0620  0.0656
28361W        W45208  16.361   2.861  12.980  0.0183 -0.2336  0.2333
28362W        W45209   0.671  18.259   2.927  0.0775  0.0249 -0.3183
28363W        W45210   5.866   9.266   2.343  0.0649  0.1699 -0.1642
28364W        W45211  11.906   8.175  13.490  0.3011 -0.0715  0.1341
28365W        W45212  14.753   7.559  14.248 -0.0232  0.1124  0.1329
28366W        W45213   0.504   8.784  11.663 -0.2195 -0.0366 -0.0347
28367W        W45214  11.632   7.175  14.290  0.0112  0.0259  0.2290
28368W        W45215  18.125  16.281   4.725 -0.0057  0.0099 -0.3857
28369W        W45216   1.206  13.823   3.965  0.1021 -0.1680  0.0445
28370W        W45217   6.221   1.702  12.267 -0.2471 -0.0010 -0.1690
28371W        W45218  14.742   6.099  14.060  0.1562 -0.2425 -0.2652
28372W        W45219   9.195   0.833  16.175  0.1109  0.1836 -0.1129
28373W        W45220  17.180   2.327   4.198  0.0342 -0.0616 -0.0006
28374W        W45221   6.343  16.951  13.330 -0.2799  0.1411 -0.1558
28375W        W45222   4.289  16.730  12.863 -0.1642 -0.0276 -0.1802
28376W        W45223   7.080  10.375   4.144 -0.1685  0.1386 -0.2224
28377W        W45224  16.927   7.918   5.474  0.0393 -0.0379 -0.0441
28378W        W45225   5.479  12.888  14.528  0.0576 -0.0309  0.2831
28379W        W45226   0.401  11.564   1.513 -0.2493 -0.3582 -0.0490
28380W        W45227  16.211   5.724  10.591  0.2399  0.2979  0.3491
28381W        W45228   5.719  12.004  15.445  0.1362 -0.0671 -0.1330
28382W        W45229   0.831   8.546   3.303  0.0565 -0.1662 -0.0263
28383W        W45230  11.730  12.887  12.686 -0.0878 -0.2864  0.0190
28384W        W45231   6.817   1.164  15.831  0.0201  0.2575  0.3012
28385W        W45232  15.797  17.228   2.962  0.4644  0.2265 -0.1330
28386W        W45233   1.859   1.419  16.120  0.0837 -0.2010  0.2950
28387W        W45234  17.516  10.143   3.182  0.3823  0.1347  0.4730
28388W        W45235   6.145  17.822  11.165 -0.1292 -0.0533  0.0663
28389W        W45236  16.142  12.794  11.931  0.2331 -0.0315 -0.0019
28390W        W45237   0.666   6.804  13.112 -0.0092 -0.1790 -0.0089
28391W        W45238   2.380   6.825  16.147 -0.1733  0.2713 -0.1195
28392W        W45239   8.091   1.108   1.621  0.3419 -0.0736 -0.3453
28393W        W45240  17.791  17.935  13.652  0.0327 -0.1769  0.0878
28394W        W45241   9.423  10.157  15.771  0.2680 -0.0687  0.2110
28395W        W45242   1.293   8.725  15.940 -0.1046 -0.2443  0.1277
28396W        W45243  11.314   6.818  14.642 -0.0686 -0.2176  0.4890
28397W        W45244   1.332  12.169   5.173 -0.2934  0.2220  0.1875
28398W        W45245  16.385  10.427  15.782  0.0543  0.2595  0.4050
28399W        W45246   6.659  12.779   5.465  0.1117 -0.2811 -0.1483
28400W        W45247   5.282  15.923   2.712  0.2235 -0.2242 -0.1003
28401W        W45248   0.628  10.846  11.847 -0.0070  0.1071  0.1345
28402W        W45249   9.699  15.557   3.806 -0.0617  0.1082  0.0303
28403W        W45250  11.154  17.865  14.850  0.0946  0.0271 -0.0871
28404W        W45251  12.709   2.611   2.331 -0.0128 -0.2704 -0.0781
28405W        W45252  10.442  14.625  16.311 -0.4124  0.0176  0.0942
28406W        W45253   1.226   7.373   2.946  0.2395  0.1391 -0.0590
28407W        W45254   3.396   6.612  13.802 -0.1474 -0.1646 -0.2636
28408W        W45255   8.290   0.441   4.295  0.0247  0.2189  0.0790
28409W        W45256  10.822  12.462  12.468  0.0435 -0.3006 -0.0385
28410W        W45257   1.742   4.015  10.728  0.0290 -0.1234 -0.2034
28411W        W45258   6.467  12.448   1.066 -0.0910  0.2115 -0.0178
28412W        W45259   9.084   4.426  13.911  0.0800 -0.0118 -0.2753
28413W        W45260   5.541   5.573   3.457 -0.2820  0.2165 -0.0307
28414W        W45261  11.149   7.262  13.578  0.2159  0.1193 -0.4805
28415W        W45262  13.938   6.690   0.201  0.0699 -0.3121  0.0551
28416W        W45263   3.871  17.799  14.453 -0.2582 -0.2814 -0.1407
28417W        W45264   7.362  18.363  11.720  0.1587 -0.1449  0.1080
28418W        W45265  11.640   1.389   4.895  0.0352 -0.1604  0.2176
28419W        W45266  12.742  12.527   1.572  0.0212  0.0422 -0.2578
28420W        W45267  16.569  14.917  15.697  0.1720  0.0079  0.0200
28421W        W45268   4.563  13.088  14.203 -0.2781  0.2175  0.0357
28422W        W45269  13.124   7.547  14.262  0.0823  0.0543  0.1181
28423W        W45270  15.591   5.488   9.879  0.2457  0.0389 -0.1054
28424W        W45271  12.944   9.619  14.661  0.3783  0.0654  0.0129
28425W        W45272   1.886   8.398  11.286  0.3026 -0.4034  0.3420
28426W        W45273   1.010   4.550  12.258 -0.2135 -0.1407 -0.1750
28427W        W45274  18.322   5.537  14.675  0.0964  0.1438  0.1011
28428W        W45275   1.014   6.037   0.571 -0.2266  0.0570 -0.3504
28429W        W45276  15.998  17.438  13.860 -0.3586  0.1947  0.1946
28430W        W45277  12.724   1.986   5.053  0.0794 -0.0196 -0.1443
28431W        W45278   5.594   8.199  12.340 -0.1240 -0.0748  0.1454
28432W        W45279  16.565   0.424  14.372  0.2885 -0.1074  0.0841
28433W        W45280  14.285  10.454   5.425 -0.1627  0.2282  0.2496
28434W        W45281  14.399  10.129   3.587 -0.2544 -0.2099  0.1030
28435W        W45282  10.859  10.212   6.023 -0.0467 -0.3327  0.2951
28436W        W45283   2.655  10.781  11.478  0.1770 -0.0342  0.2045
28437W        W45284   3.646   2.884  14.590 -0.0092  0.1817 -0.1213
28438W        W45285  18.126   0.213   2.569 -0.0434 -0.0353 -0.0554
28439W        W45286  18.100   2.452  11.072  0.2562 -0.0414 -0.0836
28440W        W45287   7.607   1.585  12.326 -0.2169  0.0693  0.2192
28441W        W45288   9.317   3.152   1.550  0.2223  0.0022 -0.3731
28442W        W45289   0.099   1.977  13.166  0.1559 -0.0420  0.3223
28443W        W45290   4.810   8.741   1.708  0.0753  0.3921 -0.0169
28444W        W45291  12.886   8.828  11.927  0.0407  0.1139 -0.1328
28445W        W45292  11.899  16.260   0.304 -0.2813  0.0550 -0.2430
28446W        W45293  13.305   0.127   3.830  0.2708 -0.0895  0.1126
28447W        W45294  14.233  15.479  15.169 -0.3118  0.0899  0.0426
28448W        W45295   6.975  12.216   5.516 -0.3322 -0.0307 -0.2830
28449W        W45296  17.562  10.981  12.878 -0.0631 -0.1347 -0.2607
28450W        W45297   3.573   7.585  13.971 -0.0512  0.2878 -0.0408
28451W        W45298   8.751   6.783   0.663 -0.0620 -0.5487  0.0344
28452W        W45299   6.031  12.348   1.757 -0.3696 -0.3407 -0.0872
28453W        W45300  17.379  12.354   2.223  0.2536  0.0108  0.2157
28454W        W45301  12.829   3.422  14.832  0.1327  0.2330  0.0410
28455W        W45302   7.996  13.500   4.901 -0.3494  0.0191 -0.2315
28456W        W45303  11.519   9.604   0.174 -0.1488  0.0725 -0.0039
28457W        W45304   7.835  15.551   3.826 -0.1004 -0.3557 -0.3804
28458W        W45305  17.031   2.770   2.816 -0.1627  0.0682  0.0516
28459W        W45306  16.570   7.922  15.028  0.0121 -0.1047  0.0065
28460W        W45307   8.323   1.101  12.690  0.0628  0.2049  0.1045
28461W        W45308   4.895   6.280   3.520  0.1493  0.1536  0.1004
28462W        W45309  16.423   7.763  10.890  0.1316  0.1427 -0.1495
28463W        W45310  17.442   4.323   5.405  0.2681  0.1905  0.0007
28464W        W45311   0.008  16.114  15.244  0.0500 -0.0390 -0.1627
28465W        W45312   0.872   8.638   0.381  0.2959  0.0422  0.0812
28466W        W45313   3.242   6.228  16.310  0.1391  0.3278 -0.0372
28467W        W45314   3.122  11.822   3.966  0.0880  0.0022 -0.1624
28468W        W45315  12.743   1.333  15.364  0.1604 -0.1516  0.0658
28469W        W45316  16.886  16.627  12.037  0.0917 -0.1822 -0.0092
28470W        W45317   5.067   3.500  13.920 -0.1111  0.4528  0.2029
28471W        W45318  17.593   2.264   1.165 -0.0283 -0.2722  0.0604
28472W        W45319   9.864  14.113  14.124  0.0232  0.1676 -0.2817
28473W        W45320   0.648   1.928  15.287  0.2933  0.2441  0.1897
28474W        W45321  10.888  14.744   4.057  0.0545  0.1347 -0.1542
28475W        W45322   7.234  14.486   1.538  0.1458 -0.0884 -0.2916
28476W        W45323  14.049  11.340   5.439 -0.3298 -0.1069 -0.1015
28477W        W45324  15.377   1.475   2.287 -0.0026 -0.2769 -0.1014
28478W        W45325   9.548   5.879   2.501 -0.1124 -0.5204  0.1919
28479W        W45326   1.220   6.455   3.745  0.1041  0.2260 -0.0077
28480W        W45327  14.004   6.239  11.383 -0.3087  0.1202  0.2547
28481W        W45328  14.665  15.805   0.738  0.0796 -0.1332 -0.2760
28482W        W45329  12.009   1.844  14.307  0.0665  0.1052  0.0290
28483W        W45330   8.580   4.602  14.115 -0.1334 -0.1842  0.0458
28484W        W45331   7.834   3.265  14.514 -0.0754  0.1604 -0.1024
28485W        W45332  17.724   9.679  11.452 -0.0425  0.2866 -0.2472
28486W        W45333   6.415  17.550   0.060  0.0936 -0.1460  0.0774
28487W        W45334   3.924  11.409  12.150  0.0657 -0.0458  0.1708
28488W        W45335  12.553  12.624   6.324 -0.0079  0.1363  0.0601
28489W        W45336   4.177  10.277   0.035 -0.3087 -0.1623 -0.0833
28490W        W45337  13.284   7.880  16.315 -0.0151  0.0524  0.0417
28491W        W45338  12.507  10.319  15.527 -0.0451  0.3797 -0.1076
28492W        W45339   1.852  15.647   4.756 -0.1991  0.1532  0.0268
28493W        W45340   8.792  17.917  13.654  0.0098  0.0460 -0.1614
28494W        W45341  16.063  15.546  14.531 -0.0342  0.1404  0.0880
28495W        W45342   9.487  12.977  16.211  0.2354  0.1323  0.0087
28496W        W45343   3.414  17.846   3.256  0.0793  0.0494 -0.0727
28497W        W45344   8.526   4.555   0.193 -0.0411  0.2637 -0.1152
28498W        W45345   1.030   4.482  14.250 -0.3009 -0.1899  0.0212
28499W        W45346  13.857   0.975  12.873  0.1636 -0.3328  0.0028
28500W        W45347   7.236   9.480   0.826  0.2801 -0.0118  0.0813
28501W        W45348   7.535   5.960  12.973  0.0565  0.1493  0.1637
28502W        W45349  18.159  16.686  13.958 -0.1055 -0.2291  0.0781
28503W        W45350   2.960   5.102  10.612  0.0216 -0.0260  0.0812
28504W        W45351  13.244  13.052   0.776 -0.1437  0.1479 -0.0665
28505W        W45352  12.442  13.871   1.619  0.0434  0.1778 -0.0644
28506W        W45353  13.938   7.669  13.857  0.2329  0.1857 -0.2037
28507W        W45354  13.057  13.380  15.947  0.1755 -0.3101  0.0866
28508W        W45355  16.797  10.465  12.129  0.2104 -0.1144  0.0001
28509W        W45356   0.044  12.551  13.029 -0.0581  0.0213 -0.0286
28510W        W45357  13.858  11.807   3.817 -0.0970 -0.0682  0.3097
28511W        W45358   0.002   5.032   0.336 -0.0494  0.1732  0.3564
28512W        W45359  15.207   7.097  13.856 -0.1678  0.0056  0.1866
28513W        W45360  16.417   7.504   0.239 -0.1885 -0.0449 -0.1498
28514W        W45361  12.156   1.983  15.795  0.0916 -0.2318 -0.0289
28515W        W45362  16.473   6.641  15.086  0.0504 -0.1925  0.2461
28516W        W45363  12.794  13.107  12.053  0.1874  0.1654 -0.0215
28517W        W45364  14.536  13.970   5.397  0.1761  0.2517 -0.1984
28518W        W45365  12.052   1.356  13.090 -0.1258 -0.0747 -0.4578
28519W        W45366   7.122  16.397   4.356 -0.4111 -0.0347  0.1544
28520W        W45367  16.236   3.200   0.227  0.0156 -0.1395  0.1998
28521W        W45368   7.071  14.421   4.210 -0.0033  0.3375 -0.0582
28522W        W45369   7.782   1.563   0.766  0.1444  0.0084  0.1431
28523W        W45370   3.078  12.998  15.250 -0.0568  0.0145  0.1669
28524W        W45371   7.253  14.112   1.868 -0.1106  0.1011 -0.0877
28525W        W45372  18.324  12.412  12.301 -0.5055  0.0807 -0.4231
28526W        W45373   6.786  11.093   4.506  0.2102 -0.1570  0.0205
28527W        W45374   8.832   5.482   5.495 -0.2134  0.1607  0.7065
28528W        W45375   6.848   3.935   4.422 -0.0105  0.0600 -0.1062
28529W        W45376   0.490   7.847  11.618 -0.1653 -0.0177 -0.1551
28530W        W45377  10.436   5.142  10.708  0.0546 -0.0902  0.1421
28531W        W45378   2.281   2.683  16.333  0.2362 -0.0873  0.2911
28532W        W45379  16.936   7.455   3.898  0.0974  0.2765  0.1071
28533W        W45380   2.791   6.806   3.110 -0.1028  0.2403  0.2915
28534W        W45381   1.453  15.823   5.369 -0.1314 -0.3119 -0.0381
28535W        W45382   7.646   6.511  12.296  0.1249 -0.1354 -0.0217
28536W        W45383   4.228  16.614  14.795  0.1782  0.2377 -0.2911
28537W        W45384   5.197  10.752  13.429 -0.2848 -0.0073 -0.0064
28538W        W45385   7.335  18.150  10.983 -0.2727 -0.0107  0.2683
28539W        W45386  12.931   9.350  11.335 -0.2836  0.0899  0.1881
28540W        W45387   8.430  14.898  16.159  0.5766 -0.1704 -0.2563
28541W        W45388   5.504  16.549   3.333 -0.1521 -0.0035  0.5649
28542W        W45389  10.552  10.976  12.159  0.0254 -0.0094  0.2398
28543W        W45390  13.008   6.807  13.767  0.1396  0.1039 -0.0219
28544W        W45391  10.716   8.367  15.148  0.1402 -0.3734 -0.1049
28545W        W45392   9.572  10.243   2.549  0.0113  0.1016 -0.0944
28546W        W45393  12.668   8.644  15.627 -0.0974  0.0165 -0.2678
28547W        W45394   3.667  14.070  12.624 -0.1207 -0.0006 -0.0004
28548W        W45395  11.976  16.434   1.525  0.1713  0.2840 -0.0184
28549W        W45396  15.240  14.646  12.680  0.2228 -0.0632  0.1714
28550W        W45397   5.881   1.763   2.443  0.1033  0.2744  0.0171
28551W        W45398  13.142  11.727  12.920  0.0770 -0.4044  0.2023
28552W        W45399  14.729   2.707   3.493  0.1969 -0.1154 -0.1629
28553W        W45400   1.348   8.503   5.227  0.0495  0.0665  0.0067
28554W        W45401  10.856  17.451  14.647 -0.0300  0.1386 -0.0599
28555W        W45402   3.446  11.468  14.526  0.2869  0.1094 -0.0037
28556W        W45403   3.589   9.715   1.592 -0.1781 -0.0947 -0.0255
28557W        W45404   1.851   9.757   2.678  0.2668  0.2841  0.0883
28558W        W45405  11.263   9.105   0.579  0.1102  0.0619  0.0215
28559W        W45406   6.995   5.875   5.238  0.0328 -0.3315 -0.0627
28560W        W45407   4.215   0.691   4.300 -0.0604 -0.4591 -0.2104
28561W        W45408  17.311  15.750  16.013 -0.0353  0.1157  0.4794
28562W        W45409  12.674   4.103   2.216  0.0695  0.0585  0.1347
28563W        W45410   7.188  11.038   2.755  0.1195 -0.1543  0.3791
28564W        W45411  15.628  13.872  14.409  0.2737  0.2166 -0.0888
28565W        W45412   2.486  18.331  13.063 -0.0165  0.1263  0.1070
28566W        W45413  11.406   8.761  15.490  0.0779  0.0489  0.0123
28567W        W45414  17.107  12.014   3.800 -0.2733  0.2203 -0.0184
28568W        W45415  17.567   1.144  14.160  0.1778 -0.0755  0.1329
28569W        W45416   4.900  12.962  11.844 -0.1129  0.1732 -0.3637
28570W        W45417  11.193  15.194   0.468 -0.1199  0.1392  0.0470
28571W        W45418  12.724   0.117  14.589 -0.0921  0.4391  0.0047
28572W        W45419   8.217  17.816  12.470  0.3090  0.1535  0.1357
28573W        W45420  17.905  15.790   1.849 -0.0660  0.1812  0.1550
28574W        W45421  10.354  10.599   2.586 -0.0960  0.2883  0.0878
28575W        W45422   0.287  10.889   4.960  0.2871 -0.2565  0.2172
28576W        W45423   0.725   2.821  13.105  0.1981 -0.4145  0.3160
28577W        W45424  13.696   2.871  12.314  0.2346 -0.0638  0.1706
28578W        W45425   9.892   2.127   4.260 -0.2031 -0.1550 -0.0035
28579W        W45426  17.095   6.478   3.083  0.2350 -0.0798 -0.1005
28580W        W45427  14.389  14.008   3.306  0.1747 -0.2194 -0.0978
28581W        W45428  11.188   6.334  15.337  0.1024  0.1523 -0.2183
28582W        W45429  11.234  10.509   5.501  0.1412  0.2515 -0.0310
28583W        W45430   8.951   0.309  13.629  0.2216 -0.1357  0.1197
28584W        W45431   5.770  10.246   2.502 -0.0979  0.4085 -0.2495
28585W        W45432   3.383  13.252  13.058 -0.0320  0.3610  0.3697
28586W        W45433  12.074   4.955   1.249  0.0484  0.0785 -0.1727
28587W        W45434  17.058   4.166  16.211  0.2188  0.0240  0.1077
28588W        W45435   8.294   2.474  15.595 -0.0208  0.1088  0.0389
28589W        W45436   4.501   3.474  11.420  0.2916 -0.1453 -0.0805
28590W        W45437   2.528  14.818   4.813 -0.0003  0.3578 -0.0651
28591W        W45438   1.011   6.982   1.570  0.0204 -0.0479  0.1011
28592W        W45439  12.796  14.492   1.964 -0.3003  0.1824 -0.1588
28593W        W45440   7.483  16.144   0.315 -0.0230 -0.0686  0.2534
28594W        W45441  15.702  11.225  15.721 -0.1269  0.0651  0.2991
28595W        W45442  11.588   6.907  13.366 -0.1574  0.2123 -0.0333
28596W        W45443   7.004  14.255   5.735  0.0483  0.2462  0.0361
28597W        W45444  16.808   3.786   3.792  0.1514  0.1291  0.3186
28598W        W45445  13.573   3.796  14.509  0.2114  0.0660  0.3202
28599W        W45446   7.891   3.411   3.510  0.1850 -0.1256  0.1203
28600W        W45447  13.144  15.075   3.891 -0.0451 -0.0095  0.2864
28601W        W45448   7.655   5.428   3.549 -0.0803 -0.1059 -0.0195
28602W        W45449   2.207  17.393  14.954 -0.0816 -0.5114 -0.0145
28603W        W45450  15.653   9.521   5.431 -0.0170  0.1559 -0.0147
28604W        W45451   1.368   8.926  13.692 -0.0550 -0.2591  0.1544
28605W        W45452   0.363   3.748  16.028  0.0525  0.4025  0.0348
28606W        W45453  12.296   6.542  13.867  0.0755  0.4390 -0.1669
28607W        W45454  15.529  14.051  15.629 -0.0019 -0.1736 -0.0575
28608W        W45455   6.301  15.234  15.844  0.0731  0.0172 -0.0610
28609W        W45456  14.449  16.540   3.760  0.0651  0.2258  0.0551
28610W        W45457   5.231   3.241   4.537  0.0302  0.1733  0.0537
28611W        W45458   5.107  13.332   5.708 -0.2293 -0.2267 -0.2368
28612W        W45459  14.105  14.088   5.093  0.1257  0.1830 -0.0065
28613W        W45460  12.987   5.072   1.268 -0.0956  0.0701 -0.4623
28614W        W45461   0.172   3.286   1.712 -0.2579  0.0676 -0.3276
28615W        W45462   5.576   1.816   4.865 -0.2111  0.3344 -0.0027
28616W        W45463   3.545   6.888   5.442 -0.2755 -0.1618  0.0200
28617W        W45464  10.366  12.282   5.407  0.1083  0.3407  0.2407
28618W        W45465  18.050   4.531   0.632  0.1290 -0.3927 -0.2365
28619W        W45466   2.127  16.154  15.610 -0.1446  0.0173  0.1104
28620W        W45467   3.820   3.993  13.792 -0.2076  0.1752 -0.1377
28621W        W45468  17.392   6.572  14.141  0.0736 -0.0423  0.0161
28622W        W45469   6.513   1.378   0.413  0.2462  0.2322 -0.1155
28623W        W45470  14.016   5.433  14.396 -0.0067  0.0870  0.0808
28624W        W45471   1.567   5.047   5.318 -0.0074 -0.1981  0.0565
28625W        W45472   1.049   9.617  11.743  0.1143  0.4766  0.2947
28626W        W45473   2.140  11.916   4.837 -0.1216 -0.1550 -0.1116
28627W        W45474   2.115  12.106   3.928 -0.1164  0.5199 -0.0312
28628W        W45475   7.314   3.469  13.401  0.3067 -0.2892 -0.0368
28629W        W45476  18.011  10.060  13.816  0.2085  0.0831 -0.1230
28630W        W45477  11.288   6.595  15.728  0.0590  0.1819 -0.1310
28631W        W45478  17.010  16.887   2.294  0.1401  0.3696 -0.0679
28632W        W45479  13.921  11.262  14.107  0.5917 -0.0041 -0.0966
28633W        W45480   4.625  10.346  12.903 -0.0201  0.2886  0.1342
28634W        W45481  15.439  10.711   2.246 -0.2220 -0.4624  0.0939
28635W        W45482  10.416   7.007  10.856 -0.2261 -0.2111  0.0862
28636W        W45483   9.897   1.012   3.288 -0.0111 -0.1157 -0.2094
28637W        W45484  13.779  11.639   2.806 -0.1808 -0.3166 -0.3528
28638W        W45485  10.501  14.401   4.000  0.1023  0.0008  0.3183
28639W        W45486   5.270   0.879  15.482  0.0320  0.0536 -0.2110
28640W        W45487  17.890  18.022  12.239  0.0608  0.1470  0.0420
28641W        W45488   1.877   8.070   4.325  0.1197  0.2972  0.2233
28642W        W45489   1.422  14.997  11.488  0.3836  0.2926  0.1812
28643W        W45490  10.899   4.724   4.844  0.1598 -0.1057  0.0413
28644W        W45491   5.147   4.714  13.002 -0.0836  0.1721 -0.2180
28645W        W45492   1.091   5.961  14.155 -0.1591  0.3439  0.1299
28646W        W45493  10.361   9.647   1.520 -0.2187  0.0128 -0.0979
28647W        W45494   5.527  10.112  14.983  0.0029  0.0327 -0.3266
28648W        W45495  17.500  10.970  14.290 -0.1601  0.1168  0.0114
28649W        W45496   7.277   3.870  14.876  0.1168  0.1304  0.0567
28650W        W45497  17.945  14.805  14.936  0.4462 -0.6013  0.2120
28651W        W45498   4.941   4.484   1.899  0.3985 -0.4330  0.3675
28652W        W45499   1.062  12.746   1.906 -0.4490  0.0653 -0.0040
28653W        W45500  10.880  13.210   1.104  0.1641 -0.1947  0.2212
28654W        W45501  11.813   9.907  14.747 -0.2536  0.0665  0.1199
28655W        W45502   5.030  14.849  15.362 -0.3736 -0.0415  0.2091
28656W        W45503  15.773   3.000   3.894  0.1011 -0.0916 -0.0274
28657W        W45504  10.258   8.366   4.225  0.7327  0.0078 -0.3123
28658W        W45505  15.117   1.188  12.418 -0.3596  0.4507 -0.1339
28659W        W45506   1.601   8.951  12.170 -0.0311  0.0434 -0.1065
28660W        W45507   4.738   4.064   1.447 -0.0915 -0.0835  0.1090
28661W        W45508  15.750   5.208   5.132  0.2000 -0.0668  0.4104
28662W        W45509  12.416   0.397   1.638  0.0003  0.5026  0.0834
28663W        W45510   0.436  18.410  12.361  0.3913  0.2658 -0.1814
28664W        W45511   4.423   6.443  12.880 -0.1059 -0.1732  0.0033
28665W        W45512   8.763   9.479   2.863  0.1755 -0.1856 -0.1230
28666W        W45513   0.836   0.693  11.008  0.1714  0.5413  0.2101
28667W        W45514   6.406  10.426  14.599 -0.0405  0.0193 -0.0366
28668W        W45515   3.755   3.461   0.674 -0.1178  0.0575  0.1073
28669W        W45516   7.424   9.767  16.028  0.2981 -0.3715 -0.4097
28670W        W45517  18.245  17.841  11.714  0.1217  0.2076  0.1505
28671W        W45518   4.489  10.387   5.030 -0.1942 -0.1681  0.3620
28672W        W45519   3.208   3.145  15.986 -0.3012 -0.3408 -0.2041
28673W        W45520   9.779  10.310  12.277 -0.4032  0.1606  0.2554
28674W        W45521   6.675   8.449  13.490 -0.2046 -0.3516  0.2273
28675W        W45522   6.559   5.072  13.276 -0.2030  0.0770  0.1995
28676W        W45523   7.148   2.304  12.204 -0.1844  0.0315  0.1627
28677W        W45524   4.068  18.169   2.770 -0.1909 -0.2796  0.3737
28678W        W45525   3.740   2.514   3.973 -0.4148  0.1350 -0.2418
28679W        W45526   8.797   2.055   0.616  0.5067  0.0664  0.4337
28680W        W45527   3.313  17.532  13.060 -0.0476  0.0115 -0.2780
28681W        W45528   5.140  16.671   2.348 -0.1842  0.3039 -0.0934
28682W        W45529   4.302   5.895   0.003 -0.1768 -0.1967  0.1738
28683W        W45530  14.664   8.027  15.419  0.2035  0.0725  0.1187
28684W        W45531  14.616   3.321   2.533  0.0743 -0.1629  0.0763
28685W        W45532   6.763  10.841   4.016  0.1116 -0.4439  0.2526
28686W        W45533  10.557  11.773  11.882 -0.1049 -0.0606 -0.1083
28687W        W45534  16.352   2.820   2.402  0.0871 -0.2556  0.2511
28688W        W45535   9.818   0.963   4.130  0.4633 -0.0952 -0.0466
28689W        W45536  16.432   4.858   4.532 -0.0398 -0.1914  0.0257
28690W        W45537  12.362  11.985   0.277 -0.2476 -0.0537  0.1865
28691W        W45538   7.349   9.582  11.086  0.0601  0.4017  0.3107
28692W        W45539   0.521   9.384   1.701 -0.3535  0.0645 -0.1185
28693W        W45540  11.770  10.756  15.171 -0.2162 -0.2367 -0.1013
28694W        W45541  14.491   5.332  12.479 -0.1413  0.1106 -0.1998
28695W        W45542  15.091  15.368   3.211  0.3223 -0.0919 -0.0034
28696W        W45543  15.766  16.852   2.179 -0.0204  0.2365  0.1129
28697W        W45544  15.014  14.139   5.296 -0.0654 -0.2041 -0.2636
28698W        W45545  11.911   5.008  16.289  0.3115  0.2905 -0.0522
28699W        W45546  14.094   0.424  16.191 -0.0724 -0.3167  0.0486
28700W        W45547  13.839   7.150  13.720 -0.0382 -0.0186  0.0023
28701W        W45548  11.728  14.608  14.463  0.0841  0.2826 -0.1995
28702W        W45549  14.528   6.010   0.116  0.0321  0.2706 -0.3287
28703W        W45550  13.273  12.732   2.437 -0.1103  0.2089  0.1332
28704W        W45551   4.530   2.654  12.885  0.0156 -0.0661  0.1543
28705W        W45552  10.411  12.805  16.271  0.0767 -0.0331 -0.2085
28706W        W45553   8.235   4.325   4.342  0.1536  0.4304 -0.2605
28707W        W45554  15.748   9.189  12.678  0.1635 -0.1051 -0.2559
28708W        W45555  14.587  14.912  11.699 -0.1855  0.1560  0.2372
28709W        W45556  13.492  13.132   4.571  0.0801  0.0419 -0.1208
28710W        W45557  14.388  11.078   3.778  0.1213  0.1004 -0.1742
28711W        W45558   7.426   4.717  13.655  0.1529  0.1851 -0.0492
28712W        W45559  11.041   0.986   1.517  0.1564  0.0576  0.0502
28713W        W45560   2.862   1.828  14.189  0.0996  0.1690  0.0575
28714W        W45561   7.039   6.529   0.284  0.0208 -0.0950 -0.0544
28715W        W45562   3.464  17.734   2.366  0.3008  0.2166  0.1235
28716W        W45563  15.545  15.947   4.522  0.0124 -0.3304  0.2672
28717W        W45564   8.270  11.309  15.614 -0.0210 -0.0724  0.1728
28718W        W45565  12.137   2.439   3.083 -0.0074  0.0454  0.1711
28719W        W45566  15.566  13.267  15.169  0.2220  0.1348 -0.1896
28720W        W45567   9.082  14.786   2.358 -0.2370  0.0143  0.0234
28721W        W45568  12.317   1.972   3.182 -0.0908 -0.0267  0.1292
28722W        W45569  14.617  10.063   3.134 -0.4734  0.0844  0.0688
28723W        W45570  10.514  17.062  14.726  0.2181  0.0982  0.1059
28724W        W45571  12.669   3.022   0.710 -0.3511 -0.2284 -0.1115
28725W        W45572   4.585  12.031  14.786  0.2403  0.0234 -0.1677
28726W        W45573   4.913  15.929  11.837  0.0423 -0.1275 -0.2007
28727W        W45574   2.485   4.023  13.041 -0.1725  0.0640 -0.0437
28728W        W45575  16.973  12.754  14.131  0.1099  0.2614 -0.1298
28729W        W45576   1.599  14.062  13.409 -0.2349 -0.3005 -0.0079
28730W        W45577   4.123   3.370   3.803  0.0190  0.1285  0.1428
28731W        W45578  17.561  10.093   4.575 -0.1969  0.1142  0.1192
28732W        W45579  11.772   4.121  14.220  0.0722 -0.2421 -0.0797
28733W        W45580  10.067   7.776   4.050  0.3629 -0.2645  0.3402
28734W        W45581  11.725  18.181   0.397  0.1692  0.0128 -0.1152
28735W        W45582  12.299   7.965   2.819  0.2989  0.0718  0.2543
28736W        W45583  11.037  15.172   3.660 -0.1285  0.1195  0.1151
28737W        W45584  10.865   7.613   2.804 -0.2961  0.0256 -0.1708
28738W        W45585  17.507   4.364   3.180 -0.2671 -0.0064 -0.0246
28739W        W45586   2.041   6.369  12.927 -0.1797 -0.3500 -0.0695
28740W        W45587  14.083   1.242   0.600 -0.0535 -0.3741 -0.0393
28741W        W45588  18.302  11.351   1.290  0.1048 -0.0410  0.1899
28742W        W45589  17.782   1.883   4.696  0.2157  0.1241 -0.2921
28743W        W45590  16.163   9.246  11.874 -0.2533  0.2318  0.0441
28744W        W45591  10.670   7.864   1.083 -0.1944 -0.0904  0.0889
28745W        W45592  14.429  14.267   2.890 -0.0142  0.1313 -0.4219
28746W        W45593  16.098  13.071   3.898 -0.1190  0.0814 -0.2612
28747W        W45594   5.779   3.734  12.464 -0.0439 -0.0355  0.2013
28748W        W45595   1.933   9.623  13.543 -0.1798  0.1663 -0.2065
28749W        W45596  18.189   7.953   0.792 -0.1661 -0.2072  0.1758
28750W        W45597  13.145   1.810  15.375  0.0013  0.0856 -0.1125
28751W        W45598  15.423  10.642   2.779 -0.0612 -0.0199  0.2499
28752W        W45599   8.466   6.207  15.622  0.1668 -0.2044  0.3034
28753W        W45600  12.917  10.228  14.685 -0.2603 -0.0407  0.0297
28754W        W45601  10.210  11.255  14.326  0.2965 -0.3043  0.2485
28755W        W45602  12.767   1.898  15.018  0.0164  0.2207 -0.0209
28756W        W45603   2.296   7.511  13.524  0.1593  0.1605 -0.0771
28757W        W45604   1.437   1.294  15.338  0.1614  0.1738 -0.0555
28758W        W45605   3.122   5.746   3.667 -0.2108  0.0824  0.0856
28759W        W45606  12.714  14.075   0.605 -0.0129 -0.1348 -0.0906
28760W        W45607   3.135   6.033  12.129 -0.4153  0.0320 -0.0861
28761W        W45608   0.728   4.100  16.217  0.0720  0.0308 -0.2054
28762W        W45609   0.275   3.138   0.016  0.1789  0.2383  0.1185
28763W        W45610   2.566   0.522   0.542  0.4275  0.3072  0.0830
28764W        W45611   7.848  11.048  12.306 -0.0820  0.0095 -0.4812
28765W        W45612   3.923   9.585  13.510 -0.0302 -0.2468 -0.0157
28766W        W45613   2.495   8.879  13.228  0.4075  0.0564 -0.2360
28767W        W45614   1.876   4.767   3.898  0.2181 -0.1306 -0.0801
28768W        W45615   1.045   8.112   5.733 -0.0986  0.0488  0.1544
28769W        W45616   9.790   8.013  15.346 -0.0908 -0.0666 -0.1093
28770W        W45617  16.746   5.948  11.540  0.1537 -0.3113  0.0906
28771W        W45618  16.868  15.234   5.245 -0.2157  0.1742  0.2924
28772W        W45619   9.037   3.498   0.648 -0.2686  0.0580 -0.0433
28773W        W45620   7.015  16.236   2.888  0.0002 -0.0767 -0.0895
28774W        W45621   5.939   1.463   3.587 -0.0209 -0.1614 -0.1481
28775W        W45622  12.047   0.578   3.738 -0.1010 -0.2299 -0.0406
28776W        W45623  17.845   1.633   2.341  0.0006 -0.0143 -0.0373
28777W        W45624   1.505  10.568   0.610 -0.2159  0.2066 -0.4898
28778W        W45625   0.908  15.230   4.434  0.2106  0.2579 -0.1775
28779W        W45626   1.289  17.221   0.579 -0.3624  0.1588  0.1702
28780W        W45627  11.282   6.364  13.979 -0.3249  0.2525  0.3058
28781W        W45628   6.929   5.930  14.509  0.2090 -0.0440  0.3524
28782W        W45629   1.566   8.124   5.401 -0.1221  0.3507 -0.1358
28783W        W45630   9.769   0.934   5.081 -0.1156 -0.3138 -0.3517
28784W        W45631   0.881   8.485  11.117  0.0354 -0.0944 -0.3156
28785W        W45632  17.993   9.039  12.686  0.0260  0.0834 -0.0413
28786W        W45633  11.872  10.955   4.401  0.0146  0.1118  0.1019
28787W        W45634   9.778   3.868  12.643  0.0556 -0.0240 -0.1657
28788W        W45635   1.493   7.095  14.242 -0.0816  0.1165 -0.1680
28789W        W45636  17.445  10.239  13.843  0.3446  0.1076  0.0644
28790W        W45637  18.405   5.016   0.844 -0.1629 -0.1126  0.2286
28791W        W45638   4.358   8.419   4.687  0.1603  0.0276 -0.1206
28792W        W45639   7.394   2.704   0.191  0.0619  0.3067  0.2159
28793W        W45640  11.849   6.719  12.541 -0.3352  0.0602 -0.1437
28794W        W45641  15.670   8.762  15.562  0.0921 -0.0684  0.0117
28795W        W45642  14.148   8.639   0.108  0.0011 -0.0818 -0.3058
28796W        W45643   8.807   7.673  14.880 -0.0922  0.1645  0.1103
28797W        W45644   5.803  15.326  15.531  0.0494 -0.0262 -0.1162
28798W        W45645   8.707  15.632  12.908 -0.1341  0.0517  0.1386
28799W        W45646   5.606   4.408   2.612  0.1855 -0.0927 -0.3200
28800W        W45647   0.223   3.839   4.055 -0.1435  0.1425 -0.1187
28801W        W45648   3.132  11.059   2.235  0.0208  0.0135 -0.0701
28802W        W45649   7.693  11.544  13.003  0.1374 -0.0625  0.0155
28803W        W45650   7.716  10.010   2.426  0.1929  0.0564 -0.2255
28804W        W45651   1.181   4.982  15.034 -0.1769 -0.2010 -0.1889
28805W        W45652   3.919  14.085  13.333 -0.1935 -0.1045 -0.3900
28806W        W45653  11.173   1.267   5.981 -0.5026 -0.4558  0.0586
28807W        W45654  16.057  11.663  15.674 -0.3760 -0.0019  0.2774
28808W        W45655  11.678  18.140  14.439 -0.3562  0.1852  0.0155
28809W        W45656  15.514  10.090  14.203  0.2346 -0.0290 -0.2796
28810W        W45657  18.238   5.261   3.497 -0.4671 -0.1266  0.0453
28811W        W45658  15.271   9.576  13.708  0.0454 -0.1549  0.3537
28812W        W45659  16.634   0.239  11.655 -0.0323  0.3601  0.3062
28813W        W45660   1.950  14.055   0.909  0.2049  0.0361 -0.1308
28814W        W45661   4.274   9.354   5.186 -0.0310 -0.0088  0.3144
28815W        W45662   9.132  16.731  12.222 -0.1033 -0.0860 -0.0901
28816W        W45663   6.810   8.055   5.034 -0.1730  0.0144  0.0729
28817W        W45664  15.575   5.074  15.400 -0.1149 -0.0770 -0.1287
28818W        W45665  13.279  10.601   1.287  0.3167  0.0141 -0.1146
28819W        W45666  14.852   6.071  15.028 -0.0182 -0.1379 -0.2017
28820W        W45667  10.251  18.175  13.448 -0.0127  0.0426  0.0558
28821W        W45668  17.520  10.050  14.743  0.1382 -0.3932  0.0166
28822W        W45669   8.736  10.199  15.876 -0.2253 -0.1097 -0.0733
28823W        W45670   4.778   1.154  15.523  0.1452 -0.1221 -0.0038
28824W        W45671  16.353  11.370   1.222  0.0896  0.1273  0.0790
28825W        W45672   8.215   0.142   4.816 -0.3653 -0.0361 -0.2492
28826W        W45673  15.999   0.001   1.158 -0.0663 -0.0659 -0.3928
28827W        W45674   5.064   5.671  15.065  0.3841  0.1485 -0.1395
28828W        W45675   8.238   1.094   2.711  0.1050 -0.0668  0.3282
28829W        W45676  10.189  12.416   3.909 -0.1747  0.0211  0.3961
28830W        W45677   3.160   7.067   2.795  0.0867  0.1697  0.2488
28831W        W45678  10.563  18.372   2.986  0.2593 -0.2293  0.1882
28832W        W45679  13.975  14.814  16.252  0.3964  0.4120 -0.1527
28833W        W45680   5.401  16.794  14.648  0.2639  0.0743 -0.2068
28834W        W45681  11.891   1.237   0.495 -0.0098  0.0583  0.0412
28835W        W45682   6.372   2.906   1.650  0.1256 -0.1292 -0.0310
28836W        W45683   7.310   0.822  12.580 -0.0012 -0.0981 -0.0253
28837W        W45684  12.089  14.660  13.305  0.0597  0.4413 -0.0094
28838W        W45685   5.550   3.411  11.488 -0.0517 -0.0786  0.3139
28839W        W45686   7.033  12.007  15.993 -0.0011 -0.1895  0.3250
28840W        W45687  14.347  11.184  15.388 -0.0686 -0.0176 -0.0011
28841W        W45688  11.968  13.629   3.016  0.1083 -0.3840  0.0017
28842W        W45689  12.434  17.272   1.533 -0.2525 -0.2573 -0.4701
28843W        W45690  15.905  15.490  11.655  0.2543 -0.0175 -0.1122
28844W        W45691   7.793  10.675  11.876 -0.2829  0.0372 -0.0965
28845W        W45692   3.606  11.391  14.998 -0.1180  0.2053 -0.3887
28846W        W45693   0.975   6.191   2.468  0.0248 -0.1551 -0.0912
28847W        W45694   0.574   0.306  14.576  0.1257  0.0071  0.2427
28848W        W45695  12.269   3.097  16.198  0.1143  0.0936 -0.1352
28849W        W45696   9.498   9.588   4.231  0.1219 -0.1331  0.3477
28850W        W45697   6.451  17.198   1.629 -0.0966  0.1207  0.2347
28851W        W45698   3.811   7.258  13.067  0.2986 -0.2158  0.0912
28852W        W45699  16.501   1.040   3.725 -0.1806  0.1188 -0.1324
28853W        W45700  11.226   5.457  14.995  0.1449  0.1800 -0.0184
28854W        W45701  18.137  11.802   4.203 -0.0241  0.0887 -0.3398
28855W        W45702   4.778   6.376   6.024 -0.0653  0.0471  0.0569
28856W        W45703  10.985  14.039  13.201 -0.1285 -0.2370  0.1199
28857W        W45704   6.997   2.909   3.365  0.2753  0.1311  0.2128
28858W        W45705  15.626   7.930  11.459  0.3060 -0.0471  0.0318
28859W        W45706   8.255  16.750   3.168 -0.0495 -0.0793  0.1511
28860W        W45707   4.073  16.516   2.872 -0.0452 -0.1812 -0.0052
28861W        W45708  17.843  18.066   2.186 -0.1866  0.0569  0.0409
28862W        W45709   5.202   0.978   3.297  0.1823 -0.2747 -0.0839
28863W        W45710  16.340  15.820  13.756  0.2753 -0.0201  0.0802
28864W        W45711  13.567  17.445   4.182 -0.2167  0.1416 -0.0243
28865W        W45712  10.136  15.601   2.620  0.0258 -0.0977  0.1967
28866W        W45713  16.540  10.893   3.232 -0.0004 -0.2595  0.1699
28867W        W45714  16.364   7.246  16.200 -0.1621  0.2983  0.2848
28868W        W45715  18.035   5.724   4.136 -0.2632 -0.2601  0.1988
28869W        W45716  11.870   1.106   2.077  0.2698 -0.0681 -0.2566
28870W        W45717  15.151  14.424  14.757 -0.1457 -0.4312  0.1918
28871W        W45718  17.013  15.356   4.363  0.0695 -0.2192  0.0404
28872W        W45719  14.089   9.127  15.506 -0.2202 -0.3292 -0.1072
28873W        W45720  12.647   2.185  12.747 -0.2144 -0.0774  0.0186
28874W        W45721  11.335  12.511  12.620 -0.1016 -0.3493 -0.2578
28875W        W45722   0.889   8.349   1.267 -0.3177 -0.0999 -0.0472
28876W        W45723  15.319   0.153  14.452 -0.0395 -0.1235 -0.0075
28877W        W45724  15.727  11.496   3.287 -0.0658 -0.0304  0.0301
28878W        W45725   6.856  15.842  11.328 -0.1737 -0.0589  0.1195
28879W        W45726  16.434   2.220  14.435 -0.2477  0.0214  0.1154
28880W        W45727   1.641   3.689   3.888 -0.2027 -0.3447  0.0605
28881W        W45728  15.792   8.831   3.764 -0.1826 -0.1284  0.3838
28882W        W45729  16.063   9.672  11.152 -0.0526 -0.3106  0.1455
28883W        W45730  11.630  11.351   4.284  0.1417 -0.0278 -0.0103
28884W        W45731  10.658   9.454   3.311  0.0733  0.2166 -0.2522
28885W        W45732   2.418   4.951   5.079 -0.1667  0.0349 -0.0244
28886W        W45733   8.350  14.412   5.045 -0.0175 -0.1237 -0.2631
28887W        W45734   9.573   8.638   4.719 -0.0071 -0.0234 -0.3336
28888W        W45735   7.022   9.258  14.990  0.0647 -0.0305 -0.1468
28889W        W45736   8.904   5.986   5.376  0.3563 -0.1895 -0.0836
28890W        W45737   4.997   3.012   1.616  0.1374  0.0452 -0.1418
28891W        W45738  12.017  18.153  13.446  0.1768 -0.0752  0.1100
28892W        W45739   0.665   6.230   0.270  0.0411  0.2412 -0.0879
28893W        W45740   4.013   9.711  12.224 -0.3868  0.2723 -0.1755
28894W        W45741  16.923   2.516  13.062 -0.0557 -0.2305  0.0919
28895W        W45742   2.882   0.847   4.419  0.0758  0.1114  0.0917
28896W        W45743   1.434  10.748  12.519  0.2390  0.2209  0.1049
28897W        W45744   6.626   5.218  13.826  0.1639 -0.1544 -0.1995
28898W        W45745   0.935   3.519   2.260  0.0362  0.1401 -0.2245
28899W        W45746  10.037  13.659   2.699 -0.0383  0.1506  0.1523
28900W        W45747   4.079  16.865  12.434 -0.0796 -0.4203 -0.3397
28901W        W45748  17.337  11.564  12.699 -0.0620  0.0891  0.0320
28902W        W45749  14.692   0.307  15.173  0.1279  0.0275  0.0707
28903W        W45750   0.361  15.289   3.340 -0.2149 -0.0995  0.1964
28904W        W45751   7.776  15.447   2.219  0.0816 -0.2949  0.1363
28905W        W45752  16.014   3.178   5.138  0.2499  0.0129 -0.2878
28906W        W45753   0.327  13.726   4.206  0.1454 -0.0208 -0.3139
28907W        W45754   0.865   4.474   3.750 -0.1834  0.1603  0.0891
28908W        W45755   0.700  18.154  15.864 -0.1247  0.2797 -0.1214
28909W        W45756   0.499   5.188  15.160 -0.1354 -0.0804  0.0356
28910W        W45757   7.303  14.500   4.658 -0.4587 -0.0897  0.1425
28911W        W45758   0.343  10.649   0.136 -0.1137  0.1599  0.0640
28912W        W45759   5.440  17.030   5.159  0.1803 -0.1557  0.0271
28913W        W45760  13.589   2.319   0.048  0.0169 -0.2275 -0.1191
28914W        W45761   8.387  16.503   4.064  0.2595 -0.1396 -0.0366
28915W        W45762  16.209  18.280   4.555 -0.3038 -0.0172  0.1604
28916W        W45763   9.797   9.818   2.958  0.1382  0.0986  0.0560
28917W        W45764   0.261  14.356   3.127  0.2659 -0.3077  0.1651
28918W        W45765   7.023  11.468   4.612  0.2338  0.2574 -0.2463
28919W        W45766   4.116  17.016  14.576 -0.0186 -0.0115  0.5103
28920W        W45767   0.270   9.012   1.445 -0.1195  0.0895 -0.0478
28921W        W45768   0.227  10.848  14.024  0.0757 -0.4330  0.0494
28922W        W45769   3.385  13.328   5.714 -0.2570 -0.1407 -0.2400
28923W        W45770   9.392   0.805  15.147  0.1475 -0.0167 -0.0574
28924W        W45771  11.194  11.015   4.327  0.4230  0.1570  0.0190
28925W        W45772   4.850  11.456   2.090 -0.3187  0.0223 -0.1616
28926W        W45773   7.129   3.106  15.725 -0.1912 -0.1866 -0.1786
28927W        W45774  15.984   7.361   0.955  0.2212 -0.3354  0.1079
28928W        W45775  12.555  15.266   2.653 -0.0199  0.0241  0.2002
28929W        W45776  11.703   2.790  13.169 -0.0278 -0.0970 -0.0549
28930W        W45777  11.425  14.500   5.468  0.0339 -0.0605  0.3712
28931W        W45778  12.509  18.061   3.398  0.0323 -0.2879  0.0950
28932W        W45779   0.023  11.007  16.239  0.1733  0.2040  0.2416
28933W        W45780   1.019   0.269  11.300  0.0624 -0.1625 -0.1156
28934W        W45781  15.107   3.314   4.508  0.0514  0.0353  0.1320
28935W        W45782  10.379  11.524  12.951  0.0833  0.0943 -0.0228
28936W        W45783  15.326   4.458  12.532 -0.1896 -0.2322 -0.0886
28937W        W45784   6.162  11.356  12.935  0.0757 -0.1207 -0.1093
28938W        W45785  10.734   8.628  12.419 -0.3546  0.2108  0.2026
28939W        W45786  15.523  14.402  12.348  0.1632  0.0600  0.0988
28940W        W45787   4.509   1.460  13.357  0.2237  0.0525 -0.1871
28941W        W45788   0.381   3.446  11.460 -0.0639 -0.0483 -0.0221
28942W        W45789  16.260   1.629   0.028  0.0721  0.1288  0.0140
28943W        W45790  11.603   0.210  15.613  0.2991  0.0987  0.0123
28944W        W45791   3.944   2.015  13.170  0.2236 -0.0930 -0.3109
28945W        W45792   2.880  11.374   5.200 -0.1224  0.1034 -0.0971
28946W        W45793  14.788  11.663   2.369 -0.1677  0.0330  0.2542
28947W        W45794   8.693   4.184  14.431  0.2513  0.1302 -0.0430
28948W        W45795  18.214  18.401   0.484 -0.0797 -0.0073  0.2165
28949W        W45796  16.753   4.291  13.779 -0.0406  0.0441 -0.0799
28950W        W45797  12.789   8.796  14.224 -0.0033  0.0148  0.0888
28951W        W45798  12.901   5.235   3.771  0.1683 -0.0519  0.0196
28952W        W45799   0.826   6.347  14.290  0.1904 -0.0982  0.2449
28953W        W45800   3.476   4.198   3.834 -0.2314  0.1243  0.1936
28954W        W45801   7.588   8.154   4.434  0.1936 -0.0351 -0.0933
28955W        W45802  16.181  13.892  13.010 -0.0947 -0.0302 -0.2745
28956W        W45803   9.247  10.699   2.974  0.1576  0.0299  0.4747
28957W        W45804  13.657  12.559   3.248  0.1617 -0.1471 -0.1811
28958W        W45805   9.070   6.194   6.429  0.1780 -0.0140 -0.1337
28959W        W45806  17.904  11.083  10.635 -0.3188  0.0126  0.0724
28960W        W45807  15.405  16.427  14.886 -0.4168  0.0235  0.0296
28961W        W45808   0.743  11.307   2.759 -0.2017 -0.2695 -0.1458
28962W        W45809   8.673   6.440  12.803 -0.0499  0.0654  0.0889
28963W        W45810  13.319  12.781   5.851  0.2367  0.1340 -0.1105
28964W        W45811   8.397  16.661   2.699 -0.1952 -0.0983  0.1908
28965W        W45812   1.769   6.227  14.981 -0.0324  0.5223 -0.2522
28966W        W45813  13.713  17.094  15.417  0.1391  0.1987 -0.1305
28967W        W45814   4.873   8.304   4.747 -0.1768 -0.0944 -0.2053
28968W        W45815  12.394  10.578   1.364 -0.3170 -0.0607 -0.2140
28969W        W45816   9.324   1.515  13.181  0.1017 -0.0620 -0.1382
28970W        W45817   3.126  14.100  13.897  0.0036  0.0352 -0.0864
28971W        W45818  16.438  10.858   2.333 -0.0837  0.2373 -0.2758
28972W        W45819   5.521  10.787  12.405  0.1268  0.0787 -0.3717
28973W        W45820  14.494  13.063  14.718  0.0041  0.1119  0.1207
28974W        W45821  15.412  14.636   2.752  0.1382  0.0160 -0.3811
28975W        W45822   4.824   7.288  14.630  0.2755  0.1053  0.4353
28976W        W45823   1.399   9.731   2.902  0.1634  0.1822 -0.0325
28977W        W45824  13.368   4.553  12.830  0.1918 -0.0091 -0.1216
28978W        W45825  13.074   5.255   5.414  0.2533 -0.0861 -0.1637
28979W        W45826  11.617   1.837   1.368 -0.2674  0.5133  0.2042
28980W        W45827   7.765   5.925  15.211 -0.2267 -0.0374 -0.0720
28981W        W45828  11.727   0.118  13.624  0.2547  0.0767  0.0519
28982W        W45829   9.533   1.352   2.141  0.0901  0.1617  0.1811
28983W        W45830   0.345  12.398  11.352 -0.1222  0.1695 -0.1377
28984W        W45831  17.265   0.732  13.867  0.2699  0.1314  0.3295
28985W        W45832  17.015   5.507  12.759  0.0119 -0.0746 -0.2340
28986W        W45833  14.807  18.132   2.401 -0.0561 -0.3410  0.2478
28987W        W45834   9.590  11.956  13.292  0.0821  0.0873 -0.0111
28988W        W45835  11.529  10.909   5.423 -0.2548 -0.2860 -0.0184
28989W        W45836   7.915   3.818  16.264 -0.0432  0.2121 -0.0830
28990W        W45837  14.806  13.756  14.072 -0.0817 -0.4537  0.2248
28991W        W45838  11.360  13.303  14.702  0.0254  0.1641 -0.0832
28992W        W45839   6.145  18.290  15.434  0.1842  0.0241  0.1657
28993W        W45840  14.558  18.054   3.786 -0.0501  0.1967  0.1648
28994W        W45841  18.404  11.029   0.433  0.1566  0.1557 -0.1363
28995W        W45842   9.968  16.496   6.357  0.1456 -0.0986  0.0929
28996W        W45843   1.229   4.590  11.075  0.2359  0.1475  0.2220
28997W        W45844   9.163  10.169   3.044 -0.1341 -0.0691 -0.2662
28998W        W45845  16.764   0.736  16.340 -0.5391  0.2650 -0.2544
28999W        W45846  12.371   8.550   3.183  0.2112 -0.3640  0.0855
29000W        W45847   0.517  13.891  12.433 -0.0585  0.0424  0.0704
29001W        W45848   8.259  15.920   5.723 -0.4589 -0.1205 -0.1357
29002W        W45849  12.892  10.465   2.673  0.1139  0.1408 -0.2649
29003W        W45850   3.379   4.214   2.827 -0.1902 -0.0800 -0.0152
29004W        W45851  14.657   6.616  11.817 -0.4323 -0.0994 -0.0286
29005W        W45852   1.443   8.144  16.163  0.0855 -0.0809 -0.1763
29006W        W45853  18.178   0.852   3.436 -0.1619  0.4058 -0.0511
29007W        W45854  17.325  17.830  13.789  0.2146 -0.0790  0.1012
29008W        W45855   0.051   3.150  13.804  0.0049  0.2297  0.2678
29009W        W45856  10.376  17.310   5.458 -0.0266 -0.0247 -0.0409
29010W        W45857   1.782  12.959  11.301 -0.0624 -0.0358 -0.1863
29011W        W45858   1.126   1.750   1.875 -0.2982  0.2402  0.0326
29012W        W45859   2.677   9.455   1.951  0.2050  0.0519  0.1240
29013W        W45860   0.531  16.756  13.500  0.4275  0.0516 -0.5358
29014W        W45861   2.781  12.275   6.148  0.2672 -0.0964 -0.1755
29015W        W45862   4.573   8.625  14.561 -0.3090 -0.0966 -0.1141
29016W        W45863  11.282  14.330   0.347 -0.0594 -0.0730  0.0795
29017W        W45864  10.953  17.357   3.873 -0.1292  0.0619 -0.0409
29018W        W45865   5.574   1.207   5.959 -0.1006 -0.1081  0.1983
29019W        W45866  16.971   0.644  14.292  0.2260  0.1228  0.1220
29020W        W45867  15.869  11.551   1.120 -0.0534 -0.1919  0.2659
29021W        W45868  11.449   0.109  14.105  0.0521 -0.1605 -0.2249
29022W        W45869   8.798   3.170  14.037 -0.1873 -0.2475 -0.1479
29023W        W45870   3.669  14.367   0.583  0.2749 -0.2207  0.0103
29024W        W45871   7.023   9.320   2.994 -0.3939  0.1831 -0.0615
29025W        W45872   8.581  13.114  15.582  0.0058  0.0726 -0.2090
29026W        W45873   3.142  10.915   2.906 -0.0387  0.0293  0.3532
29027W        W45874   8.512   8.465   1.292 -0.0789  0.0276  0.0953
29028W        W45875  10.962  11.951   3.939  0.0553  0.3731  0.0864
29029W        W45876   0.952  15.755  13.906  0.1309  0.0764 -0.0103
29030W        W45877  11.973   7.817   1.997  0.0505 -0.2075  0.1076
29031W        W45878  10.323   6.062  15.876 -0.2806 -0.1921 -0.0733
29032W        W45879   7.311  10.314   4.900 -0.4082 -0.0064 -0.0151
29033W        W45880   7.003  11.931   4.938  0.0239 -0.1154  0.0812
29034W        W45881   9.404  13.006  12.223 -0.1079 -0.1695 -0.1229
29035W        W45882   2.669  10.961   1.563  0.0152 -0.1418 -0.0877
29036W        W45883   1.307   9.729   1.371  0.0344  0.0618  0.0322
29037W        W45884   3.243   6.052   4.820  0.0363  0.0793  0.2466
29038W        W45885  15.348  11.469  12.770 -0.0298 -0.5080 -0.0607
29039W        W45886  15.357  11.990  11.973  0.4068 -0.0878  0.0676
29040W        W45887   8.204  12.150  13.716 -0.1612 -0.0776 -0.1146
29041W        W45888  13.475  16.919  13.709 -0.2399  0.1841 -0.0537
29042W        W45889   4.430  14.048   1.106 -0.1864 -0.2105  0.1398
29043W        W45890  12.111  12.257   2.192 -0.1306  0.1560 -0.1492
29044W        W45891  12.656  14.914   1.675 -0.1413  0.4092 -0.1883
29045W        W45892  17.524  11.157  10.944 -0.1647  0.1633  0.0794
29046W        W45893   8.773   3.398   3.477 -0.0971  0.1835  0.3138
29047W        W45894  14.675  13.145   2.201  0.0558 -0.0364  0.1293
29048W        W45895  14.417  11.390   2.623  0.3838 -0.1413 -0.1099
29049W        W45896  10.205  11.845   0.875  0.1074 -0.0097 -0.0975
29050W        W45897   6.938  16.915   4.328  0.0470  0.4058 -0.0477
29051W        W45898  12.000   7.078   2.344  0.2130 -0.0422  0.0545
29052W        W45899  17.875   7.448  14.604  0.2065 -0.0854  0.0509
29053W        W45900   9.426   5.162  12.997 -0.1996 -0.1582 -0.1908
29054W        W45901   9.033  17.402   5.112 -0.3064  0.2143 -0.2535
29055W        W45902   4.565  11.964   5.424  0.0666  0.1965 -0.2557
29056W        W45903  15.915  13.284  11.987  0.1539  0.3576  0.2105
29057W        W45904  15.642  14.711   0.391 -0.1288  0.1658  0.0900
29058W        W45905   6.134  17.481  15.961  0.3025 -0.0207  0.3045
29059W        W45906   7.662   1.224  14.877 -0.3233 -0.1647  0.0130
29060W        W45907   5.688   4.380  13.643  0.1989  0.1774 -0.1880
29061W        W45908   1.271   1.294  16.161  0.1454 -0.1849 -0.2765
29062W        W45909  18.062  15.691  16.010 -0.4071 -0.0368  0.0553
29063W        W45910   5.362   0.243   2.916 -0.2995  0.0762 -0.3013
29064W        W45911   0.490   4.205   3.586  0.0083 -0.0966  0.1361
29065W        W45912   4.986   0.426  12.776 -0.1021 -0.0473 -0.0067
29066W        W45913   0.470   5.155  14.028  0.0589  0.1931 -0.0824
29067W        W45914   3.875  11.649  12.853 -0.1441 -0.1297  0.1087
29068W        W45915   2.997   5.306   0.210  0.1027 -0.1098 -0.1149
29069W        W45916   3.228  12.894  13.503  0.0552 -0.3577  0.4093
29070W        W45917   9.694   2.445   1.933  0.0616  0.3150 -0.1840
29071W        W45918   0.770   5.744  14.531  0.2606  0.0438  0.0864
29072W        W45919  15.963   5.560  15.871  0.3112 -0.1862  0.1203
29073W        W45920   5.076   6.326  15.790  0.1287 -0.0335 -0.3413
29074W        W45921   1.005   7.098   2.543  0.2356  0.0134  0.0671
29075W        W45922   0.227  17.476   2.229 -0.0139 -0.1023  0.2645
29076W        W45923  16.637   7.189  10.683 -0.1903 -0.2291 -0.1317
29077W        W45924   1.435   3.297   2.178 -0.3128  0.3850  0.0775
29078W        W45925  18.184  16.900   1.342 -0.2654  0.1488  0.1816
29079W        W45926   7.683   4.433  13.135  0.1955  0.1991 -0.2199
29080W        W45927   7.234  17.098  12.447  0.1723 -0.2189 -0.1308
29081W        W45928   6.972  16.712   0.763 -0.4772 -0.1518  0.0238
29082W        W45929  12.150  18.192   0.655 -0.2849  0.1580  0.0185
29083W        W45930  13.848  11.456   4.524  0.0644 -0.2160  0.0783
29084W        W45931  14.226   9.375  12.913 -0.3889  0.0839 -0.0459
29085W        W45932   0.643   3.959   2.109 -0.1965 -0.1189  0.3857
29086W        W45933   9.779   9.136  14.600 -0.1147  0.2348  0.0223
29087W        W45934   2.462   2.318   2.247 -0.0130 -0.3000 -0.0212
29088W        W45935  17.671  15.418  16.118  0.0366 -0.0103  0.2069
29089W        W45936   9.066   2.989   1.140  0.1764 -0.1814  0.0570
29090W        W45937  13.935   3.582  12.097  0.1077  0.0933 -0.0754
29091W        W45938   6.658  14.252   4.050  0.1784  0.1062  0.1184
29092W        W45939   7.837  12.089   5.237  0.0857  0.1830  0.1015
29093W        W45940   7.588   3.590   0.510  0.0395  0.0494  0.1995
29094W        W45941   1.127   7.046   0.186  0.1320  0.1006  0.0185
29095W        W45942   5.457   6.263   3.647 -0.1410 -0.1671 -0.3064
29096W        W45943  16.762   3.342   1.901  0.2558  0.0991 -0.1545
29097W        W45944  12.790  18.224  13.775 -0.0434 -0.1795  0.3324
29098W        W45945  12.988   1.307   3.520 -0.0642 -0.0403  0.1353
29099W        W45946   2.854   0.914   4.995  0.1632 -0.1467 -0.0156
29100W        W45947   8.610   2.090  15.676  0.0053  0.3429  0.2637
29101W        W45948  12.745  14.839  16.019  0.1564  0.1106  0.0301
29102W        W45949  11.052  14.173   4.977 -0.0285  0.0316 -0.0283
29103W        W45950   6.663   4.203   1.683 -0.0450  0.0552 -0.2019
29104W        W45951   4.815   9.114   3.430  0.2173  0.1037  0.0090
29105W        W45952   7.555   8.259  15.968  0.0457  0.2558 -0.3771
29106W        W45953  11.020  17.599   4.784 -0.2225 -0.1580 -0.0117
29107W        W45954  13.272   8.997  15.422  0.5005  0.0585 -0.2370
29108W        W45955  12.112   6.899   4.866 -0.1736  0.1383  0.0851
29109W        W45956   9.329   1.518   4.418 -0.0019  0.1558  0.0315
29110W        W45957   1.790   1.322   3.727  0.1632 -0.1454 -0.0202
29111W        W45958   7.414  17.003  16.317 -0.6371 -0.1413  0.0242
29112W        W45959   1.609   7.579   2.730  0.3266  0.2153 -0.1357
29113W        W45960  10.994  12.221   4.771 -0.0601  0.1887 -0.2695
29114W        W45961   9.936  12.179  14.666  0.1822  0.1098  0.1878
29115W        W45962   4.218  10.274  14.178 -0.0293 -0.4159  0.0541
29116W        W45963   4.209   0.196   3.787  0.0923  0.1458  0.2653
29117W        W45964  10.107  17.103  14.491 -0.4169  0.1071 -0.0643
29118W        W45965  12.516   7.006  13.912 -0.2446 -0.2047 -0.0910
29119W        W45966  11.723   6.429   1.371  0.0204  0.2565  0.1564
29120W        W45967   5.931  13.632  12.685  0.1533 -0.0446 -0.2723
29121W        W45968  10.175  16.122   3.041 -0.0574 -0.3310 -0.3402
29122W        W45969  11.043   6.471   3.267  0.2239  0.2362 -0.1479
29123W        W45970   8.991   6.343   5.109  0.2450 -0.3974  0.0400
29124W        W45971  16.717  17.482   4.933 -0.0195 -0.0168 -0.2456
29125W        W45972   0.195   4.273   1.299 -0.3251 -0.2480 -0.0482
29126W        W45973   7.946  17.635   0.837 -0.0185 -0.0757 -0.3461
29127W        W45974  15.423   7.138  11.660  0.0766  0.1572  0.5610
29128W        W45975   8.115   4.175  15.942  0.0411  0.2971 -0.0171
29129W        W45976  12.769  15.435   3.079  0.0719 -0.0532  0.1345
29130W        W45977  10.355   1.861  13.215  0.0448 -0.1294  0.0222
29131W        W45978   3.156   3.813   2.942  0.1555 -0.3427  0.0802
29132W        W45979   4.599  14.822  14.154  0.1169 -0.0547 -0.2540
29133W        W45980  10.123  14.336   3.238  0.1046 -0.2128 -0.0924
29134W        W45981   1.361   3.623   2.540 -0.1137  0.0820  0.2775
29135W        W45982  10.192   9.586  11.518  0.0327  0.2726 -0.1261
29136W        W45983  12.659  17.278   0.605 -0.2850 -0.0852  0.0949
29137W        W45984   3.865   2.619   0.991 -0.2326  0.0483  0.0237
29138W        W45985  15.281   0.385   2.174  0.3155 -0.0484 -0.0321
29139W        W45986  10.746  11.751   0.003  0.1604  0.0426  0.0843
29140W        W45987  15.901   6.448  13.211  0.2445 -0.1355  0.0260
29141W        W45988   5.476   3.307  15.183 -0.0884  0.4104 -0.2156
29142W        W45989  17.298   3.795  15.594  0.0824 -0.1107 -0.0449
29143W        W45990   8.844   1.024  13.028  0.3979 -0.0961  0.0922
29144W        W45991  12.177  13.247   5.255 -0.1753  0.0751  0.2289
29145W        W45992  11.614   8.901  16.040 -0.1441  0.0247  0.0212
29146W        W45993   8.085  11.463   4.921  0.0712 -0.3648 -0.1609
29147W        W45994   8.311   5.422  15.522  0.2008 -0.4323 -0.0819
29148W        W45995  12.661   0.576  15.797 -0.2649 -0.1729  0.0572
29149W        W45996   6.686   8.545  16.155 -0.0037  0.2836 -0.0629
29150W        W45997   0.129  15.171   3.742  0.0854 -0.3009  0.4520
29151W        W45998   9.484  15.910  14.927  0.0231 -0.3266 -0.0545
29152W        W45999  16.816   3.762  14.773 -0.0552 -0.1496 -0.0716
29153W        W46000  11.846  12.506  14.274  0.0637  0.2920 -0.1168
29154W        W46001   2.619  13.350  14.812 -0.0124  0.1425 -0.0724
29155W        W46002   4.037  12.227   3.061 -0.0248 -0.1503 -0.1420
29156W        W46003  12.822  12.312   1.021 -0.0536 -0.4365  0.0670
29157W        W46004  13.099  15.658   5.519  0.1039 -0.0685 -0.1019
29158W        W46005  14.418   4.885   1.922  0.2200  0.2561  0.0637
29159W        W46006   8.005  10.727   6.088 -0.0557  0.0143 -0.1913
29160W        W46007  11.427   0.149   0.894  0.1786  0.4061  0.1612
29161W        W46008  11.478   7.632  11.754  0.1949 -0.2133 -0.1510
29162W        W46009  12.522   5.432   4.129 -0.1387 -0.1104 -0.1586
29163W        W46010   0.728  13.871  15.322  0.0944  0.0747  0.1885
29164W        W46011  12.363  15.033  13.167 -0.0566  0.1051 -0.1178
29165W        W46012   7.005   3.546   4.115 -0.1857 -0.0956 -0.0438
29166W        W46013  16.908   3.101   4.912 -0.2240 -0.1211 -0.0599
29167W        W46014   8.981  11.461  16.048 -0.1232 -0.3146  0.0891
29168W        W46015   2.624   5.049   3.126  0.2594  0.1998  0.4028
29169W        W46016   2.437   9.503   3.195  0.0419  0.0667  0.1050
29170W        W46017  12.180   9.865   4.662  0.1340  0.1625  0.2900
29171W        W46018  14.333  17.500  16.108 -0.0183 -0.0060 -0.0671
29172W        W46019   7.442   0.603  16.075 -0.0190 -0.4903 -0.1584
29173W        W46020  17.324   4.401   2.691  0.1681 -0.0967  0.0837
29174W        W46021   5.701  14.840   5.100 -0.1725  0.2278 -0.0918
29175W        W46022  18.174  16.533  16.016 -0.0284 -0.0588  0.2846
29176W        W46023  15.632  17.626   2.643 -0.0367 -0.4048  0.2296
29177W        W46024   2.210   6.331  12.422  0.1493 -0.1202 -0.1749
29178W        W46025   1.291  15.577  12.949 -0.0415  0.1976 -0.3321
29179W        W46026   0.475   3.134   2.930  0.3297 -0.0013 -0.1878
29180W        W46027   9.115  16.170   0.002 -0.0549  0.0821 -0.0287
29181W        W46028  11.897   4.020   3.683 -0.4960 -0.2221 -0.2038
29182W        W46029  14.348   6.026  11.025  0.2836  0.1667 -0.0332
29183W        W46030  12.928  17.755  13.870 -0.2902  0.0767 -0.2474
29184W        W46031  15.632   5.191  12.026  0.0508 -0.1460  0.3184
29185W        W46032  18.008   9.095   4.343 -0.0532  0.1142  0.0289
29186W        W46033   7.465   3.560  12.657 -0.0777 -0.1333  0.1806
29187W        W46034  14.483  12.285  12.074  0.1790 -0.2354 -0.1376
29188W        W46035  15.469  17.604  11.682  0.0465  0.0304 -0.1715
29189W        W46036  17.845   9.433  14.196 -0.1803 -0.0807 -0.0742
29190W        W46037   5.831   8.129   0.092 -0.0457 -0.0038 -0.0212
29191W        W46038   6.407   9.275  14.011  0.0600  0.0918 -0.1847
29192W        W46039  14.937   7.885  12.314 -0.2591 -0.1270 -0.0231
29193W        W46040   0.120  15.977  13.705  0.1641 -0.0730 -0.0124
29194W        W46041   8.099   6.138  14.249  0.1721 -0.0632 -0.0449
29195W        W46042   2.176  15.153  13.393  0.2546  0.4666 -0.0624
29196W        W46043  18.212  14.919  14.544 -0.0074 -0.0834 -0.0734
29197W        W46044  18.161  14.974  13.641  0.0438  0.1884 -0.0796
29198W        W46045   7.504  10.127  12.799 -0.1134 -0.2352  0.1715
29199W        W46046   9.190   8.951  12.869 -0.1003 -0.0519  0.1898
29200W        W46047   6.332   1.175  12.421 -0.0419  0.3235  0.1276
29201W        W46048  17.222  17.099   0.898 -0.3117 -0.2815  0.0302
29202W        W46049  13.247   8.259   4.701 -0.1342 -0.1515 -0.1469
29203W        W46050   1.483  13.128  10.514 -0.0217 -0.0088  0.1636
29204W        W46051   3.225   1.192   4.161  0.0249  0.3509 -0.0458
29205W        W46052  10.014   0.988  15.997 -0.0838  0.3488  0.1221
29206W        W46053   5.184   0.921  13.963 -0.1349  0.0721 -0.0249
29207W        W46054  17.738   4.082   2.521  0.3725 -0.3447 -0.2330
29208W        W46055   3.621  12.537  12.638  0.1416  0.1792 -0.3445
29209W        W46056  15.228  18.418   4.472  0.1576 -0.2072 -0.0756
29210W        W46057  11.610  11.490   1.990  0.0984  0.0828 -0.0213
29211W        W46058  17.722  10.294  15.211  0.1006 -0.1122  0.1803
29212W        W46059   7.867   4.665  13.894 -0.0860 -0.1703 -0.2420
29213W        W46060   8.584   4.092   0.424 -0.1086  0.1368  0.0360
29214W        W46061   8.023  16.748  13.979  0.1653 -0.0550  0.0946
29215W        W46062   0.576  10.986   2.358  0.1613  0.1012 -0.0764
29216W        W46063  18.212  12.011   3.410  0.0509  0.0967 -0.0358
29217W        W46064   5.653   2.680  14.416 -0.1862  0.0956 -0.0344
29218W        W46065   9.652   0.073   2.210  0.0079  0.0103 -0.0484
29219W        W46066   1.498  16.658   2.259 -0.1448 -0.0725  0.2315
29220W        W46067   9.560   2.401  13.891  0.2856  0.1033 -0.1623
29221W        W46068   8.874  10.565   3.281  0.2710  0.0645  0.2476
29222W        W46069  11.672   2.266   1.702 -0.1683 -0.1255  0.0062
29223W        W46070  17.174  10.127  12.820 -0.0622 -0.1889  0.1511
29224W        W46071   8.160   4.718   3.956 -0.3623  0.0182 -0.1776
29225W        W46072  11.096   3.759  15.457  0.2543 -0.4191 -0.1537
29226W        W46073   5.372  13.738  16.019 -0.1778 -0.1639 -0.0258
29227W        W46074  14.859  10.225   5.448  0.2110 -0.0966  0.0718
29228W        W46075   4.460   6.731  11.131 -0.1242  0.2986  0.1664
29229W        W46076   1.740  15.249  12.723  0.0603 -0.0113  0.2056
29230W        W46077  16.605   8.427   3.812  0.0997 -0.1163  0.2685
29231W        W46078  10.200  12.799   4.765 -0.0158 -0.1179 -0.1522
29232W        W46079   9.698  14.357  15.604 -0.1068 -0.1220  0.0837
29233W        W46080  14.762   2.019   3.858 -0.2483  0.3703  0.1765
29234W        W46081  12.658  17.308   3.653 -0.3015 -0.3373 -0.1493
29235W        W46082  15.230  12.900  15.404 -0.0277  0.1795 -0.1068
29236W        W46083   4.877  17.708   2.917 -0.2668  0.1519  0.0080
29237W        W46084  14.093   4.200  12.807  0.2533 -0.0033  0.4481
29238W        W46085  10.071   0.354  14.077 -0.1632 -0.1440 -0.1402
29239W        W46086   5.041   9.405  11.800  0.1912  0.1057 -0.2608
29240W        W46087   7.299  13.124  13.092  0.4288  0.1065  0.1562
29241W        W46088   4.044  10.858  11.377 -0.1132  0.3436  0.0644
29242W        W46089  16.428  18.003  14.618  0.0484 -0.3641  0.0081
29243W        W46090   5.360   9.144  14.570 -0.1487  0.1608 -0.0388
29244W        W46091   9.270  17.896   5.071 -0.0470  0.0126  0.1598
29245W        W46092  13.316   3.594   4.855 -0.0748  0.2319  0.4235
29246W        W46093   9.137   6.183  14.272 -0.2181 -0.1117  0.0424
29247W        W46094   1.805   6.332   3.699 -0.0800 -0.3244 -0.0631
29248W        W46095  10.604  18.080  13.053  0.0211 -0.1428  0.1414
29249W        W46096  18.274   9.183  11.856 -0.3567 -0.0584 -0.2556
29250W        W46097  11.188   9.284   4.565  0.3892 -0.1608  0.1919
29251W        W46098   2.568   3.823  13.567 -0.2089 -0.3850 -0.0628
29252W        W46099  14.468   3.338  16.176  0.0190 -0.1507 -0.1260
29253W        W46100   6.303  12.563   2.506 -0.2214 -0.4103  0.1275
29254W        W46101   5.804   7.509  11.603 -0.2957 -0.1835 -0.3101
29255W        W46102   8.225  15.594  13.706 -0.2701 -0.0414 -0.1520
29256W        W46103  13.557   6.769   4.582  0.0109  0.2415 -0.0600
29257W        W46104  14.868  16.811   3.573  0.1597  0.1138 -0.0724
29258W        W46105   1.246   1.946  11.694  0.0889  0.1568  0.1367
29259W        W46106  16.740   2.508   4.704  0.0999  0.0150 -0.0569
29260W        W46107   1.395   0.619   1.393 -0.2652 -0.0641 -0.0233
29261W        W46108  12.948   7.225  15.243 -0.0920 -0.1585  0.0155
29262W        W46109  11.584  10.365   2.752 -0.1192 -0.1708  0.2615
29263W        W46110  16.946   1.137  15.544 -0.0076 -0.0620  0.1933
29264W        W46111   2.560   9.807  11.582 -0.1970 -0.1537  0.0447
29265W        W46112  10.269  11.540   2.641 -0.0161 -0.3372 -0.2206
29266W        W46113   3.409  15.928  14.799  0.1750  0.1054  0.1672
29267W        W46114  10.160   8.366   1.742  0.1982  0.3289  0.0001
29268W        W46115  12.977   1.463   2.991  0.1134 -0.1884 -0.2887
29269W        W46116   8.503  16.386  15.630  0.2486  0.1254  0.1824
29270W        W46117   7.594   5.271   1.635 -0.0684 -0.3099  0.3023
29271W        W46118   7.872  14.573   4.968  0.0048  0.1146 -0.2890
29272W        W46119  13.745  16.893  14.206 -0.0274 -0.0324 -0.2887
29273W        W46120   7.501   6.053  13.502  0.1201 -0.0716  0.0049
29274W        W46121   1.850   5.761   1.184 -0.3594  0.1548 -0.0977
29275W        W46122  12.895   9.344   3.156  0.1004  0.4167  0.4412
29276W        W46123   9.150   2.543   0.758 -0.1829 -0.1405  0.3474
29277W        W46124   8.557  17.361  12.599 -0.1381  0.3063 -0.1899
29278W        W46125  17.311  12.320   1.318  0.0757  0.1632 -0.0470
29279W        W46126  15.791  15.458  16.299  0.2018 -0.0056 -0.3929
29280W        W46127  18.290   6.802   3.410  0.4239  0.0702 -0.1536
29281W        W46128   7.705   4.153  11.410  0.0533 -0.1636 -0.1888
29282W        W46129   7.044   9.482  12.399 -0.1192 -0.0178  0.0586
29283W        W46130  13.069   6.796   4.662 -0.2050  0.0465  0.1012
29284W        W46131  17.189  10.579   0.053  0.0617  0.0237 -0.2187
29285W        W46132  11.783  17.700  13.283  0.0161  0.1356 -0.0947
29286W        W46133  18.270  12.741  14.408 -0.1865  0.0314 -0.0741
29287W        W46134   7.283   5.406  15.656  0.1183 -0.0632  0.0288
29288W        W46135  12.537   2.690  11.400  0.0087 -0.0088  0.0466
29289W        W46136   7.554  11.460   2.313  0.0148  0.1402  0.0163
29290W        W46137  16.350   4.245   3.753 -0.0341 -0.1159 -0.3356
29291W        W46138   4.460   6.257   2.745  0.0577  0.2083  0.1165
29292W        W46139   7.968  13.719  15.624  0.0035 -0.1760  0.1624
29293W        W46140  15.939   0.782   0.103  0.0543 -0.2019  0.0615
29294W        W46141   7.052  11.994   3.517 -0.0683 -0.0898 -0.1268
29295W        W46142   7.206  17.385  14.757 -0.0265 -0.1549 -0.1312
29296W        W46143  10.216   7.732  13.521  0.2028 -0.3111  0.1102
29297W        W46144  15.462  18.064  11.448  0.2283 -0.2009  0.1309
29298W        W46145   9.820  10.406  13.185 -0.0142  0.3076  0.1615
29299W        W46146   3.675  17.712  11.588  0.0628  0.1082  0.1166
29300W        W46147  14.342   8.119  15.769  0.1795  0.1531  0.0829
29301W        W46148   6.540  15.631   3.322 -0.1717  0.2839 -0.0713
29302W        W46149  15.358   0.692  12.235 -0.0248  0.0190 -0.0740
29303W        W46150   2.551   3.728   1.668 -0.1192  0.2822 -0.0202
29304W        W46151   1.131   5.583  12.024 -0.1219 -0.0227 -0.2645
29305W        W46152   3.615   1.849  15.252  0.0940  0.0752 -0.0276
29306W        W46153  13.008   9.910   5.499 -0.2584 -0.1114  0.1723
29307W        W46154   8.183   2.001   0.070  0.3091 -0.0444 -0.1550
29308W        W46155   9.105  11.396  15.191 -0.1758 -0.0412 -0.0944
29309W        W46156  12.133  12.261  11.655 -0.2806  0.0039 -0.0685
29310W        W46157   0.530   4.670   4.244  0.0086  0.0493 -0.1894
29311W        W46158   9.404  11.321   3.819  0.0746  0.1055  0.2191
29312W        W46159  14.980  11.916  14.109 -0.0987  0.1539  0.0935
29313W        W46160   2.104   5.380  11.879  0.0666 -0.0180  0.1025
29314W        W46161   6.427   5.955  15.468  0.4091 -0.2858 -0.0097
29315W        W46162  14.871   3.848   1.171  0.4185  0.2333  0.4474
29316W        W46163  12.563  17.572   1.129  0.0633  0.1209  0.0809
29317W        W46164   1.747  16.410  14.852  0.0309 -0.1444 -0.1365
29318W        W46165  11.738   3.326  12.939  0.3905  0.1623 -0.3564
29319W        W46166   2.082  12.171   3.386 -0.3613  0.1321 -0.1293
29320W        W46167  11.800   5.269   5.425 -0.0274 -0.1753  0.1647
29321W        W46168   4.432  16.045   4.887  0.0232 -0.0852  0.0938
29322W        W46169  13.199  17.214  12.496 -0.0802  0.0036  0.5442
29323W        W46170   0.386  16.030   2.758  0.0995 -0.0454  0.2195
29324W        W46171   7.447   2.605   3.218  0.1780  0.1074 -0.1729
29325W        W46172  15.565  16.338  15.573 -0.2377 -0.0397 -0.2307
29326W        W46173  11.455  17.442   0.976  0.0512 -0.1047  0.3473
29327W        W46174  14.868  12.538   5.606 -0.2114 -0.0191 -0.0703
29328W        W46175   0.631   2.431   4.793  0.1721  0.2437  0.1507
29329W        W46176  16.629   8.354   5.373 -0.1048 -0.2433 -0.2077
29330W        W46177  11.229   0.993  16.239  0.2249  0.0007 -0.3017
29331W        W46178   7.797  15.019  15.349 -0.1524 -0.1125  0.0274
29332W        W46179  17.798   3.469  14.063 -0.0729 -0.0326 -0.0153
29333W        W46180   2.251   8.704  16.120 -0.2166 -0.0245  0.0859
29334W        W46181   7.230   2.126   3.092  0.1066 -0.0649  0.0445
29335W        W46182  13.391   8.996   5.936 -0.0169  0.1120 -0.1563
29336W        W46183  15.197   0.110  13.061  0.0873 -0.1312  0.0308
29337W        W46184   2.875   7.952   4.051 -0.0379 -0.1537  0.0446
29338W        W46185   2.718   9.316  11.083 -0.3245 -0.1846  0.0456
29339W        W46186   7.266  14.941  12.228 -0.2940  0.0595 -0.3208
29340W        W46187   9.447   7.829  11.523 -0.0382 -0.3855  0.1198
29341W        W46188   8.786   4.105  11.491  0.2660 -0.1572  0.0876
29342W        W46189   7.913   2.889   0.175 -0.0927 -0.0433 -0.1610
29343W        W46190  14.115  13.391  13.681  0.0737 -0.2732 -0.1870
29344W        W46191   2.780   8.737   3.354  0.1695 -0.3793  0.0116
29345W        W46192   4.513  14.481   5.013  0.1411  0.3790  0.2129
29346W        W46193   4.451  18.100   3.128 -0.4079  0.1078  0.2254
29347W        W46194  13.440   5.432  14.240 -0.1406  0.0185 -0.2443
29348W        W46195   5.575  15.134  12.446 -0.1589 -0.1002 -0.1650
29349W        W46196   8.626  14.783  12.277 -0.1804 -0.1772  0.1391
29350W        W46197   4.135  11.042  14.530  0.1166  0.2367 -0.0514
29351W        W46198   8.614  12.148  14.506 -0.0507 -0.3225  0.1271
29352W        W46199   5.480  15.355   1.859  0.3064 -0.0345 -0.0157
29353W        W46200  14.280   1.665  13.204 -0.0479  0.2732  0.0587
29354W        W46201   4.918   9.399  15.649  0.0286 -0.1701 -0.0909
29355W        W46202   6.662   1.815   1.563 -0.2996 -0.3267  0.2402
29356W        W46203   4.909  16.928   2.676 -0.0346 -0.1970 -0.0189
29357W        W46204   9.760  14.586   1.650 -0.2363  0.0096  0.0644
29358W        W46205  13.424   1.054   4.656 -0.2024 -0.2496 -0.1651
29359W        W46206  17.017  15.700   3.973  0.0390  0.1828 -0.0407
29360W        W46207   2.395  15.591   5.347 -0.3397 -0.0950  0.1552
29361W        W46208  12.279  15.174   4.091  0.1439  0.3086 -0.1114
29362W        W46209  10.611  10.219  16.327 -0.3649 -0.4389 -0.0717
29363W        W46210   1.622  12.363  12.906 -0.2767  0.2142 -0.3860
29364W        W46211  17.220  12.804   4.214  0.1327 -0.0009  0.0620
29365W        W46212   3.157  16.571  12.054  0.1918 -0.1506  0.3941
29366W        W46213   9.979  12.307  13.422  0.0782  0.4861 -0.0857
29367W        W46214  11.695  15.314   1.431 -0.0177 -0.2184  0.0759
29368W        W46215  15.156  10.670  14.966  0.1712 -0.1378 -0.0811
29369W        W46216   3.143  16.971   2.976  0.2860 -0.0796  0.2342
29370W        W46217  14.480   9.748  12.032 -0.1188  0.3229 -0.0476
29371W        W46218  15.945   8.592   0.919  0.3657 -0.0055 -0.0578
29372W        W46219   6.655   0.545   5.612  0.0186 -0.5811 -0.4737
29373W        W46220   3.294   6.871   0.389 -0.2380  0.1606  0.3506
29374W        W46221  15.157   2.221   4.207  0.0509  0.3682 -0.1356
29375W        W46222   5.607   4.239  12.787 -0.0963  0.0214 -0.0744
29376W        W46223   3.840  14.879  15.507  0.0229  0.1158 -0.2368
29377W        W46224   0.433   1.882   1.713 -0.4628  0.0793  0.2811
29378W        W46225   9.564  11.787  12.321 -0.1464 -0.0703 -0.3331
29379W        W46226  17.720  15.214   5.282 -0.1621 -0.0024 -0.3249
29380W        W46227   9.740   6.130   4.319 -0.1336  0.1003 -0.1922
29381W        W46228   3.595  16.561  12.349  0.2072  0.2733  0.0577
29382W        W46229  11.655  17.090   1.493  0.1347  0.0939 -0.2388
29383W        W46230   1.304  15.488  14.412  0.1269 -0.0520  0.0282
29384W        W46231  16.213   2.942   2.854  0.5668 -0.0184  0.1641
29385W        W46232   2.589   7.289   0.745 -0.0005 -0.2756  0.0034
29386W        W46233   6.552   5.126   2.694  0.0938 -0.1743  0.1127
29387W        W46234  17.760   6.936  13.798 -0.0848  0.4567  0.1593
29388W        W46235   0.792  11.018  13.497  0.0835  0.1080  0.2093
29389W        W46236   3.729   5.730   5.075 -0.3115 -0.1023 -0.1736
29390W        W46237  13.978   0.951   5.474  0.1731 -0.0606 -0.3089
29391W        W46238   6.325  17.815   0.903  0.1004 -0.2357 -0.0007
29392W        W46239  15.487  16.996   2.613  0.0639  0.0396  0.2278
29393W        W46240   8.631   0.171   6.061  0.1004  0.1516 -0.2811
29394W        W46241  12.527  10.219   4.326 -0.1038 -0.0251 -0.0572
29395W        W46242   1.557  18.018  14.976  0.0506 -0.2390 -0.2615
29396W        W46243  10.688  11.418  13.401  0.0447  0.2015  0.0050
29397W        W46244   2.727   0.393   5.475 -0.3966 -0.0888  0.0398
29398W        W46245  13.372   0.635  12.390  0.1565 -0.3502 -0.0107
29399W        W46246   9.624   0.616  13.679  0.1378 -0.0596  0.1529
29400W        W46247   6.654   2.624  14.580  0.2249  0.2126 -0.3249
29401W        W46248   1.063  15.243  16.038 -0.0275 -0.0790  0.1452
29402W        W46249  17.375  13.494   0.253 -0.0434 -0.0083 -0.2562
29403W        W46250  11.458  10.067   2.401 -0.2317  0.2556 -0.4592
29404W        W46251  11.733   9.782  11.708  0.2095 -0.1236 -0.2473
29405W        W46252  10.619   0.107   1.615 -0.0243 -0.2457 -0.2445
29406W        W46253   2.191  15.927  12.955  0.3157  0.0308  0.0091
29407W        W46254   5.124   4.255   0.437 -0.0144 -0.1699  0.1012
29408W        W46255  11.888   6.468   2.419  0.1894 -0.0707  0.0462
29409W        W46256  11.070   9.322  13.058  0.0200  0.2220  0.0692
29410W        W46257   4.804   1.176  12.902 -0.0002 -0.0319  0.2150
29411W        W46258  10.105   5.059  15.808 -0.0347  0.0022 -0.0720
29412W        W46259   5.320  11.063   4.497 -0.1448 -0.3000 -0.1710
29413W        W46260   2.609   7.261  13.824 -0.2298 -0.0716  0.1992
29414W        W46261   4.183   2.373   3.825 -0.1377 -0.2924 -0.1381
29415W        W46262   9.603  17.099  14.247 -0.3857  0.5114  0.1530
29416W        W46263  17.598   4.761   2.469 -0.1798 -0.0037 -0.2075
29417W        W46264   2.260   6.421  14.323  0.1317 -0.3582 -0.2822
29418W        W46265   9.503   0.109   0.386 -0.3051  0.5389  0.2547
29419W        W46266   0.940  12.152  12.462 -0.1331  0.2889  0.2721
29420W        W46267   4.967  15.837   0.854  0.0977  0.1831  0.2116
29421W        W46268   5.338   0.400  11.097  0.0388 -0.1633 -0.2706
29422W        W46269  17.523  14.715   0.537 -0.1738  0.1434 -0.2163
29423W        W46270   2.907  12.336   5.208  0.1897 -0.0230 -0.0955
29424W        W46271   6.357   3.729   2.575 -0.2666 -0.2924  0.2040
29425W        W46272  10.457   8.361  15.617  0.0965 -0.0319 -0.1703
29426W        W46273  16.683   1.976  15.621 -0.2049 -0.0510 -0.0157
29427W        W46274  12.327   4.293   2.490  0.1386  0.1290  0.0261
29428W        W46275   7.811   0.164   3.472  0.1499 -0.4464 -0.2177
29429W        W46276   7.977  10.071  12.510 -0.2115  0.0675 -0.1480
29430W        W46277   4.387   9.352   3.321  0.0709  0.1401  0.3173
29431W        W46278   1.060   9.882  14.007  0.4493  0.3413 -0.0055
29432W        W46279   1.807   0.468   0.191 -0.1250  0.1639 -0.3489
29433W        W46280  13.334   1.776   0.864 -0.0069  0.0612  0.0290
29434W        W46281   0.886   3.365   0.828  0.1844 -0.0684  0.0439
29435W        W46282   1.860   6.134   0.350  0.2581  0.4088  0.0278
29436W        W46283  17.033  15.859  12.960 -0.3046 -0.2070  0.4326
29437W        W46284  12.100  16.229   3.343  0.1109  0.1761  0.0581
29438W        W46285   7.886   8.070  11.664 -0.0911  0.1739  0.1859
29439W        W46286   6.026  10.187   1.256 -0.0416  0.1716 -0.1448
29440W        W46287  16.853  13.736   1.674 -0.3681 -0.0720 -0.2071
29441W        W46288  15.310   1.990   3.793 -0.0195 -0.0613 -0.1564
29442W        W46289  14.501  14.698  13.400  0.0344  0.0754  0.1078
29443W        W46290   9.195  12.288  15.198  0.1767 -0.1096 -0.1830
29444W        W46291   3.549  11.319   3.928 -0.0388 -0.2167 -0.0047
29445W        W46292  10.165  14.649  15.438 -0.2761  0.0574 -0.2509
29446W        W46293  14.674  17.976   2.856 -0.0657  0.2054 -0.3407
29447W        W46294  11.205   8.742   5.412 -0.1567  0.3066  0.2888
29448W        W46295   8.343  11.950  14.946  0.2994 -0.1919 -0.0413
29449W        W46296   4.173  17.656  16.038 -0.0083 -0.2192 -0.2973
29450W        W46297  18.138  12.535   5.105 -0.1174  0.2616 -0.1836
29451W        W46298   6.260  14.144   2.848 -0.4936 -0.1449  0.3440
29452W        W46299   7.200   5.499   4.453  0.0915 -0.1400  0.0549
29453W        W46300   6.178  11.830  14.775  0.2108 -0.1474 -0.0437
29454W        W46301   7.119   5.702  12.901  0.4557 -0.0007 -0.1899
29455W        W46302   7.376  11.032   4.530 -0.4661  0.0834 -0.0188
29456W        W46303   1.743   3.668   2.165 -0.0482  0.1000 -0.0860
29457W        W46304   0.327   1.979  13.822  0.2676 -0.2356 -0.1136
29458W        W46305  12.622   2.242   4.625  0.0986  0.0901 -0.1351
29459W        W46306   3.139  17.942   4.250 -0.0719  0.2052 -0.3170
29460W        W46307   3.810  18.035  12.924  0.0630  0.1019  0.5078
29461W        W46308   0.151  13.685  13.682  0.1779  0.1023  0.1021
29462W        W46309  16.445  17.825   4.709  0.1495 -0.2423 -0.0930
29463W        W46310   4.118  14.436   4.315 -0.0315 -0.0240  0.0976
29464W        W46311   3.194  15.460   3.355  0.1396  0.2853  0.1126
29465W        W46312   7.587   1.190  15.891 -0.1067 -0.2801  0.1456
29466W        W46313   0.667   0.878  12.433 -0.1666 -0.0610 -0.2741
29467W        W46314  16.962  18.122   3.158 -0.3188 -0.1138  0.1155
29468W        W46315   4.687  12.020  15.746 -0.2358  0.0199  0.1415
29469W        W46316  10.126   1.165   3.799 -0.1531 -0.1418  0.0868
29470W        W46317  10.505   8.596   2.968 -0.3218  0.2527 -0.1210
29471W        W46318   8.194   4.749  12.478 -0.0039  0.0541  0.0250
29472W        W46319  17.578   4.268   4.909 -0.3454  0.0913 -0.0782
29473W        W46320  17.218   4.159   4.138  0.2308 -0.1766 -0.2136
29474W        W46321  17.338   9.710  12.518  0.0551 -0.2417  0.0879
29475W        W46322  15.436   5.528   1.408 -0.4057  0.2561 -0.1691
29476W        W46323   6.897   3.782  11.718 -0.4195  0.2064 -0.2397
29477W        W46324  14.532   0.117   1.586  0.2489 -0.1110 -0.0310
29478W        W46325  14.218   4.621   3.104  0.0188  0.2243 -0.0712
29479W        W46326   1.341  12.208  13.392 -0.0628  0.2518  0.1640
29480W        W46327  15.087   9.373   0.762  0.0752 -0.1210 -0.1579
29481W        W46328  15.014  13.197  16.104  0.2729 -0.3371 -0.1412
29482W        W46329  17.170   9.517   1.968  0.1355 -0.0881 -0.0337
29483W        W46330  13.276   1.869   2.894  0.4347  0.0741 -0.1133
29484W        W46331  12.119   6.164   1.714 -0.0151  0.2268  0.3525
29485W        W46332   0.363   9.173   3.748  0.1438 -0.0641 -0.3783
29486W        W46333  10.603  16.388  10.576 -0.3923 -0.0123  0.4522
29487W        W46334  11.604   0.539   3.922  0.0645  0.0190 -0.2008
29488W        W46335   4.267   3.781  12.492  0.0446  0.3055  0.0080
29489W        W46336   1.742   0.290  11.840  0.1090  0.1194  0.0632
29490W        W46337  14.809  12.178   2.587  0.2122  0.1008  0.0426
29491W        W46338   8.632  11.657   1.145  0.2097 -0.0536  0.0996
29492W        W46339   1.306   0.446  15.124  0.0105  0.1239 -0.0708
29493W        W46340  16.865   1.807   0.090 -0.1542 -0.1530 -0.3692
29494W        W46341   6.123   7.127  15.044  0.1633  0.2526 -0.0417
29495W        W46342   6.719   6.716   2.615 -0.2284 -0.0148  0.1146
29496W        W46343  11.029  18.236   3.772 -0.0070 -0.2230 -0.0788
29497W        W46344  16.902  11.407   1.314  0.0368  0.1479 -0.0701
29498W        W46345  15.134   3.857  13.967  0.2275 -0.1890 -0.2514
29499W        W46346   8.740  17.667   6.065  0.0904  0.0910 -0.0553
29500W        W46347  16.645  10.570   4.133 -0.3244 -0.1086  0.0435
29501W        W46348  11.878   8.317  14.383  0.0829 -0.0099 -0.3745
29502W        W46349  17.301  15.582   2.502  0.3890  0.4272  0.0688
29503W        W46350   0.560   6.071  13.972  0.1461 -0.1115  0.0689
29504W        W46351   3.556   4.827   4.655 -0.1860  0.1163  0.2221
29505W        W46352   3.120   9.754  15.395  0.0929 -0.1440 -0.0605
29506W        W46353   8.931  13.132   4.875 -0.0710 -0.0944  0.2769
29507W        W46354  10.182   8.184   2.899 -0.0833  0.3956  0.2677
29508W        W46355   7.490   5.024  14.819  0.1481 -0.2043 -0.0112
29509W        W46356   4.654  17.208  14.349 -0.0146  0.1978 -0.3948
29510W        W46357   1.144   3.514   3.988 -0.0002  0.1939 -0.2298
29511W        W46358   6.903  16.674  13.298 -0.0071 -0.0114 -0.1338
29512W        W46359  10.138   7.871  14.271  0.0116 -0.0032 -0.0757
29513W        W46360   6.895   9.801  12.848 -0.0727  0.1972 -0.2214
29514W        W46361  16.030  12.778  14.586 -0.0265 -0.2073  0.1469
29515W        W46362   8.682   4.473  13.643 -0.1607  0.2144  0.0634
29516W        W46363  10.389  12.988  14.471  0.0841  0.2158 -0.0966
29517W        W46364   6.621   9.136   3.557 -0.1915 -0.4789  0.1840
29518W        W46365   4.623   7.203  14.188 -0.1176 -0.1929  0.1808
29519W        W46366  13.605  13.181  14.798 -0.1091 -0.2093 -0.1969
29520W        W46367  17.567   3.620  11.873 -0.1914 -0.0482  0.0222
29521W        W46368   0.234   0.289   1.856 -0.1650  0.2141  0.0823
29522W        W46369   2.160   3.582  13.266  0.1741  0.0581  0.2332
29523W        W46370   5.524   9.540  14.872  0.5173 -0.0284  0.4244
29524W        W46371   7.016  15.683  12.910  0.2432  0.0559  0.1788
29525W        W46372   1.835   3.225  11.446 -0.0495 -0.0380  0.2753
29526W        W46373  11.945  10.082   2.399  0.2222  0.3717 -0.1447
29527W        W46374   5.155   7.271  12.640  0.1108  0.0847  0.1122
29528W        W46375   7.187   0.943   3.320 -0.0358 -0.1144 -0.0855
29529W        W46376   8.319   2.323  13.655  0.0773 -0.0211 -0.3463
29530W        W46377   2.911  13.950   1.434  0.0284 -0.0319  0.0055
29531W        W46378   4.876   3.336   3.726  0.3129 -0.1890 -0.0687
29532W        W46379  17.212  11.439   4.449  0.1955  0.0825  0.1470
29533W        W46380   5.811   6.624   3.414  0.0687  0.2720 -0.2180
29534W        W46381  14.816   6.834  11.362 -0.1549 -0.0981  0.0721
29535W        W46382   3.144   1.027   2.593 -0.2301  0.2760  0.0266
29536W        W46383  13.746   5.789   0.576  0.1952 -0.1512 -0.1708
29537W        W46384   7.352  10.305  16.044 -0.0065  0.1243  0.0021
29538W        W46385   5.519  13.883   1.186  0.1089  0.1216 -0.1811
29539W        W46386   6.499  10.736   6.156 -0.0987 -0.0388 -0.2854
29540W        W46387   1.369   5.803   0.369 -0.4198 -0.3078  0.0752
29541W        W46388   7.759  12.025  11.876 -0.0387 -0.0483  0.0497
29542W        W46389   2.434   4.217   4.183 -0.2257  0.1298 -0.5975
29543W        W46390  14.259   7.234   2.392 -0.2447  0.0857 -0.2163
29544W        W46391  11.330   9.279   1.872 -0.3644 -0.0869  0.0063
29545W        W46392   0.756   0.505   3.623  0.1799 -0.2207  0.0132
29546W        W46393   4.607  11.485   5.534 -0.1876  0.2455  0.1855
29547W        W46394   9.712   6.443  13.788 -0.1151  0.0330 -0.0554
29548W        W46395  12.711   5.544  13.547  0.1844  0.1007  0.1923
29549W        W46396   1.484  12.387   2.695 -0.1986 -0.1014 -0.2098
29550W        W46397   2.812   9.062  13.633  0.1798  0.0038 -0.0817
29551W        W46398   0.618   4.155   4.054  0.0433  0.0804  0.2143
29552W        W46399  16.834  17.770  13.315  0.0558  0.3904  0.0940
29553W        W46400   0.492   5.940   2.248  0.3381  0.0703  0.0478
29554W        W46401  16.322   3.169   5.517 -0.2547 -0.0251 -0.0675
29555W        W46402  14.115   3.840   5.276 -0.1567 -0.0715 -0.1209
29556W        W46403   9.515   7.771  14.932 -0.0330 -0.0661 -0.1044
29557W        W46404   8.344  14.693   0.677 -0.1122  0.0052 -0.3097
29558W        W46405   7.148   1.471  16.066  0.2180  0.0301 -0.2335
29559W        W46406   0.985   5.134   1.960 -0.0396  0.0194 -0.2167
29560W        W46407  12.400   8.220  13.443 -0.2885  0.1820  0.2150
29561W        W46408   8.845   8.365   3.853 -0.0565 -0.1788  0.2520
29562W        W46409   3.088   1.842   0.046  0.4272 -0.0874 -0.1888
29563W        W46410  13.523  10.006  15.214  0.1833 -0.1572 -0.1800
29564W        W46411  11.325   2.702  11.795  0.0057  0.0285 -0.2578
29565W        W46412   4.873  11.788   2.568  0.0028  0.0864  0.0031
29566W        W46413   5.387   2.628  12.862 -0.0191  0.0390  0.1096
29567W        W46414   2.593   8.037  11.329 -0.1019 -0.0420 -0.0342
29568W        W46415   2.432  13.626   4.506 -0.2061  0.1852 -0.2637
29569W        W46416  11.368   9.356  15.560  0.0177  0.2572 -0.1829
29570W        W46417   1.703  18.416  15.766  0.2567  0.1885  0.0756
29571W        W46418   6.015  12.328   0.276 -0.1875  0.0124 -0.3024
29572W        W46419   1.484   6.699   4.223 -0.1454  0.2449  0.1320
29573W        W46420   4.234   2.141  14.733  0.1388 -0.1691 -0.1773
29574W        W46421   2.656  13.027   0.077 -0.0067  0.1792  0.0215
29575W        W46422  11.870   7.272  16.093 -0.1546  0.2788  0.1444
29576W        W46423  10.230  10.992   3.451 -0.2310  0.1539 -0.2229
29577W        W46424   0.405  15.051  12.424 -0.3140  0.1703  0.0014
29578W        W46425  11.745  15.215   3.762 -0.1526  0.2208 -0.0207
29579W        W46426   0.898  12.423  16.013  0.0761 -0.1009  0.1815
29580W        W46427   8.140   6.445   4.832  0.1875  0.0165  0.2138
29581W        W46428  13.991   7.277   3.147 -0.1814  0.0316 -0.1088
29582W        W46429   4.732   0.769   2.931 -0.0829  0.0550 -0.3032
29583W        W46430   4.910   4.640  12.091 -0.3317  0.2686  0.0201
29584W        W46431  16.376   4.467   3.248 -0.2531  0.0522 -0.0074
29585W        W46432  15.263   5.535   0.777  0.0362 -0.1808  0.1496
29586W        W46433   4.609   3.476  10.885  0.2402  0.2924 -0.0339
29587W        W46434   4.833   6.576  16.257 -0.0113 -0.3467 -0.1767
29588W        W46435   6.779  12.971  14.354 -0.0996 -0.0408  0.3267
29589W        W46436  17.436  15.167   2.725 -0.2851 -0.2068  0.1543
29590W        W46437   0.770   4.930  14.852  0.0239 -0.1339  0.0610
29591W        W46438   3.050   4.891  15.979  0.1051  0.1001 -0.0682
29592W        W46439   6.234  15.004  13.772  0.1718 -0.0483 -0.0718
29593W        W46440   8.213   5.012   0.164  0.1691 -0.2090 -0.2844
29594W        W46441   1.662   6.716   0.906  0.3129  0.0093  0.0129
29595W        W46442   1.334  11.945  12.972 -0.1002  0.1342 -0.5023
29596W        W46443  14.678   7.173   0.475 -0.0582 -0.2227  0.0753
29597W        W46444   7.717  13.733   5.903  0.0851 -0.1192 -0.0346
29598W        W46445   0.820  17.111  13.678 -0.1091 -0.1171 -0.2236
29599W        W46446  11.301  12.974   0.102 -0.0635 -0.0371 -0.3396
29600W        W46447   1.793   6.820  16.026 -0.1600 -0.0938  0.3569
29601W        W46448  15.897  14.334  13.257  0.0701 -0.1636 -0.3088
29602W        W46449   8.914  12.743  12.158 -0.2885  0.0887 -0.1240
29603W        W46450   8.875  10.310  15.365  0.1900 -0.3479  0.0216
29604W        W46451  10.891   4.540   1.111 -0.3293  0.1043  0.0414
29605W        W46452  10.199   2.721  12.184  0.0695  0.0210  0.1134
29606W        W46453  16.284   1.835   2.145 -0.2245 -0.4676  0.3982
29607W        W46454   3.359   1.442  11.619 -0.0688  0.0092 -0.0333
29608W        W46455   0.080  13.415  14.644 -0.1526 -0.0932  0.1598
29609W        W46456   8.023   1.888   5.338  0.0785 -0.0826  0.1220
29610W        W46457  11.551  17.764   2.163  0.2622 -0.3969 -0.3326
29611W        W46458   6.923  16.511  13.843 -0.3938 -0.0057  0.2412
29612W        W46459   4.174  14.442   0.408 -0.2130  0.0087  0.0571
29613W        W46460  16.289  11.456   2.483  0.0148  0.2280 -0.0838
29614W        W46461   3.702  10.965  12.250 -0.1744  0.2869  0.1264
29615W        W46462   7.047   7.297  11.965  0.0552 -0.0598  0.0153
29616W        W46463   3.921  17.793   3.309 -0.1958  0.0837  0.0679
29617W        W46464  12.301   4.345  15.763  0.0808 -0.2398  0.0368
29618W        W46465   4.739   5.625   3.905  0.1133 -0.0366  0.0382
29619W        W46466   5.251   9.344   0.186 -0.1114 -0.2605 -0.2470
29620W        W46467  10.199   7.279   2.141 -0.2674  0.2744  0.1723
29621W        W46468   9.425  16.774   3.933  0.3147  0.2169  0.1040
29622W        W46469   4.831   0.054  13.951  0.1316 -0.0929 -0.0152
29623W        W46470   2.212  14.731   2.104  0.1502 -0.1013  0.1498
29624W        W46471   4.220  17.856   1.920 -0.4267 -0.1798  0.0867
29625W        W46472   2.697   5.925  15.083 -0.2798 -0.0204  0.0131
29626W        W46473   2.996  17.978  12.904  0.3865 -0.0262  0.0493
29627W        W46474   5.737  16.351  11.615 -0.2143 -0.2313  0.0055
29628W        W46475  10.662  10.973   5.201 -0.1367 -0.1259  0.0372
29629W        W46476  11.897   7.999   3.264  0.1423  0.0747  0.0627
29630W        W46477  15.167  14.049   0.140 -0.0220 -0.3178  0.0632
29631W        W46478  13.892  16.594  16.361  0.1606  0.0014  0.0890
29632W        W46479  18.198  15.934   5.603  0.0303 -0.0190  0.0497
29633W        W46480   4.861  10.744   2.435 -0.0289 -0.0807 -0.0032
29634W        W46481   2.656   2.745   1.086  0.0409 -0.1595 -0.0127
29635W        W46482   8.875  16.055  13.101  0.1831 -0.1701  0.0946
29636W        W46483   3.121   6.503   2.900  0.0593 -0.0579  0.1488
29637W        W46484  16.004  10.211   4.082 -0.3193 -0.1912 -0.0619
29638W        W46485   6.379  17.890   3.839  0.0584 -0.0763  0.0203
29639W        W46486  17.654   8.496  15.918 -0.1429 -0.4345 -0.0224
29640W        W46487  15.893   6.400   0.762  0.0487 -0.2161 -0.0541
29641W        W46488   9.729  13.416   0.660  0.3786  0.0552  0.1554
29642W        W46489  14.818   6.083   2.972 -0.0055 -0.3064  0.0612
29643W        W46490  11.752   5.405   1.128  0.1668 -0.2192  0.1759
29644W        W46491  17.279   7.244  15.035 -0.0150  0.1443 -0.1472
29645W        W46492   7.704   6.859   2.203 -0.1049  0.2236  0.1661
29646W        W46493  13.877   5.741  13.239  0.0340  0.0058  0.1951
29647W        W46494   3.522   2.544  15.707  0.0263  0.0726 -0.0004
29648W        W46495   9.809   6.265   2.213 -0.0833  0.1798 -0.3870
29649W        W46496  12.602  13.026  14.180  0.0307  0.1602 -0.0498
29650W        W46497   3.059  13.290   2.850 -0.0200  0.0293  0.0015
29651W        W46498  13.612  14.904   6.093  0.0120 -0.1142  0.1834
29652W        W46499   1.707  11.438  15.072  0.2307  0.0017 -0.1667
29653W        W46500   4.695   3.385   4.582  0.0368  0.3485 -0.0237
29654W        W46501   7.626   2.143   3.620 -0.1531  0.4879  0.0197
29655W        W46502  10.535   0.623   4.643  0.2023  0.2360  0.2086
29656W        W46503  14.556  15.398  16.271 -0.3867  0.1895 -0.1103
29657W        W46504   7.127  12.451  13.914 -0.0280  0.2003  0.1790
29658W        W46505   8.635   2.862   2.765 -0.0462  0.0473  0.0005
29659W        W46506  18.413  17.405  16.253 -0.1239  0.0849  0.1973
29660W        W46507  14.754   4.435   1.964  0.2927  0.3492  0.0603
29661W        W46508  14.689   0.510  16.192 -0.0637 -0.0916 -0.0936
29662W        W46509  11.782   5.929  12.295  0.2378  0.0789  0.1952
29663W        W46510  14.948  14.276  14.008  0.0789  0.1481  0.3555
29664W        W46511  17.219   0.488  11.645 -0.2987 -0.0044  0.0496
29665W        W46512   4.831  17.063   1.502  0.0434 -0.0366  0.1576
29666W        W46513   4.653   6.932  12.813  0.0142 -0.0941  0.2262
29667W        W46514  15.842   0.077   3.741  0.1013 -0.0542  0.1024
29668W        W46515   2.481  17.343   2.170 -0.1375  0.0847 -0.3037
29669W        W46516   6.629  10.938  13.484  0.0015 -0.1105 -0.0013
29670W        W46517   0.110   9.349  15.881  0.1277  0.0384 -0.0143
29671W        W46518  16.679   1.754  13.799 -0.1134 -0.0578 -0.1861
29672W        W46519   7.097  17.252   2.927  0.4115 -0.2692  0.0945
29673W        W46520  12.181   4.864  13.200 -0.2874  0.1893 -0.0013
29674W        W46521   0.488  10.582   4.199  0.2755 -0.3564  0.0134
29675W        W46522  17.090  10.063  12.256  0.1754 -0.4556  0.0065
29676W        W46523  14.943  16.851  15.961  0.0522 -0.1412 -0.1278
29677W        W46524  14.276  12.747  15.049 -0.1277  0.0202  0.1570
29678W        W46525   1.138  15.823   4.503  0.0058 -0.0289 -0.0209
29679W        W46526   8.400  15.616  12.520 -0.1855  0.2843 -0.0903
29680W        W46527   2.592  13.199  15.403 -0.0428  0.0196  0.3164
29681W        W46528  17.710   5.998   2.884  0.1084  0.1810 -0.4050
29682W        W46529   0.049   6.066  12.708  0.1472  0.1556 -0.1413
29683W        W46530  12.503   2.305   2.794  0.2054  0.1775 -0.3967
29684W        W46531  17.958  14.252  15.102 -0.1636 -0.3477 -0.0734
29685W        W46532   7.767  11.927   2.561  0.0152 -0.2188  0.0860
29686W        W46533   5.610  13.637   3.733  0.1323 -0.2134  0.2220
29687W        W46534  18.104   8.731  13.524  0.0167 -0.0693  0.1248
29688W        W46535   8.064  17.218  11.706 -0.3236 -0.0214 -0.0245
29689W        W46536  11.189   4.161  10.438 -0.1890 -0.0230  0.2897
29690W        W46537  10.377   9.158  14.271 -0.0917 -0.0863 -0.0177
29691W        W46538   5.042  10.404   4.172  0.3279  0.0780  0.0856
29692W        W46539   5.895   2.615  15.727  0.2868  0.3126  0.0626
29693W        W46540  17.430   0.793  12.627  0.0098 -0.1162 -0.2098
29694W        W46541   9.353   8.037   2.616 -0.6065  0.0703 -0.2362
29695W        W46542  17.752   3.347  14.935  0.4550 -0.5212 -0.3157
29696W        W46543   3.174  11.877  14.502 -0.2141  0.1500 -0.3769
29697W        W46544   7.011  13.944  13.306  0.2344  0.0326  0.1195
29698W        W46545  14.670   8.750   3.846  0.1499 -0.1472  0.0784
29699W        W46546  17.808   2.532   0.725 -0.0524  0.1392  0.1092
29700W        W46547  16.408   9.876  12.902 -0.2457  0.0673  0.2945
29701W        W46548  13.487   6.044  12.311  0.1156 -0.0180  0.1155
29702W        W46549  15.290   1.315  15.062  0.0418  0.0336  0.2322
29703W        W46550  10.793  11.748   3.389  0.0066 -0.1949  0.2301
29704W        W46551   6.081  10.373   0.481  0.0745 -0.0660 -0.2991
29705W        W46552  12.173  17.636   2.845 -0.0064  0.0202 -0.0042
29706W        W46553  16.832  11.844   1.046  0.2361  0.1895 -0.0216
29707W        W46554  12.740   8.369   2.170 -0.2429  0.0992  0.3186
29708W        W46555   6.006   2.231   2.658 -0.0481 -0.3324  0.0726
29709W        W46556   3.177   7.048   1.379  0.3902  0.1303 -0.4608
29710W        W46557   6.081  15.528  13.056  0.0701  0.2172 -0.3505
29711W        W46558  16.143   5.050   1.734  0.1540 -0.0795  0.0736
29712W        W46559  15.259   9.758   3.779  0.3048  0.2589  0.0461
29713W        W46560  18.113   2.713   1.245  0.1288  0.0179 -0.0722
29714W        W46561  17.919  12.436   3.891 -0.1863 -0.3202 -0.0173
29715W        W46562   3.388  13.955  16.170 -0.0966 -0.0569 -0.1552
29716W        W46563   0.674  10.048   5.915 -0.0183 -0.1402  0.1604
29717W        W46564   1.981  15.312   0.315 -0.1692  0.3910 -0.1812
29718W        W46565   9.600  17.381   4.629 -0.0071  0.1050 -0.0164
29719W        W46566  15.446   2.452   3.889  0.1119 -0.1114  0.0126
29720W        W46567   7.516  12.763  15.398  0.5080 -0.3542 -0.0032
29721W        W46568  11.515  12.525   4.791 -0.0695 -0.0860  0.0890
29722W        W46569   2.753  17.026   2.606  0.2807 -0.1357  0.4476
29723W        W46570  14.700  10.836  15.294 -0.1179 -0.3198  0.0881
29724W        W46571  17.994  16.864  15.273 -0.1055  0.1658  0.1131
29725W        W46572  15.303  15.574   4.266  0.3712  0.0606 -0.2049
29726W        W46573  10.468  13.402  12.629  0.2903 -0.1289 -0.2983
29727W        W46574  13.788   3.778  12.585 -0.2070  0.1730 -0.1315
29728W        W46575  18.408  14.849   0.852 -0.1646 -0.0129  0.1740
29729W        W46576   5.485   6.854   0.564  0.0468 -0.2062  0.1978
29730W        W46577  14.373   5.677   5.100 -0.0153  0.0582  0.1114
29731W        W46578   5.871   8.580  14.968  0.0499  0.1233 -0.0153
29732W        W46579  17.507   0.300  12.531 -0.0077 -0.0869 -0.2941
29733W        W46580   2.861  10.258  14.208  0.1996 -0.4531 -0.4038
29734W        W46581   0.699   1.094  11.425 -0.3152  0.1493 -0.2998
29735W        W46582   9.196   9.673  13.308  0.3882 -0.0863 -0.3699
29736W        W46583  17.559  13.255  12.925  0.1337 -0.0433  0.1779
29737W        W46584   9.588  14.564   6.257 -0.0557  0.2788 -0.2951
29738W        W46585   6.403   1.269  13.732 -0.0121  0.0490  0.2316
29739W        W46586   9.284  11.004   4.956  0.1486  0.1583 -0.0655
29740W        W46587  18.365   2.682  15.009 -0.1010  0.1659  0.0787
29741W        W46588  16.085   9.578   0.742 -0.1264  0.5177  0.4411
29742W        W46589  11.962   4.457   2.753  0.1243  0.1354  0.3811
29743W        W46590   0.197   8.730  13.288 -0.0284 -0.0485  0.2842
29744W        W46591  12.977   2.599   4.887 -0.0943  0.0441  0.2717
29745W        W46592  16.532  16.647   5.426  0.6646  0.0093  0.4262
29746W        W46593   4.242   3.233  12.236  0.1148 -0.0337 -0.0643
29747W        W46594   1.523   1.688   1.514 -0.3762 -0.0476 -0.2148
29748W        W46595  11.121  11.872   5.507 -0.0896 -0.1387  0.2470
29749W        W46596   4.052   7.433   4.761 -0.2247  0.3086  0.0779
29750W        W46597   0.915  10.125  11.904  0.1023  0.0714  0.0777
29751W        W46598   4.397  13.445  15.081 -0.1716  0.1561  0.0969
29752W        W46599   8.624  11.646  13.052 -0.0801 -0.1334 -0.1631
29753W        W46600  17.243  12.822   2.053  0.0896  0.0086  0.1273
29754W        W46601   1.566  15.251   5.400 -0.1867 -0.1927 -0.1467
29755W        W46602  17.865   1.097   2.470  0.1752 -0.1016 -0.0538
29756W        W46603   8.843   9.490  11.447  0.0392  0.0675 -0.0808
29757W        W46604  17.965  13.086  13.487  0.0360  0.2786  0.1324
29758W        W46605  16.460  14.536   4.933 -0.2488  0.0685  0.0221
29759W        W46606   0.496  11.342   3.209 -0.0109 -0.1910  0.0094
29760W        W46607   2.350   7.339   2.294  0.2812  0.0226 -0.3060
29761W        W46608   1.042  16.666   1.789 -0.2425  0.1944  0.0083
29762W        W46609  17.495  12.145  16.021 -0.1215 -0.0810  0.1132
29763W        W46610  16.826   0.788   1.281  0.2147 -0.1943 -0.1616
29764W        W46611   5.397  15.281  11.662 -0.1345  0.1728 -0.0152
29765W        W46612  17.066  11.929   2.847  0.1207 -0.2140  0.1347
29766W        W46613  16.583   5.196   1.711  0.0100 -0.3011  0.0183
29767W        W46614   5.488  16.716   1.991  0.0985  0.1597  0.0066
29768W        W46615   7.030  16.319   1.650  0.1729  0.2620  0.0412
29769W        W46616   4.456  10.362   4.076  0.1207 -0.0491 -0.1232
29770W        W46617  10.526  15.727  15.742 -0.1176  0.0104 -0.0201
29771W        W46618  15.642   0.860  15.224  0.3856  0.1756 -0.3034
29772W        W46619   3.487   9.264  13.009 -0.1098 -0.4623 -0.3123
29773W        W46620   5.892   1.579   5.155 -0.1721  0.1885  0.0854
29774W        W46621   9.167   6.820   5.689  0.1450 -0.2850 -0.0312
29775W        W46622  15.008  11.941   5.967 -0.2101  0.2515  0.1500
29776W        W46623   7.059   1.548   4.745 -0.0392  0.0395 -0.0492
29777W        W46624  16.565   8.902   5.496  0.3054  0.0581 -0.1577
29778W        W46625  16.168  11.173   5.582 -0.0867 -0.1494  0.1793
29779W        W46626   9.606   3.704  14.104  0.1948  0.0244 -0.0847
29780W        W46627   2.860  14.791   1.214 -0.0400 -0.2431  0.0395
29781W        W46628  17.268   5.463  14.996  0.0675  0.0323 -0.3922
29782W        W46629   3.035   4.214   3.538  0.1548  0.4092 -0.1337
29783W        W46630  15.898   9.993  15.296  0.0128 -0.0967  0.2372
29784W        W46631   1.707   1.390   1.126  0.3393  0.0740 -0.2536
29785W        W46632  11.251  17.483  15.193  0.2037  0.1811 -0.1332
29786W        W46633   5.148  15.379  12.549  0.0173 -0.2677 -0.0367
29787W        W46634  16.227   2.953   0.708 -0.0318  0.1826 -0.3352
29788W        W46635  10.932   7.975   2.279 -0.2356  0.2443  0.1416
29789W        W46636   5.867   8.738   2.360  0.1027  0.2313  0.0072
29790W        W46637   2.091  15.910   2.731  0.1228  0.0431 -0.0024
29791W        W46638   3.983  15.011   3.935 -0.1795 -0.1950  0.2086
29792W        W46639   9.583   9.775   4.736 -0.3880 -0.1894  0.0776
29793W        W46640  13.079  17.211   2.854 -0.3096  0.1760 -0.0466
29794W        W46641  12.776   7.221   0.226  0.0113  0.3328 -0.0713
29795W        W46642   6.779  10.970  12.124  0.4010 -0.1025  0.0875
29796W        W46643   6.763   3.702  16.312 -0.2330 -0.2940  0.2951
29797W        W46644  13.260  14.380   1.797 -0.3905 -0.2315  0.0026
29798W        W46645   4.829  14.843   5.062 -0.2401 -0.0337  0.1483
29799W        W46646   3.773  16.501  12.823 -0.0525  0.0220 -0.3118
29800W        W46647  13.872   8.682   1.303 -0.1771  0.1550  0.0012
29801W        W46648   3.730  14.301  14.205 -0.1047  0.0964 -0.0422
29802W        W46649  17.042  15.452   1.421 -0.2171  0.0063  0.0180
29803W        W46650   5.661  11.462   1.697  0.3064  0.3131 -0.4653
29804W        W46651   2.226   6.302  14.876 -0.0132 -0.1720  0.0432
29805W        W46652   4.682  13.082  16.297  0.2881 -0.1704  0.0303
29806W        W46653   1.551   6.185   4.101  0.0943 -0.0743  0.1375
29807W        W46654   7.144  17.257   5.177 -0.0371  0.1650  0.0436
29808W        W46655   0.686   1.726  12.496  0.1268  0.0233  0.1059
29809W        W46656  14.780  15.837  12.992 -0.1543  0.3858 -0.0843
29810W        W46657   1.777   4.620  13.468 -0.0303 -0.3431 -0.2187
29811W        W46658  10.932   2.830  12.681 -0.0759 -0.0381 -0.3236
29812W        W46659  17.172  10.505  12.529 -0.1724 -0.1838 -0.3443
29813W        W46660   8.979  16.359   3.053 -0.0069  0.2521  0.0792
29814W        W46661  13.650   8.642   1.809  0.1007  0.1821  0.3400
29815W        W46662   2.061  18.185  16.125  0.1422 -0.2599 -0.0111
29816W        W46663   7.523  14.177   5.024 -0.2041 -0.4620 -0.0269
29817W        W46664   6.897  16.237   4.886 -0.0270  0.2875 -0.0117
29818W        W46665  15.529   3.254   3.403 -0.0853  0.0490 -0.5236
29819W        W46666  12.250   2.813   5.443  0.0857 -0.1037 -0.2093
29820W        W46667   7.069  10.401   0.075  0.2202  0.1115  0.1045
29821W        W46668   2.620  17.032  14.103 -0.0418  0.2034  0.0983
29822W        W46669   8.297   8.186  13.896  0.0423  0.2582  0.0810
29823W        W46670  11.584  15.515   0.476  0.0194  0.0051 -0.1410
29824W        W46671   3.857   4.198  14.254  0.4193  0.0680 -0.3644
29825W        W46672  15.112  10.152   1.024  0.1773 -0.1825  0.1998
29826W        W46673   8.068   1.482   1.238  0.1663  0.1825  0.1259
29827W        W46674   2.751   7.626   2.494  0.0532  0.2522 -0.0185
29828W        W46675   4.488  15.914  14.038 -0.3073  0.2393  0.0291
29829W        W46676   4.953  12.271   0.932  0.1199  0.2744  0.3186
29830W        W46677  16.634   5.339   3.602  0.0340 -0.0312 -0.3619
29831W        W46678   6.350  16.526  14.076  0.2429 -0.1474 -0.1175
29832W        W46679  13.156   3.898  14.808  0.1425 -0.0213  0.0821
29833W        W46680  12.650   7.283   5.876 -0.0231  0.0555 -0.1112
29834W        W46681  15.002  12.535  14.991  0.0878 -0.2228  0.3498
29835W        W46682  17.525  13.086  12.335 -0.0247 -0.1566 -0.2760
29836W        W46683  13.018  15.651   3.940  0.1672 -0.0778 -0.2935
29837W        W46684   2.286  16.345   2.962  0.2586 -0.1036 -0.0986
29838W        W46685   3.185  17.659   2.826  0.0495 -0.2360 -0.1471
29839W        W46686   5.982   7.617  14.095 -0.0741 -0.2804  0.2772
29840W        W46687   8.233  15.436  14.193 -0.1048 -0.0908  0.4152
29841W        W46688   8.008   9.340  15.349  0.0098  0.1311  0.0628
29842W        W46689  12.195   2.671  12.225  0.1169  0.1270  0.3344
29843W        W46690   8.277  13.209   3.144 -0.0052  0.2284 -0.0559
29844W        W46691  12.361  14.537  14.098 -0.1845 -0.1475  0.1151
29845W        W46692   6.456  17.675  12.638 -0.3021 -0.0274 -0.0948
29846W        W46693   3.840  11.149  11.740  0.1486 -0.1436 -0.2037
29847W        W46694   4.922   8.474   2.441 -0.0520  0.0968  0.0492
29848W        W46695   9.936  17.384   2.890 -0.0981 -0.0907  0.5073
29849W        W46696   9.427  16.668   3.042  0.0338  0.0885  0.2203
29850W        W46697  10.737   7.969  11.737 -0.0564 -0.1856 -0.1230
29851W        W46698   7.135   3.498  15.346  0.1305  0.3751  0.0744
29852W        W46699   6.135   5.266  12.395  0.0295  0.1787  0.0878
29853W        W46700  14.084   8.287   1.099 -0.3390  0.0410 -0.0945
29854W        W46701   1.305   5.085  11.272  0.2417 -0.0196  0.0793
29855W        W46702  14.392   2.569  15.012 -0.4787 -0.0276  0.0105
29856W        W46703  11.942  15.806   3.101  0.1150  0.2173 -0.1068
29857W        W46704  16.055   3.296  10.106 -0.1641 -0.2620  0.0851
29858W        W46705  15.898  18.036   4.168  0.0441  0.0154 -0.1403
29859W        W46706  13.961   6.464   2.682 -0.0592  0.0411 -0.2590
29860W        W46707   5.730  12.046  13.495 -0.3788  0.0222  0.1065
29861W        W46708   9.292   8.973   4.987 -0.1169  0.0439  0.1785
29862W        W46709  11.331   4.055   1.079 -0.1697  0.0427 -0.1036
29863W        W46710  13.112  16.612  11.112  0.1355  0.0769  0.1385
29864W        W46711   1.064  13.552   0.190 -0.1526 -0.3110  0.2237
29865W        W46712   0.998   0.763   2.268 -0.1857  0.3182 -0.2307
29866W        W46713  15.241   7.066  12.750 -0.0773 -0.2393 -0.0065
29867W        W46714   5.414   5.082  10.864  0.1875  0.0065 -0.1961
29868W        W46715  13.922  14.685  13.160  0.0571 -0.0206  0.0924
29869W        W46716  14.257  10.714   0.878  0.0611  0.0331 -0.0280
29870W        W46717   2.722   9.948  15.089  0.3596 -0.0038  0.3197
29871W        W46718  11.783   9.480   5.444  0.0609 -0.2479  0.1624
29872W        W46719  10.737   1.595  14.337  0.0558 -0.1021  0.3874
29873W        W46720   1.637  12.571   4.529 -0.2701 -0.2400 -0.0611
29874W        W46721  18.134   3.636   3.301 -0.3625  0.2058 -0.0126
29875W        W46722   1.885   3.175  14.585  0.2167 -0.2484 -0.0064
29876W        W46723  16.122  15.722  15.909  0.0227  0.1910 -0.0251
29877W        W46724   5.175   9.379   2.792 -0.0693  0.0316 -0.2958
29878W        W46725  10.444   1.979  13.982 -0.0947  0.0933  0.2422
29879W        W46726  12.645  11.716  15.423  0.0603 -0.1233  0.2012
29880W        W46727   9.641  15.545  12.094 -0.3154 -0.2717 -0.1575
29881W        W46728   6.666  14.381  14.149  0.0976 -0.1117 -0.1358
29882W        W46729  16.669  17.273  11.401 -0.1379 -0.1754 -0.2013
29883W        W46730  11.311  15.040   1.269 -0.3113  0.3769  0.1652
29884W        W46731   5.997   9.346   0.703 -0.2483 -0.2787  0.4558
29885W        W46732  16.480   2.994  13.620  0.2834  0.3873 -0.1099
29886W        W46733  14.872   5.582  14.285  0.3020  0.1327  0.6013
29887W        W46734   7.387   7.180   0.056  0.0205  0.1548 -0.1046
29888W        W46735  15.719   3.964  14.339 -0.1943  0.2846  0.1961
29889W        W46736  14.216  17.571   4.624  0.1611  0.0077  0.0948
29890W        W46737   1.743  12.509  13.340  0.0697  0.3101 -0.0149
29891W        W46738  18.215   5.097  15.231  0.2038 -0.4842 -0.1300
29892W        W46739  17.950   4.089   0.813  0.0740  0.3152  0.0654
29893W        W46740  11.619   2.370  15.798  0.2687  0.0505  0.0362
29894W        W46741  12.553   8.756   4.107  0.2093 -0.2029 -0.0283
29895W        W46742   2.366   6.248   3.796  0.1113 -0.0764 -0.2016
29896W        W46743  12.839  14.020  16.325  0.0038 -0.0049  0.0774
29897W        W46744  16.031   5.477  12.227  0.2558 -0.1323 -0.1294
29898W        W46745   7.252  11.650   1.561 -0.1501 -0.1125  0.1359
29899W        W46746  14.648   7.908   2.872  0.0228  0.0029 -0.4516
29900W        W46747  12.943   6.897   1.003 -0.0188 -0.1946 -0.0684
29901W        W46748   7.258  11.966   3.021 -0.3086  0.0789  0.0713
29902W        W46749  10.027  14.716   4.160 -0.2576  0.2008  0.0534
29903W        W46750  11.391  15.230  12.748 -0.1122  0.2309  0.0870
29904W        W46751   1.489  14.562   6.242  0.1090  0.2572  0.1943
29905W        W46752   7.754  13.536   0.140 -0.3539  0.1029  0.1733
29906W        W46753  11.588  16.248   5.438  0.1703 -0.1935  0.0740
29907W        W46754   3.805   6.628   1.881  0.0719  0.0817 -0.1988
29908W        W46755  16.784  14.747   3.972 -0.2732 -0.0406 -0.0455
29909W        W46756   8.756  17.909   0.304  0.1160 -0.0193  0.2143
29910W        W46757   1.044   9.269   1.510 -0.0192  0.3081 -0.2653
29911W        W46758  15.942   8.007  10.890 -0.1098 -0.1503  0.2045
29912W        W46759   5.118  10.707  13.893  0.3160  0.0101 -0.2254
29913W        W46760  15.827   6.004  15.020  0.0827  0.1064  0.0294
29914W        W46761   7.255   5.698   3.354 -0.0670 -0.2081  0.2164
29915W        W46762   0.931   8.460  14.276  0.0105  0.2189  0.2276
29916W        W46763  11.990  14.195   1.912 -0.0179  0.1879  0.0802
29917W        W46764  10.770   7.676  13.577 -0.2466  0.2773  0.0990
29918W        W46765  15.008   1.523   4.865 -0.1572 -0.3062 -0.2428
29919W        W46766  13.293  11.546   5.426 -0.0044 -0.0058 -0.0015
29920W        W46767  15.858   4.113   3.755  0.2110  0.2247 -0.0351
29921W        W46768   5.812   4.059  13.290 -0.0524  0.2817  0.2029
29922W        W46769   0.620  17.752   3.048  0.2043  0.0630 -0.1667
29923W        W46770  11.575   6.603  12.969  0.1113  0.1960  0.2185
29924W        W46771   3.496   5.980   5.474 -0.0797 -0.3705 -0.3677
29925W        W46772  11.491  10.184  12.497 -0.0916 -0.1580 -0.1214
29926W        W46773   6.166  12.345   5.819  0.1677  0.2180  0.3717
29927W        W46774  13.669  12.888   1.861 -0.3962  0.1716 -0.0204
29928W        W46775   2.585  16.088  12.025 -0.2945  0.2170 -0.0761
29929W        W46776   2.622   0.599  14.272  0.0446  0.1913  0.0752
29930W        W46777   8.846   6.898  12.614 -0.1026  0.0017 -0.2422
29931W        W46778   8.792  10.362  13.592  0.1191  0.0301  0.0147
29932W        W46779   8.943  14.128   5.569  0.1917  0.0599 -0.1609
29933W        W46780  12.455  10.455  13.694 -0.1981  0.3093 -0.1541
29934W        W46781  16.509   1.602  11.291  0.0631  0.1115 -0.0956
29935W        W46782   8.757   7.063   3.243  0.3567 -0.0997  0.1464
29936W        W46783  16.026  15.966  16.357 -0.0627  0.1105  0.0029
29937W        W46784   6.495   5.502   1.140 -0.2797  0.2383 -0.1939
29938W        W46785  12.022   6.153  13.317 -0.0995 -0.3165 -0.1249
29939W        W46786   0.162  12.439   1.447 -0.3249 -0.1627  0.3545
29940W        W46787   9.546   5.285  13.830 -0.0173 -0.1068 -0.2456
29941W        W46788  17.491   9.798  15.144 -0.3614 -0.0354 -0.2165
29942W        W46789   2.661  12.756  15.112  0.1503  0.1224  0.1195
29943W        W46790  10.796  14.988   1.415  0.0009  0.1634  0.0488
29944W        W46791   9.693  11.919  13.764 -0.1492  0.2910 -0.1068
29945W        W46792   7.361   5.119   3.927  0.0609  0.2674 -0.3659
29946W        W46793  11.958   3.327   4.821 -0.1924  0.1675  0.1670
29947W        W46794  18.328  14.070  12.261  0.1455 -0.2746  0.0815
29948W        W46795   7.358  15.710   2.263 -0.2922  0.0083  0.1436
29949W        W46796  17.454   0.761  13.199 -0.0527 -0.0933  0.1923
29950W        W46797   1.227  13.087  14.733  0.0296  0.0898 -0.2611
29951W        W46798   7.922   1.067   0.359 -0.0084  0.3060 -0.1767
29952W        W46799   5.326  14.666   0.109  0.0872 -0.1282 -0.2899
29953W        W46800  12.633   8.477   3.660 -0.1652 -0.0599 -0.3057
29954W        W46801   4.217   9.807  14.371 -0.0461 -0.2584  0.2052
29955W        W46802  13.644   6.373  10.082 -0.0750  0.1839  0.0891
29956W        W46803  15.937  16.815   3.531  0.1257 -0.0903 -0.0348
29957W        W46804   5.790  13.988   5.689  0.1050  0.0547  0.0387
29958W        W46805   6.146   3.120   0.138  0.2914 -0.1466  0.0422
29959W        W46806   3.033   4.642   3.155 -0.1346 -0.0175  0.0742
29960W        W46807  12.264   4.973  11.421 -0.1168  0.2830  0.1454
29961W        W46808  18.092   0.064  14.489  0.1107  0.5460  0.0315
29962W        W46809   2.154   2.575  13.318  0.2840  0.1770 -0.1751
29963W        W46810   8.450  11.826   0.502 -0.5654  0.1781  0.2085
29964W        W46811  17.722  10.730   4.858 -0.0357  0.4416  0.1251
29965W        W46812  12.277   9.996  13.848  0.1698 -0.0427 -0.1560
29966W        W46813  16.386   2.917  10.392 -0.0823 -0.2499  0.3581
29967W        W46814  12.892  11.975   3.205  0.2958  0.1054 -0.1862
29968W        W46815  16.083   4.830   4.887 -0.0230 -0.0600 -0.0652
29969W        W46816   3.043   0.267  14.774  0.1617 -0.2460 -0.0263
29970W        W46817   0.599  13.749  15.778  0.0435  0.0410  0.1453
29971W        W46818   1.038  13.432   1.904 -0.0278  0.1818  0.1615
29972W        W46819   6.175  16.632   2.639  0.0034 -0.2525 -0.1963
29973W        W46820  10.266   7.436  16.018 -0.0997  0.3901 -0.2224
29974W        W46821  11.221  10.943   0.333  0.0632  0.2382 -0.0627
29975W        W46822  11.149   0.999  13.569  0.1102 -0.0529 -0.0194
29976W        W46823   8.685  15.284  12.036  0.1360 -0.4461 -0.0359
29977W        W46824  13.162  11.553   1.564 -0.2326 -0.0344  0.4792
29978W        W46825  10.908   0.983   0.707  0.0612  0.1441 -0.0773
29979W        W46826   8.984  12.529  14.516 -0.2138  0.2826 -0.2483
29980W        W46827   3.881   0.789   2.605 -0.1101  0.1468 -0.0394
29981W        W46828   3.979   2.895   3.688 -0.1710 -0.2692 -0.0015
29982W        W46829   8.360   3.892  12.327 -0.0784  0.0901 -0.2941
29983W        W46830  16.809   7.913  13.566  0.1750  0.0502  0.0102
29984W        W46831   6.979   4.751  12.764  0.3373 -0.2754 -0.2383
29985W        W46832   0.554  13.376   5.712 -0.1592 -0.3627 -0.0543
29986W        W46833   8.598  16.415   5.683 -0.2506 -0.0103 -0.2707
29987W        W46834   6.701  17.116  11.513 -0.3572 -0.0516  0.0470
29988W        W46835   7.599   0.487  13.628  0.0388  0.1344 -0.2801
29989W        W46836  18.041   5.580  15.163 -0.0448  0.1750  0.1416
29990W        W46837   2.058   3.218  12.763 -0.1442  0.1438 -0.1193
29991W        W46838   2.443  12.709  13.092  0.0186  0.0269  0.1401
29992W        W46839  15.945   2.218   3.975  0.1024  0.2884  0.1312
29993W        W46840   9.533  10.960   5.587 -0.5756 -0.2777 -0.0483
29994W        W46841   4.991  16.621   1.234  0.1264 -0.2120  0.0852
29995W        W46842   1.075  11.137   3.583  0.2261  0.0397  0.0208
29996W        W46843   8.783  16.322  13.506  0.1322  0.6834  0.1900
29997W        W46844   2.075   8.517  13.383  0.0591 -0.1200 -0.1044
29998W        W46845  14.498  17.754   2.283 -0.1203  0.2119 -0.2121
29999W        W46846   4.928   9.562   3.140  0.0320  0.0435  0.0543
30000W        W46847  18.409  15.049   4.297 -0.2319 -0.3143  0.3563
30001W        W46848   3.293  14.771   2.699 -0.0679 -0.0463 -0.1025
30002W        W46849   9.867  16.027  11.966 -0.1877 -0.1101  0.1807
30003W        W46850   7.799   0.707  14.748  0.2078 -0.1950 -0.2697
30004W        W46851  14.997  12.194  12.273 -0.0415 -0.0857 -0.3938
30005W        W46852   2.686   5.846   1.684  0.1988 -0.0155  0.0865
30006W        W46853  17.538  14.765   2.453 -0.2306  0.1276  0.0472
30007W        W46854   5.048  16.567   3.826  0.1206 -0.1009 -0.0871
30008W        W46855   5.223  14.758  14.846 -0.3080  0.0991  0.2250
30009W        W46856   6.365   3.825   4.619 -0.1339  0.0991  0.2085
30010W        W46857  14.855   1.176  14.674  0.3742 -0.2533  0.1879
30011W        W46858   3.552  18.329   1.048  0.1521  0.1851  0.1755
30012W        W46859   0.898   9.546   2.214 -0.0658  0.2428  0.1961
30013W        W46860  12.302  12.521   1.811 -0.0521 -0.1889 -0.1386
30014W        W46861   0.582   1.300   4.302 -0.0598 -0.5169 -0.4279
30015W        W46862  15.468   5.361   3.370  0.0451 -0.2514  0.0613
30016W        W46863  14.153  11.852  11.296  0.0991  0.1735 -0.0356
30017W        W46864   6.325  12.557   0.584  0.3162 -0.6127  0.2820
30018W        W46865   1.532   7.779   4.681  0.0091 -0.0477  0.1458
30019W        W46866   7.720   0.538  14.264  0.4416  0.2230 -0.1160
30020W        W46867  17.785  11.279   3.856 -0.0992 -0.1786  0.3306
30021W        W46868   6.446  13.162  12.944 -0.3354  0.2486 -0.1059
30022W        W46869   1.158  16.798  14.018  0.1687 -0.1000  0.0719
30023W        W46870  14.947   5.240   2.414 -0.1991 -0.3856 -0.1551
30024W        W46871   5.603  15.975  13.300 -0.2077  0.1429  0.1286
30025W        W46872  15.490   0.395   4.627 -0.0428  0.2605 -0.0489
30026W        W46873  14.115  18.068  15.171  0.1776  0.0514  0.0520
30027W        W46874  13.590   7.057   0.049  0.1696  0.2241 -0.2285
30028W        W46875   2.892   0.353   6.452 -0.0473  0.1422  0.3538
30029W        W46876   9.850  13.232  11.793  0.2291 -0.1415 -0.3747
30030W        W46877  17.376   7.409  15.916  0.1079 -0.0545  0.1184
30031W        W46878   8.696  10.972   1.690  0.0480  0.0443 -0.1729
30032W        W46879   4.920  16.536  12.172  0.0536  0.1140 -0.0425
30033W        W46880  14.614  13.282   5.862 -0.2381 -0.0189  0.1032
30034W        W46881   0.800  15.451  14.645 -0.0832  0.0703 -0.0629
30035W        W46882   6.931   0.414  15.172  0.0678 -0.0293  0.1828
30036W        W46883   9.922   7.700  12.868  0.1999 -0.2597 -0.0112
30037W        W46884   5.154  12.876  15.995 -0.4287  0.1300  0.2086
30038W        W46885   3.784  12.270   3.517  0.2390  0.1987  0.1727
30039W        W46886  10.310  17.000   4.141 -0.1886  0.1836  0.1319
30040W        W46887   0.251  14.349  12.434 -0.0658 -0.0560 -0.2362
30041W        W46888   9.537  15.471  16.102 -0.0847 -0.2028  0.3176
30042W        W46889  12.905   0.287  12.225  0.2405  0.0290 -0.0636
30043W        W46890   0.084   3.412  12.082  0.0441 -0.0595  0.0852
30044W        W46891  15.975   2.164  11.771  0.2414  0.0007 -0.1779
30045W        W46892  11.233  15.644   4.726  0.0342 -0.0834 -0.2527
30046W        W46893  12.030   0.295   2.053  0.0352 -0.0388  0.2310
30047W        W46894   6.647   1.372  14.215  0.4640  0.1859 -0.3148
30048W        W46895   0.138  14.847  10.759  0.0266 -0.0213  0.1799
30049W        W46896  12.813  10.975   0.629  0.2223 -0.1758  0.2023
30050W        W46897   5.981  14.262  14.299  0.0429  0.1602  0.0345
30051W        W46898   9.538   7.337  11.578  0.2424 -0.1605  0.1298
30052W        W46899   7.635   3.248   5.365 -0.4141 -0.2127 -0.1719
30053W        W46900  15.895  14.015   5.620  0.2210 -0.3462 -0.0163
30054W        W46901   0.421   1.358  13.435  0.0176  0.2122 -0.2346
30055W        W46902   9.955   5.863  13.178  0.1856 -0.2200 -0.0749
30056W        W46903   6.136   0.366   5.540 -0.1157  0.0757 -0.3884
30057W        W46904  16.083   0.596   0.572 -0.1425  0.1216  0.0485
30058W        W46905  16.473  16.281  14.697  0.0756  0.1538  0.0790
30059W        W46906   7.352   7.480   5.698 -0.0713  0.0760  0.1830
30060W        W46907   8.516  16.623   1.328 -0.1859  0.0076  0.0906
30061W        W46908   8.286  17.826   2.210 -0.2012  0.2232  0.2393
30062W        W46909   8.782  14.291  15.357  0.0938 -0.0592  0.0377
30063W        W46910   5.140   2.482  13.608 -0.1390 -0.1127  0.1110
30064W        W46911  12.519  14.576  13.073 -0.4354 -0.0247  0.0605
30065W        W46912  12.372   8.939   1.646  0.0293 -0.0417 -0.1061
30066W        W46913  10.148  16.480   2.387  0.1298 -0.0550  0.1527
30067W        W46914  10.724  15.528   0.520  0.1545  0.1856 -0.1459
30068W        W46915  14.389   9.633   3.292  0.0179  0.1395 -0.1803
30069W        W46916   6.677   7.379  11.568  0.0380  0.0537  0.1803
30070W        W46917  15.831   3.617   0.328 -0.2393 -0.1021 -0.0537
30071W        W46918  15.960   1.559  14.589 -0.0570 -0.1326 -0.0588
30072W        W46919   9.007   0.021   2.773  0.1996 -0.1144  0.1076
30073W        W46920  11.373   4.568   0.886  0.4264 -0.0415 -0.0551
30074W        W46921   8.180  17.271   2.425 -0.1404  0.0488  0.1418
30075W        W46922   1.502  10.873  15.509 -0.1969  0.2510  0.0907
30076W        W46923  16.900  13.876   3.221 -0.1224  0.0258 -0.2165
30077W        W46924   8.306   2.671   3.757  0.2158 -0.0814 -0.2017
30078W        W46925   7.046   9.714   5.466  0.0707  0.0216  0.1427
30079W        W46926   1.541   0.822  15.394 -0.2959  0.0551  0.2573
30080W        W46927   4.633   9.986  13.953 -0.0119 -0.0547  0.0725
30081W        W46928   0.091   8.752  11.953 -0.0158  0.1805  0.3787
30082W        W46929  10.781  13.606   5.161 -0.0494 -0.1264  0.0280
30083W        W46930  10.992  18.098   1.528 -0.0798 -0.1468 -0.0983
30084W        W46931  17.014   3.316  14.721  0.0519 -0.3435 -0.0738
30085W        W46932  16.247   7.798  15.849 -0.1321  0.0950  0.1681
30086W        W46933  15.671   5.736  13.697  0.1865  0.2066 -0.0677
30087W        W46934  14.895  13.129   3.442 -0.0295 -0.0236 -0.3332
30088W        W46935   9.977   3.635   0.043 -0.3321 -0.0839 -0.2751
30089W        W46936  12.614   0.905   1.553  0.2416 -0.0675  0.1689
30090W        W46937  16.712  13.487  15.414 -0.2086  0.3931 -0.0285
30091W        W46938   3.214  16.483   3.090  0.1148 -0.0745 -0.1105
30092W        W46939  16.551   1.877   0.917  0.0885 -0.1922 -0.4620
30093W        W46940  12.427  14.144   1.063 -0.0685  0.0289 -0.0573
30094W        W46941  16.844   6.281  15.015 -0.0386 -0.2335 -0.0501
30095W        W46942   5.672  13.146   4.659  0.0892 -0.1281 -0.1182
30096W        W46943   9.827   2.120  15.634 -0.0287 -0.1411 -0.1243
30097W        W46944   1.765   2.221  15.581 -0.2265 -0.0056  0.0450
30098W        W46945  17.328   8.210   2.336  0.1802 -0.2045  0.3352
30099W        W46946   4.882   4.719   0.441  0.0890 -0.0960 -0.1568
30100W        W46947  15.178   4.739   3.314  0.0288 -0.3786 -0.1824
30101W        W46948   1.665   0.538  12.969 -0.1802 -0.0410  0.3131
30102W        W46949   3.926  16.572  14.307  0.1187  0.1083  0.0603
30103W        W46950  14.659  17.201  16.353  0.1582 -0.1042  0.0251
30104W        W46951   2.589   9.194  16.166  0.0382  0.0281 -0.1421
30105W        W46952  15.931   8.493   4.180 -0.0638 -0.1035 -0.0996
30106W        W46953   0.657  14.467  16.163 -0.2882  0.1033  0.1140
30107W        W46954  13.792   8.241  13.048 -0.0268  0.0167  0.2440
30108W        W46955  11.139   6.166   2.870  0.0333 -0.1796  0.0631
30109W        W46956  17.469  14.422   5.711 -0.1035  0.0906 -0.1337
30110W        W46957   1.506   5.921  12.274  0.4052 -0.1880 -0.0972
30111W        W46958  11.408   7.448   4.124 -0.0387  0.3137 -0.0574
30112W        W46959   7.448  16.720  10.549 -0.1080  0.0595 -0.0542
30113W        W46960  14.789   0.032  12.717 -0.0676 -0.2252  0.1189
30114W        W46961   6.406  10.695  15.884  0.0178  0.0361  0.2220
30115W        W46962   5.981   0.103   0.364  0.0231 -0.0719 -0.0890
30116W        W46963   4.293  18.253   5.691 -0.1541  0.3662  0.3632
30117W        W46964   8.921  12.077   5.603 -0.0374  0.2230  0.0116
30118W        W46965  14.436   5.688  10.055  0.0747  0.0524 -0.0585
30119W        W46966   7.729  12.018   1.020 -0.1304  0.0331 -0.2024
30120W        W46967  14.242  10.168   2.236  0.3757  0.1400  0.1276
30121W        W46968   9.560   2.094   2.359 -0.0698 -0.0862 -0.0672
30122W        W46969  10.521  10.998   2.884  0.1972  0.0527  0.1439
30123W        W46970  10.024  15.675   5.068  0.2157  0.0613 -0.2051
30124W        W46971  10.515  10.837  14.102  0.2366 -0.0735 -0.0459
30125W        W46972   0.582  18.137  14.757  0.0816  0.2901 -0.1279
30126W        W46973  17.096   5.179   1.896 -0.0031 -0.3490  0.1728
30127W        W46974  16.985  16.523  14.987 -0.0281 -0.0688 -0.1316
30128W        W46975   8.831  17.308  11.456  0.0797 -0.0597  0.0902
30129W        W46976  16.199  15.487  13.345 -0.0588  0.0912 -0.1328
30130W        W46977  11.876   3.670  13.935  0.2769 -0.0102 -0.1091
30131W        W46978   2.464  15.628  11.775  0.1553  0.0644 -0.0657
30132W        W46979  13.402  11.159  13.094 -0.1080  0.0537  0.0777
30133W        W46980  14.420  12.159  12.609 -0.1544  0.0710 -0.0916
30134W        W46981  13.187  11.265   0.611  0.0665  0.1210  0.0596
30135W        W46982  14.426  15.410  11.876 -0.0515  0.1672 -0.0699
30136W        W46983  10.202   0.665  14.539 -0.2180  0.1702  0.0449
30137W        W46984  18.392   9.958   0.590 -0.0430 -0.4331  0.0188
30138W        W46985   5.576   0.906  15.989 -0.1467 -0.3143  0.2396
30139W        W46986  17.214  14.499   5.285  0.1671  0.3225 -0.0726
30140W        W46987   0.397   1.392  14.880  0.1484 -0.0104  0.1077
30141W        W46988  12.237  15.154  11.703  0.4233 -0.0362  0.1866
30142W        W46989  15.195  13.522   1.013 -0.0317  0.1719  0.2834
30143W        W46990  10.015  11.099  14.866  0.2264  0.1085 -0.1217
30144W        W46991   4.426   7.644  11.946  0.1816 -0.2639 -0.1243
30145W        W46992  16.003   9.808   1.996  0.0568  0.1663 -0.2086
30146W        W46993   9.734  17.077  16.322  0.3235  0.3645  0.0171
30147W        W46994  16.284   9.893  14.899 -0.0854  0.0146 -0.0420
30148W        W46995   2.629   9.769   4.523 -0.1398 -0.1012  0.1188
30149W        W46996   7.443  17.537  12.254  0.1900  0.1300 -0.1537
30150W        W46997   5.836   0.926  14.600  0.0166 -0.1264  0.0324
30151W        W46998   2.864   0.060  10.955 -0.1343  0.1619 -0.2162
30152W        W46999  14.340   3.978   0.912 -0.2915 -0.0918  0.2095
30153W        W47000   9.303  15.139  13.301 -0.2701 -0.0154  0.1625
30154W        W47001   7.386   3.495  10.192  0.1910  0.1854  0.3769
30155W        W47002  17.512   6.554  12.371 -0.1516  0.2531  0.0599
30156W        W47003   0.053   1.543   1.677  0.3402  0.1189 -0.1439
30157W        W47004  16.880  13.641  15.849  0.1242  0.0057 -0.0931
30158W        W47005   1.018  17.390   3.076 -0.2418  0.0703 -0.0414
30159W        W47006   3.396  15.657   5.575 -0.0502 -0.4052  0.0149
30160W        W47007  17.742  12.363   2.634 -0.1647 -0.0879  0.1717
30161W        W47008   8.004   7.576   1.920 -0.0231 -0.3238  0.3140
30162W        W47009  17.352   5.861  11.695 -0.1793  0.1545  0.1234
30163W        W47010  17.159   8.754   5.028 -0.0537 -0.2195  0.1038
30164W        W47011   2.823   5.391  14.681  0.2134 -0.0661  0.1333
30165W        W47012  12.633  17.585  11.329 -0.2654 -0.1297 -0.4194
30166W        W47013  13.637  13.908   3.583  0.3779 -0.0005  0.4126
30167W        W47014   9.475   2.883  12.934  0.0350  0.1925  0.2001
30168W        W47015  17.503   3.723   4.815 -0.1904 -0.0677 -0.0618
30169W        W47016  13.335   6.959   4.206  0.2661  0.0038  0.0153
30170W        W47017   3.930   5.481  11.802  0.0710 -0.0543 -0.0490
30171W        W47018   6.058   1.672  15.723 -0.1170 -0.2818 -0.4304
30172W        W47019   5.868   6.333  14.208  0.0519  0.0911  0.0354
30173W        W47020   9.934  16.406   1.342  0.1052  0.0301 -0.3688
30174W        W47021  15.409   1.676   3.382 -0.1018  0.0837  0.0284
30175W        W47022  10.068   1.436   0.034  0.0477  0.1007  0.0089
30176W        W47023   6.982   7.259   3.423  0.0113  0.1383  0.1903
30177W        W47024   6.615   4.071   0.313 -0.1230 -0.0500 -0.2391
30178W        W47025  16.212  16.959  12.757 -0.0798  0.1360 -0.1378
30179W        W47026  13.983  16.535  15.796  0.1357  0.0292 -0.0015
30180W        W47027  17.480  15.306  15.301 -0.0286  0.0555 -0.0046
30181W        W47028  17.457  12.999  15.435 -0.2327  0.2035 -0.1954
30182W        W47029   6.084   7.901  16.043 -0.0495 -0.1234 -0.1190
30183W        W47030   2.872  10.016   0.829 -0.0043 -0.0192 -0.0142
30184W        W47031  15.441  14.082  13.387  0.1476 -0.0221 -0.2250
30185W        W47032   4.923   2.148   5.882  0.1259  0.0586  0.0087
30186W        W47033   6.582   1.287   4.841  0.2372 -0.0161  0.0124
30187W        W47034  15.404   9.276   0.343 -0.1782  0.1594 -0.0650
30188W        W47035   0.815   8.054   2.496  0.0533  0.0929  0.0165
30189W        W47036  14.545  11.767  14.318  0.5072  0.0545  0.1637
30190W        W47037   9.777  10.910   4.786 -0.0781 -0.0707 -0.0166
30191W        W47038  11.742  15.480   4.575 -0.1148 -0.0858  0.1421
30192W        W47039  16.244   8.357   2.428  0.1496 -0.0975  0.1050
30193W        W47040  11.150   1.605  15.080  0.0501 -0.3085  0.2829
30194W        W47041   9.978   7.998  12.422 -0.0670 -0.2347  0.2186
30195W        W47042   1.219   5.592   0.782  0.1795 -0.0481 -0.1121
30196W        W47043  11.161  14.093  16.197 -0.2998 -0.2376 -0.0262
30197W        W47044  16.067   0.444   4.360  0.2254  0.4605  0.0502
30198W        W47045  15.728  13.210  16.064  0.3802  0.2802 -0.0328
30199W        W47046  15.500  14.696  14.971 -0.0755  0.1290 -0.1273
30200W        W47047  13.668   7.307  15.926 -0.0138 -0.2174  0.2518
30201W        W47048  11.037   3.616   5.364 -0.3372 -0.1506  0.3177
30202W        W47049  10.223  16.414  12.218  0.3670 -0.1037 -0.4090
30203W        W47050   6.453   4.367   5.852  0.3122  0.0197 -0.3105
30204W        W47051   3.209   2.997  14.819  0.0988 -0.4679  0.1851
30205W        W47052   2.711   4.630   2.742  0.0242  0.0451 -0.0685
30206W        W47053   7.688  11.192   4.097 -0.0344  0.3949 -0.1322
30207W        W47054   8.500  13.098   3.619 -0.2503  0.4723 -0.3441
30208W        W47055   1.315  13.409  12.136  0.0590  0.0032  0.0650
30209W        W47056  15.613  11.099  12.425  0.0392 -0.0773 -0.1159
30210W        W47057   4.543   3.765   4.840  0.2751 -0.2399 -0.4128
30211W        W47058  12.672   9.847  16.037 -0.1929  0.1473  0.0218
30212W        W47059   1.734   1.667  11.464  0.2441  0.0488  0.0284
30213W        W47060   0.283  15.820   5.598  0.2575 -0.0507 -0.1134
30214W        W47061   5.817   1.376   0.866  0.0480  0.2850 -0.1312
30215W        W47062   6.139   2.026  12.831 -0.3740 -0.0126 -0.3485
30216W        W47063  11.350   8.115   0.080 -0.3572 -0.1897 -0.0286
30217W        W47064   3.813  14.043   4.557 -0.2707 -0.0287 -0.0053
30218W        W47065   9.976   4.808   5.238 -0.1436 -0.1436  0.2585
30219W        W47066   0.327   6.648  12.056  0.1969 -0.1326  0.0562
30220W        W47067  14.940   7.447  16.012  0.0846  0.1121  0.1577
30221W        W47068   3.009   6.337   3.342 -0.0043 -0.0992 -0.2489
30222W        W47069  16.959   0.584  12.460  0.1284  0.0107 -0.2044
30223W        W47070   3.078   5.415   4.106 -0.2012  0.0619 -0.0871
30224W        W47071  16.377   7.109  11.091 -0.0401 -0.1685  0.0026
30225W        W47072   0.231  16.594   3.755  0.2620 -0.1871 -0.1193
30226W        W47073  17.702  18.312   3.655  0.1619  0.1124  0.1499
30227W        W47074   2.770   3.144  14.406  0.1222  0.0856 -0.1540
30228W        W47075   6.578   9.523  14.421  0.2997 -0.2605 -0.2053
30229W        W47076   5.127   5.296   5.142  0.1229 -0.2055 -0.1308
30230W        W47077  16.194   8.853   2.606  0.1871 -0.1038  0.2623
30231W        W47078   9.869   9.387  15.371 -0.1116  0.0894  0.0194
30232W        W47079   6.220   2.487   1.899  0.4207 -0.2082 -0.3546
30233W        W47080  18.193   2.166  14.794  0.1738  0.1295  0.0150
30234W        W47081   5.112   4.965  14.227 -0.0774 -0.1371  0.0097
30235W        W47082  12.536   1.330   4.280  0.2063  0.1429  0.1318
30236W        W47083   3.441   3.689   1.027 -0.0440 -0.0497  0.0194
30237W        W47084  12.667   1.660   3.339  0.2175 -0.0774  0.0146
30238W        W47085  17.904   8.396  14.657  0.1582  0.0337 -0.0226
30239W        W47086   6.427   2.722  14.135 -0.3370  0.1093  0.1562
30240W        W47087  15.613  11.853   2.930  0.3168 -0.2252 -0.3875
30241W        W47088   0.531   8.328   4.916 -0.0762 -0.0599  0.1295
30242W        W47089   9.329  16.731  14.070  0.0292 -0.0767 -0.1868
30243W        W47090  12.759  11.393   0.888  0.1427  0.3449  0.0454
30244W        W47091   3.200   1.538   2.537 -0.2364  0.0409  0.0500
30245W        W47092  17.867  17.653   2.563  0.2401  0.2043  0.6143
30246W        W47093   7.586   1.046   3.969 -0.3471  0.1510 -0.3216
30247W        W47094  13.595   5.852  15.616  0.0837  0.3603  0.5038
30248W        W47095  13.538   5.049   2.357 -0.3650 -0.0456 -0.1436
30249W        W47096  18.244  13.023   4.351 -0.3564 -0.2352  0.0450
30250W        W47097   3.781   0.673   4.544  0.3480  0.2338  0.0200
30251W        W47098   2.305  17.437   5.817 -0.0714 -0.4472  0.1081
30252W        W47099   7.678  14.254   3.245 -0.0534  0.0183  0.0216
30253W        W47100   6.522  13.471   4.029 -0.2146  0.2364  0.0386
30254W        W47101   5.779   9.632  12.563 -0.0787  0.3201 -0.0554
30255W        W47102  13.014  17.947   0.122  0.0125 -0.1473 -0.2981
30256W        W47103   9.841  17.940   4.201  0.2490 -0.0533 -0.0894
30257W        W47104  13.672   2.435  10.949  0.5306  0.1265 -0.1536
30258W        W47105  13.515   3.220   5.075 -0.0806 -0.1955 -0.0161
30259W        W47106  18.061  14.607  11.500  0.1919 -0.1278 -0.0697
30260W        W47107  14.390   2.973   1.584 -0.2114 -0.3370  0.2135
30261W        W47108  10.379  15.451   3.097  0.0298  0.1176  0.3001
30262W        W47109   9.500   7.564   1.623  0.2372  0.2759  0.1479
30263W        W47110   8.844  13.414   0.658 -0.0399 -0.3439  0.0187
30264W        W47111   4.128  16.835  11.963 -0.2534 -0.1552 -0.0885
30265W        W47112   2.928   4.110  12.116 -0.1374  0.1531 -0.4286
30266W        W47113  12.147  11.452  11.661 -0.1321 -0.3070  0.1167
30267W        W47114   5.565  15.157   5.885  0.0790 -0.0531 -0.0569
30268W        W47115  14.966  15.934   5.201  0.0442 -0.2315  0.1315
30269W        W47116  10.616   7.247  15.618  0.0311  0.1408 -0.2606
30270W        W47117   4.165   8.741   5.166  0.0095 -0.0861 -0.0916
30271W        W47118   1.587   8.871  10.678 -0.1579  0.0657 -0.0955
30272W        W47119   9.587  18.247   1.265 -0.2397 -0.1700  0.1791
30273W        W47120   5.188  17.642  15.944  0.0534  0.2995 -0.3089
30274W        W47121  12.746   9.012  15.339 -0.4174  0.3096 -0.0958
30275W        W47122   0.470   1.277   2.960 -0.1069 -0.1477  0.0375
30276W        W47123   5.218  17.856  15.439 -0.1741 -0.1354 -0.0362
30277W        W47124  11.377   8.684  15.015  0.3040 -0.1491 -0.0719
30278W        W47125   7.541  10.520   4.507  0.2128 -0.3399  0.2078
30279W        W47126  11.547   4.057  13.152 -0.4058  0.3100  0.0146
30280W        W47127   8.194  13.028  14.731  0.0039 -0.3900  0.2148
30281W        W47128  13.244   4.183   2.191  0.0804 -0.0265 -0.1722
30282W        W47129   1.153   2.894  15.439  0.2276 -0.2670  0.5851
30283W        W47130   8.049  11.423   4.373  0.0420 -0.0854 -0.0483
30284W        W47131   5.828  10.872  12.811  0.0619 -0.0889 -0.0089
30285W        W47132  16.018  11.016  15.392 -0.2656 -0.1361 -0.2855
30286W        W47133   3.227  17.706  11.464  0.1722 -0.2891 -0.0030
30287W        W47134  11.174  14.687  12.960  0.2124  0.1119  0.3337
30288W        W47135   9.566   9.412   2.535 -0.0150  0.0552  0.0868
30289W        W47136  14.787   8.890  11.671  0.0961 -0.1204 -0.3515
30290W        W47137  14.953  10.514   3.123  0.1249  0.0148  0.0677
30291W        W47138   7.093  15.749  12.237 -0.0075 -0.0078 -0.0557
30292W        W47139   7.161   2.116   0.843  0.1474 -0.0697  0.0322
30293W        W47140  14.401   5.573  15.319 -0.0281 -0.3526  0.2396
30294W        W47141  16.784  14.320   2.355  0.0724  0.4519  0.1359
30295W        W47142  13.069   1.262   4.337  0.2100  0.0234 -0.2439
30296W        W47143  13.471  14.709   2.790 -0.1546  0.0585 -0.0197
30297W        W47144  11.137  17.214   1.342 -0.0437  0.4004 -0.0035
30298W        W47145  14.619   0.811   3.469  0.0705 -0.0899  0.1446
30299W        W47146   0.098  15.557  13.980 -0.3491  0.0547 -0.1411
30300W        W47147   5.634   0.392  15.851  0.0733 -0.3679  0.0939
30301W        W47148  11.733   5.475  15.057 -0.0987  0.0684  0.0690
30302W        W47149   3.785   3.919   0.440  0.0511  0.0525  0.1039
30303W        W47150   7.870   7.682   1.370  0.0796 -0.4384 -0.3289
30304W        W47151  14.715   3.562   0.788  0.1922  0.0223  0.0025
30305W        W47152   5.286   6.998   4.674  0.1170 -0.1122 -0.0110
30306W        W47153   7.168  13.115   3.429  0.0062  0.2489 -0.0047
30307W        W47154  13.892   9.588   3.143  0.1967  0.0946  0.1066
30308W        W47155   7.079   1.313   0.739  0.3215 -0.2039 -0.5564
30309W        W47156   7.829  13.355   5.342 -0.1147  0.0618 -0.0526
30310W        W47157  12.712   4.827  15.013  0.0559  0.0474  0.0706
30311W        W47158   8.005  14.728  13.546 -0.2573 -0.2865  0.2731
30312W        W47159   0.207   4.279   4.316  0.1260 -0.1067 -0.2342
30313W        W47160  10.731  18.223  11.263  0.0295 -0.2162 -0.1153
30314W        W47161   8.120   1.724  12.389  0.4062 -0.2688 -0.3858
30315W        W47162   8.885  11.080   0.576 -0.1219  0.2726 -0.0903
30316W        W47163   9.372   6.536   1.242  0.2770 -0.1085 -0.2378
30317W        W47164   1.299   0.910   4.881  0.5459 -0.0107  0.0789
30318W        W47165  16.760   3.128  13.178 -0.0253  0.0754  0.0472
30319W        W47166   6.800  15.821  15.375  0.2240 -0.0509 -0.0400
30320W        W47167   6.706   5.970   0.014  0.0315  0.1654 -0.1520
30321W        W47168  13.051   4.863  12.657 -0.2493 -0.1039 -0.1336
30322W        W47169   2.323  10.002   5.478 -0.2808 -0.2483  0.0191
30323W        W47170   6.978  11.336  15.260 -0.1343  0.2088  0.0624
30324W        W47171   0.546   4.946  10.496  0.0588  0.2594 -0.1095
30325W        W47172   7.825   7.607   0.840 -0.2066  0.1701  0.0835
30326W        W47173  11.029  15.438   6.261  0.0964  0.1907  0.0683
30327W        W47174   6.577   7.942  13.390  0.0672 -0.0760  0.0983
30328W        W47175  14.809   1.760  14.197 -0.1017 -0.1434 -0.0618
30329W        W47176  14.079  13.788   4.480 -0.0548 -0.0289  0.1086
30330W        W47177  14.372  16.754  12.524 -0.1281  0.0232 -0.0184
30331W        W47178   8.291   3.099   2.458 -0.0888 -0.1095 -0.0879
30332W        W47179   9.906  10.390   6.100 -0.0020 -0.1890 -0.0500
30333W        W47180   9.959   8.297  15.827  0.0882  0.1716 -0.0597
30334W        W47181  12.103   8.950  13.047  0.1779  0.0687  0.4625
30335W        W47182  13.914   2.539   2.535  0.1394  0.0902  0.1871
30336W        W47183  10.581  13.775   0.599 -0.0958  0.0991  0.0342
30337W        W47184   7.976  14.368  13.113  0.1473 -0.0853  0.0448
30338W        W47185  16.482  11.097  14.152 -0.0773 -0.0148  0.1869
30339W        W47186   4.734  16.251   4.499  0.1964  0.1919 -0.1242
30340W        W47187  13.707   2.731   1.632 -0.2577 -0.0484 -0.1080
30341W        W47188  15.843   5.602   1.184 -0.1450 -0.0029 -0.1331
30342W        W47189  12.743   2.408  15.115  0.2879  0.1677  0.1448
30343W        W47190   9.525   9.380   5.051 -0.4188 -0.2957  0.0378
30344W        W47191   2.721  10.010   3.061  0.0004  0.0338  0.2184
30345W        W47192  15.986   1.323   1.408  0.3594 -0.0132  0.1002
30346W        W47193  13.172  15.502  14.493 -0.2205  0.0293  0.0243
30347W        W47194   3.869   7.947  15.435 -0.1344  0.0878 -0.2292
30348W        W47195   6.997   2.107   4.736 -0.0329 -0.1029 -0.2030
30349W        W47196   6.919   3.100   1.477  0.2141  0.1963  0.1014
30350W        W47197   2.846   3.108   9.875  0.1519 -0.2095  0.0507
30351W        W47198  10.734   7.349  16.196  0.2280 -0.1164 -0.2141
30352W        W47199   2.025   4.402   0.464  0.2913 -0.1898 -0.1167
30353W        W47200   9.565  16.754  14.595 -0.2124  0.0217 -0.1066
30354W        W47201  10.487   4.031   2.786 -0.2604  0.3136  0.1857
30355W        W47202   8.806   8.887   1.350 -0.1233 -0.1313  0.2149
30356W        W47203  10.552  11.997   2.738 -0.1283 -0.0676  0.1918
30357W        W47204  14.672  10.616   3.994 -0.0787 -0.1098  0.1464
30358W        W47205   6.097   1.950  13.984  0.6407  0.0172 -0.0486
30359W        W47206   2.609  17.181   1.732 -0.2829 -0.1278 -0.1447
30360W        W47207   8.743   6.907  13.085 -0.0789 -0.0426 -0.1326
30361W        W47208  10.172   5.885   2.008 -0.0660  0.1247  0.0228
30362W        W47209  14.419  10.847  14.364  0.0761  0.3392  0.1263
30363W        W47210  13.592  15.679   4.957 -0.1730 -0.2950  0.2451
30364W        W47211   7.506  12.916  12.660 -0.0227  0.0683 -0.2352
30365W        W47212   4.065  12.458   2.608  0.0134 -0.1918  0.0671
30366W        W47213   6.532  10.394   0.264 -0.2186 -0.1543 -0.5692
30367W        W47214   8.188   6.624  14.196  0.3053  0.0227 -0.2930
30368W        W47215  11.036  10.166   5.189 -0.0831 -0.0513  0.0261
30369W        W47216   6.796   9.456   4.915  0.0618  0.2713  0.0452
30370W        W47217   8.748  11.635  14.556 -0.0633  0.2079 -0.0597
30371W        W47218  18.269   3.536  16.011  0.0667  0.0946 -0.1297
30372W        W47219   5.996   8.411   2.687  0.0150 -0.1813  0.0556
30373W        W47220  10.902  12.181  16.040 -0.0817  0.0434 -0.2866
30374W        W47221   7.787   2.125  11.994  0.1695  0.1094 -0.0743
30375W        W47222  14.970   5.781   4.227  0.1397 -0.1704  0.0112
30376W        W47223  10.654   6.226  15.467 -0.1827  0.1518 -0.0990
30377W        W47224   6.394   9.786  14.800 -0.0490  0.0063  0.3291
30378W        W47225  18.166   5.653   1.907 -0.0755  0.0873  0.2220
30379W        W47226  16.632  12.276   0.152  0.1704  0.1347  0.2304
30380W        W47227   4.772   4.348   4.096  0.0332 -0.0971  0.0894
30381W        W47228  10.004  10.060  13.535  0.2075  0.0831 -0.1140
30382W        W47229   1.151   7.684   0.055  0.1008  0.2248 -0.1999
30383W        W47230   8.885   8.181  14.765 -0.1186  0.1201  0.0296
30384W        W47231   0.629  16.311   3.798  0.0938  0.0367  0.1456
30385W        W47232  12.651  12.929   3.371 -0.0889  0.0349 -0.1451
30386W        W47233  15.648   1.065  12.087  0.0490 -0.0508 -0.0840
30387W        W47234  15.170   3.902  11.513 -0.0174  0.2162 -0.1363
30388W        W47235  13.518   6.445  15.796 -0.1222  0.1666  0.2990
30389W        W47236   7.803   3.697  14.153 -0.2584  0.0637 -0.1692
30390W        W47237  17.498   2.419   2.821  0.1530  0.0356  0.1521
30391W        W47238   1.269   2.157   1.542 -0.0349 -0.0782 -0.1243
30392W        W47239   8.958  10.026  12.088  0.0151 -0.1314  0.2731
30393W        W47240  14.548   0.523   0.539 -0.0265 -0.0592  0.0184
30394W        W47241   5.124   8.237  13.680  0.1947  0.0447  0.0190
30395W        W47242   2.905  15.079  15.005  0.2367 -0.0375 -0.1041
30396W        W47243   0.635  10.501  15.630  0.1527  0.0536 -0.0644
30397W        W47244  15.479   7.620   4.192  0.0023 -0.0442 -0.0194
30398W        W47245   8.331   1.578   1.676 -0.1217  0.2400 -0.2157
30399W        W47246   8.530   9.857   2.605 -0.0612 -0.1519  0.0132
30400W        W47247  16.173  14.736   0.316  0.1816  0.1027  0.0616
30401W        W47248  16.033   3.683  11.897  0.0864 -0.0815 -0.0259
30402W        W47249   5.895  12.911   0.093 -0.2328 -0.1896 -0.0155
30403W        W47250  11.264  16.455  12.096  0.4210  0.1024  0.1280
30404W        W47251  13.235   4.509   0.312  0.0821 -0.2092 -0.2181
30405W        W47252  13.393  14.549   2.296 -0.2319  0.0151 -0.1826
30406W        W47253  13.603  11.250   3.147 -0.3451 -0.0867 -0.0921
30407W        W47254  17.630  16.615   0.369  0.0204  0.1525  0.0548
30408W        W47255  18.145  17.812   4.361 -0.1452 -0.1588  0.0459
30409W        W47256   9.690   9.012  14.003  0.0717  0.3129 -0.1639
30410W        W47257  12.703  18.354   5.236  0.4930 -0.0935  0.1839
30411W        W47258  16.471   9.477   1.878  0.1013  0.2170 -0.1546
30412W        W47259  18.310   0.278   1.383 -0.0485 -0.0965  0.3028
30413W        W47260   3.381   8.791  11.249 -0.2184  0.0438  0.2366
30414W        W47261   5.438   9.506  15.702 -0.0866 -0.0826 -0.3033
30415W        W47262   1.262   6.875  10.761 -0.2667  0.2992 -0.1461
30416W        W47263   1.041  15.487   3.422 -0.3399  0.1557 -0.1651
30417W        W47264   1.627   6.142   4.957 -0.2513  0.0602  0.1476
30418W        W47265  17.801   8.272  10.881  0.1451 -0.0255 -0.0277
30419W        W47266   9.631   3.495   5.697  0.0303 -0.0349  0.0672
30420W        W47267   0.116  17.117  13.117  0.0714  0.2009 -0.1778
30421W        W47268  16.515   1.072   2.069 -0.2152 -0.5414 -0.4069
30422W        W47269   6.816   1.762   3.019  0.0499 -0.1004  0.1105
30423W        W47270   6.642   6.448  16.309  0.0370 -0.2776 -0.1253
30424W        W47271   7.871   8.577   4.053 -0.0793  0.1643 -0.0191
30425W        W47272  18.120   4.044   1.319  0.1619 -0.2939  0.3471
30426W        W47273   7.976   5.974   5.176 -0.2454  0.0729  0.0627
30427W        W47274  14.013   9.395   0.587  0.0088  0.2022 -0.1953
30428W        W47275   9.385   4.398   0.814 -0.2146 -0.0806  0.1742
30429W        W47276  11.944  12.013  14.381  0.2246  0.3815 -0.0807
30430W        W47277  14.582   9.206  11.261 -0.3817 -0.2370  0.1796
30431W        W47278   8.942  12.826  16.284 -0.1223 -0.0955 -0.1225
30432W        W47279   9.035  17.367  13.142  0.1345  0.0278 -0.1874
30433W        W47280  15.122   4.044   3.388 -0.0129  0.1476  0.2403
30434W        W47281  11.642   8.791  12.348  0.0694 -0.1112 -0.0785
30435W        W47282  13.147  14.645   4.252  0.3016  0.1604  0.1013
30436W        W47283   2.284  16.827  16.222  0.0375 -0.1382 -0.0705
30437W        W47284   1.151  16.029  12.004 -0.1095 -0.0613  0.1880
30438W        W47285  17.970  13.124  14.688  0.0498  0.0144  0.4115
30439W        W47286  11.572   7.934  12.158 -0.1055 -0.2893 -0.0250
30440W        W47287  13.027   9.190  14.897 -0.0146 -0.1077 -0.1419
30441W        W47288   9.934   9.053  11.558  0.1381  0.0781  0.3948
30442W        W47289  12.357  16.089   0.479 -0.1423  0.0130 -0.1606
30443W        W47290   3.623  14.648   2.241  0.1811 -0.2777 -0.0250
30444W        W47291  17.158   0.724   2.441  0.0605 -0.3485  0.0655
30445W        W47292   8.519  15.240   1.627 -0.0731  0.0332 -0.1488
30446W        W47293  13.021   7.593   1.295 -0.1596 -0.0544 -0.2984
30447W        W47294   2.097   5.715   0.309  0.0241  0.2659  0.0002
30448W        W47295   1.449  15.372  15.665  0.0500  0.1102 -0.2790
30449W        W47296  17.889  13.677   3.152  0.1211  0.2339  0.1632
30450W        W47297   9.477  17.891  16.365 -0.1051 -0.0378 -0.1517
30451W        W47298   1.807   3.178   9.681 -0.1699 -0.0182 -0.3205
30452W        W47299  11.744   4.708   3.241 -0.0580 -0.0743 -0.3549
30453W        W47300  18.153  17.805  12.551 -0.0289 -0.1348 -0.1016
30454W        W47301   0.753   1.670   2.193 -0.0249  0.3865 -0.4701
30455W        W47302   1.109   1.689   0.094  0.1920  0.2799  0.1293
30456W        W47303   2.189   9.286  11.114 -0.0359  0.0527 -0.1647
30457W        W47304   9.229   4.048   2.336 -0.2414 -0.0668 -0.2048
30458W        W47305   9.646  12.627   5.520  0.2094  0.0409  0.1177
30459W        W47306  14.545  16.903   2.816  0.2213  0.0995  0.0139
30460W        W47307   5.652   0.112   3.383 -0.0366 -0.1531  0.0505
30461W        W47308  15.901  13.337   3.102  0.0840 -0.0358  0.0475
30462W        W47309  16.008  11.708   0.053 -0.2443  0.0956  0.3940
30463W        W47310   6.940   7.547   3.822  0.2392 -0.4662  0.3156
30464W        W47311   5.804   1.811   1.537 -0.3532  0.1362 -0.0211
30465W        W47312   6.800   6.816   3.453 -0.0014  0.1774  0.4676
30466W        W47313   4.877   8.236   3.966 -0.2346  0.1360  0.2463
30467W        W47314   7.585   5.177  13.491 -0.0990 -0.2150  0.0620
30468W        W47315   4.732   6.769  10.745  0.2404  0.0947  0.0970
30469W        W47316   8.784   7.620   3.298  0.2918 -0.2211  0.0861
30470W        W47317  11.461   9.347   5.067  0.0770 -0.1792  0.1573
30471W        W47318  10.197  12.210  11.810  0.2751 -0.1834 -0.3407
30472W        W47319   9.785  13.020   4.984  0.3472 -0.0628 -0.2446
30473W        W47320   3.513  16.084  12.115 -0.1409 -0.1160 -0.0846
30474W        W47321  13.307   3.950   3.874  0.1752 -0.1337 -0.1029
30475W        W47322   7.848   6.312   2.326 -0.1207 -0.1371  0.0425
30476W        W47323  16.437   7.063  15.396  0.0952 -0.0277  0.3269
30477W        W47324  11.606   3.750  15.663 -0.0269  0.0821  0.0965
30478W        W47325  15.361   0.686  10.920 -0.1511  0.0820  0.3724
30479W        W47326   8.357  14.677  13.199 -0.1178  0.1688 -0.0602
30480W        W47327   8.855   0.242  12.500 -0.0664 -0.0554 -0.0272
30481W        W47328  11.007  16.548   3.581  0.0952  0.1544  0.1116
30482W        W47329   0.945  15.545  15.631  0.1136  0.0786  0.4044
30483W        W47330  16.431  11.108   5.025 -0.0939  0.0466 -0.1122
30484W        W47331  15.519   6.461   2.870 -0.1089  0.2055 -0.1776
30485W        W47332   1.116   6.184   4.430 -0.1649  0.0611  0.0195
30486W        W47333  18.114  13.528   4.334 -0.2608 -0.3347 -0.0021
30487W        W47334   7.320   6.437  14.753  0.1484 -0.1796  0.0813
30488W        W47335   7.370   4.038   0.806 -0.0908  0.0238 -0.0763
30489W        W47336   5.598  14.469  12.115 -0.1746 -0.1950 -0.1982
30490W        W47337  11.231   7.238   2.873  0.1812 -0.0114  0.0146
30491W        W47338   2.327   8.403  11.106 -0.1591  0.0022 -0.1993
30492W        W47339  15.909  14.434  16.012  0.0904  0.0346  0.1956
30493W        W47340  13.346   9.938   2.635  0.0597 -0.2686  0.2090
30494W        W47341   7.763   4.347  14.645  0.0139 -0.3119  0.0218
30495W        W47342  18.149   7.777  11.138 -0.2325  0.0831 -0.0618
30496W        W47343  15.881  11.022   1.851  0.0756 -0.3298 -0.1625
30497W        W47344  11.062   6.695   2.745 -0.2107 -0.0817  0.1023
30498W        W47345  15.739  12.612  11.668 -0.2300 -0.3250  0.0481
30499W        W47346  17.353  17.438  15.462  0.3734 -0.0038  0.0419
30500W        W47347   0.466  17.596   5.582  0.2842 -0.0132  0.2805
30501W        W47348  12.640   5.347  11.306 -0.2832  0.2007 -0.4145
30502W        W47349   8.800   3.380   2.422  0.0761  0.2780  0.1074
30503W        W47350   2.487   8.149  13.497  0.0054  0.1415  0.1446
30504W        W47351  13.070  15.890  13.070 -0.0862 -0.0232 -0.0196
30505W        W47352  10.749   8.173   2.783  0.1087 -0.3203 -0.0608
30506W        W47353  17.483   6.192  15.742 -0.3528 -0.0380  0.0541
30507W        W47354  16.220  16.845   0.283  0.0614 -0.1300  0.0684
30508W        W47355   8.254   1.355  12.072 -0.0146  0.1096 -0.1209
30509W        W47356  12.157   2.076  16.342  0.2095  0.1825  0.1364
30510W        W47357   2.795   0.552  11.762 -0.2384  0.0828 -0.4118
30511W        W47358   8.793  13.776  13.075 -0.0407 -0.2095 -0.2065
30512W        W47359   2.370  12.516   3.726  0.0549 -0.0655 -0.2311
30513W        W47360   9.087   4.387  12.404  0.1733 -0.0043 -0.2955
30514W        W47361   8.774   2.617   4.974  0.0561  0.1233 -0.0509
30515W        W47362   8.401   4.716  11.341  0.2785  0.2254  0.4611
30516W        W47363   8.651  15.464  15.796 -0.2137  0.1661  0.3260
30517W        W47364   0.548   6.318  15.679  0.2415 -0.2687 -0.1979
30518W        W47365  10.826   7.536   4.300  0.1439  0.0734  0.0746
30519W        W47366   6.875   9.341   2.502 -0.0074  0.0566 -0.2925
30520W        W47367  10.246   8.645  15.989 -0.0558 -0.1767  0.0216
30521W        W47368   7.949  13.975  14.612 -0.1134 -0.1884  0.4736
30522W        W47369  14.441  12.529   2.097 -0.1753 -0.2156  0.2712
30523W        W47370  11.980   3.701   4.501  0.2816  0.0396  0.2037
30524W        W47371  17.727  10.390   3.504 -0.0073 -0.1253  0.0528
30525W        W47372  15.321   9.821   0.651  0.0394  0.1022 -0.2007
30526W        W47373   2.709   6.770   1.094 -0.0984  0.0226 -0.1120
30527W        W47374   8.823  16.459   0.930  0.0287 -0.4179 -0.1782
30528W        W47375   8.247   9.113   3.470  0.0785 -0.1964  0.1465
30529W        W47376   6.406   2.600   2.737  0.0610 -0.0321 -0.0181
30530W        W47377   0.218   6.009   4.943 -0.2089  0.0084  0.2850
30531W        W47378  16.143   9.319  13.045  0.2481 -0.1152  0.3592
30532W        W47379  13.058  13.118  13.562  0.1368 -0.1689  0.2574
30533W        W47380  16.645   8.481  12.767  0.2677 -0.0150  0.1388
30534W        W47381  11.558   7.956   4.919  0.4946 -0.2129  0.3265
30535W        W47382  11.702  10.086   0.970 -0.1939  0.2087  0.2212
30536W        W47383   6.078  15.986  12.953  0.0363 -0.0221  0.4449
30537W        W47384   8.149   3.268   6.091 -0.0077 -0.1171  0.1810
30538W        W47385  15.285  10.067   1.481  0.5910 -0.0557 -0.2495
30539W        W47386   0.195   3.675   1.298 -0.1739  0.0511 -0.4001
30540W        W47387   6.514   5.867  11.597  0.2975  0.1839 -0.1092
30541W        W47388   0.017  15.763   0.266 -0.0606  0.1793  0.0086
30542W        W47389   3.620  17.735  12.059  0.0952  0.0610 -0.1664
30543W        W47390   1.742   0.627   1.808  0.1013  0.2738 -0.3245
30544W        W47391  18.111   6.255   4.841 -0.2433 -0.1796  0.2482
30545W        W47392  14.307  11.581  15.994  0.0120 -0.1185 -0.1275
30546W        W47393  13.641  13.921   1.005  0.1143 -0.0264 -0.0121
30547W        W47394  18.168  13.695  13.972  0.2601 -0.2635  0.2064
30548W        W47395  16.543   9.438   0.882  0.0438  0.1256 -0.0583
30549W        W47396   0.733   8.314  14.715  0.0042 -0.0714  0.1385
30550W        W47397  15.977  11.922  14.589  0.0024  0.0527 -0.1978
30551W        W47398   4.841   1.684   2.853  0.0970  0.1415 -0.2105
30552W        W47399  12.338  15.912   1.665 -0.1006  0.3174  0.1964
30553W        W47400   3.179  14.825  14.028  0.2026 -0.0354 -0.1276
30554W        W47401  15.455   6.225  11.937  0.1806 -0.2025 -0.2045
30555W        W47402   0.018  15.051   1.887  0.2730  0.1235  0.3567
30556W        W47403   7.490   8.486   5.401 -0.2957  0.2861  0.1171
30557W        W47404   4.589   7.194   4.397 -0.1253 -0.1477  0.2203
30558W        W47405  12.820   1.159  12.942  0.3954 -0.1751  0.0732
30559W        W47406   2.437   9.055  14.898 -0.0243 -0.1396 -0.0606
30560W        W47407   6.493   5.659   3.989 -0.1150  0.2088 -0.0080
30561W        W47408   4.848  17.304   3.642  0.0681 -0.3369  0.2136
30562W        W47409   6.145   7.825   0.870 -0.0393  0.2762 -0.3007
30563W        W47410  17.787   0.593   2.482  0.2930  0.3720 -0.1873
30564W        W47411  13.927   3.161  13.302 -0.1734  0.2588 -0.0759
30565W        W47412   3.876  12.419   0.765  0.1486  0.1092 -0.1818
30566W        W47413   0.770   3.416   3.210  0.0195 -0.1276 -0.2197
30567W        W47414  18.216   2.177  15.819  0.2867  0.0995 -0.0021
30568W        W47415   7.294   4.604   3.335  0.0647  0.0926 -0.1238
30569W        W47416   4.299   1.948  13.539  0.2528 -0.0263 -0.1754
30570W        W47417   2.682  16.817   5.483 -0.1870  0.2484  0.0811
30571W        W47418  15.649   2.096  12.137 -0.0364  0.2809 -0.0439
30572W        W47419  11.559   2.557   4.911 -0.0052  0.2522 -0.1111
30573W        W47420   4.251   0.098   3.279 -0.1222 -0.0032  0.0446
30574W        W47421   3.585  13.489   1.333  0.0413  0.2084  0.1648
30575W        W47422  18.305  10.010   1.463 -0.0013 -0.2106  0.0733
30576W        W47423  11.441   5.963   0.624 -0.2359 -0.0084  0.2489
30577W        W47424   8.722   8.785  13.358 -0.0882  0.0843 -0.0993
30578W        W47425  11.506  12.985   5.142 -0.1465  0.2506 -0.0784
30579W        W47426  15.864  11.721  13.558  0.1283  0.0684 -0.3016
30580W        W47427   6.086   5.940   4.159 -0.4229  0.0678  0.1683
30581W        W47428  14.476  16.352   4.258 -0.1672 -0.3619  0.2392
30582W        W47429   9.635   7.263  14.887 -0.1314 -0.2667  0.2989
30583W        W47430  14.589   6.264  15.529 -0.0387  0.0406 -0.1417
30584W        W47431   7.608  14.155   4.018  0.0771 -0.1084  0.0944
30585W        W47432  14.498   6.241  11.443  0.3707 -0.0982  0.0329
30586W        W47433  11.875  18.332   1.074 -0.0302 -0.2119  0.5816
30587W        W47434  14.964   0.372  14.765  0.3604 -0.0097  0.1467
30588W        W47435   5.193  14.039  13.233 -0.2316  0.1221 -0.0629
30589W        W47436   9.592  13.011  13.030  0.1078  0.2076 -0.1628
30590W        W47437  11.222   2.419  16.152  0.2873  0.0648  0.3701
30591W        W47438   3.363  16.666   4.630 -0.1063 -0.2917 -0.2396
30592W        W47439   1.233   9.921   2.397 -0.0125 -0.2849  0.0887
30593W        W47440  14.707   1.154   1.009  0.0923 -0.4134 -0.1175
30594W        W47441   6.233  17.688   3.375  0.1472 -0.2703  0.0670
30595W        W47442  16.136   1.172   2.779  0.0346  0.1165 -0.3609
30596W        W47443   0.561  12.232   3.026 -0.1722 -0.0944  0.0621
30597W        W47444   2.979  17.673   1.986  0.1339  0.1134  0.1926
30598W        W47445  15.459   5.348   5.636 -0.0795 -0.0878 -0.1202
30599W        W47446   1.672   4.167  12.239 -0.1285  0.0293 -0.0758
30600W        W47447  12.190  15.552   1.189 -0.0223  0.1311  0.2128
30601W        W47448  10.107  16.916   3.727 -0.1794  0.1144 -0.0207
30602W        W47449   3.571   5.030  15.857 -0.2894 -0.1587  0.1049
30603W        W47450   8.611  15.785  13.430  0.1692  0.0972 -0.2435
30604W        W47451  18.328   0.602  14.808 -0.0997 -0.1824  0.0692
30605W        W47452   0.975  14.946  11.657 -0.2836 -0.0858 -0.1647
30606W        W47453   7.324  10.882   0.268  0.2969  0.0182  0.3198
30607W        W47454  13.856   2.447   2.999  0.0937  0.1393  0.0697
30608W        W47455   3.075  15.982   0.067 -0.2874 -0.2185 -0.3255
30609W        W47456  10.805   6.578  14.508 -0.0338  0.1032 -0.0420
30610W        W47457  17.455  13.273   4.920  0.0132 -0.0188 -0.2074
30611W        W47458  11.641  14.388  13.059  0.0685 -0.4407  0.0792
30612W        W47459   5.189   7.860   3.217  0.0022  0.5307 -0.0715
30613W        W47460   5.312   8.251  14.162 -0.4022  0.0487  0.1197
30614W        W47461  11.822   5.301   2.986  0.0112  0.2833 -0.2655
30615W        W47462   0.105  14.371   3.659  0.2447 -0.1349  0.1053
30616W        W47463   6.279  15.273  15.176 -0.1538  0.0789  0.0229
30617W        W47464  17.526  15.673   0.152 -0.0816 -0.0409 -0.0200
30618W        W47465  10.492  15.436   4.899 -0.2075 -0.3167  0.0788
30619W        W47466   1.613  13.099  16.372  0.0463  0.0603  0.1349
30620W        W47467   6.382  14.887   1.812  0.4135  0.3023  0.1286
30621W        W47468  16.771  11.117   4.045 -0.4485 -0.0528 -0.1440
30622W        W47469  14.228   0.588   5.176 -0.0402 -0.4657  0.2714
30623W        W47470  10.645   3.203   1.164  0.3572 -0.2329 -0.1262
30624W        W47471  10.432   9.999   2.259 -0.1725 -0.0333 -0.1696
30625W        W47472   9.250   0.190   4.395  0.1947  0.1341  0.0909
30626W        W47473   3.146  12.360   2.805 -0.0497 -0.0507  0.1176
30627W        W47474  18.147  13.236  14.217 -0.0570 -0.0562 -0.1616
30628W        W47475   1.839   2.288   4.890 -0.1437 -0.1150  0.3187
30629W        W47476  16.583  14.345   0.403  0.1056  0.0377 -0.2332
30630W        W47477   4.483   1.678   5.201  0.0650 -0.0413 -0.0245
30631W        W47478  14.965  10.972  15.722  0.2679 -0.2766 -0.1518
30632W        W47479   8.380  16.436  14.360  0.1351 -0.3150 -0.2245
30633W        W47480   8.797  14.388  11.957  0.2256  0.2472  0.0814
30634W        W47481   1.591   7.483  11.444 -0.1993 -0.3029  0.1469
30635W        W47482   3.909   7.080   1.108  0.1338  0.2050 -0.0972
30636W        W47483  10.975   3.595   1.173  0.0937  0.0964 -0.1096
30637W        W47484  14.014   3.273   3.893  0.1244  0.2333 -0.1943
30638W        W47485   2.783  17.043  13.562  0.0844  0.1351 -0.0351
30639W        W47486   1.217   5.632  14.554 -0.0542 -0.1878 -0.0196
30640W        W47487   5.412   2.285  13.267  0.0916  0.0283 -0.1520
30641W        W47488  18.374  14.742  12.254 -0.0205  0.1622 -0.1779
30642W        W47489  14.095   9.105  12.085 -0.1588  0.0241  0.0859
30643W        W47490   7.198   7.110   2.391  0.0295  0.1818 -0.1748
30644W        W47491   5.290  15.451   0.789 -0.1655  0.1148  0.3647
30645W        W47492  14.833   1.037   4.912  0.3181 -0.0626  0.1445
30646W        W47493  10.609  12.728  15.014 -0.2951  0.0258  0.1211
30647W        W47494   1.337  10.694  14.495  0.0116  0.0257 -0.1695
30648W        W47495  16.872  17.175  16.238  0.0424 -0.2084  0.0419
30649W        W47496  10.235  10.581  14.540 -0.0352  0.2385 -0.0626
30650W        W47497   8.904  12.635   4.902 -0.0644 -0.2609  0.2809
30651W        W47498   9.189   7.849  11.952 -0.1940 -0.0541 -0.2132
30652W        W47499  16.141  14.964   4.443 -0.0580  0.3308  0.1582
30653W        W47500   3.869  13.134   2.584 -0.0340  0.0606 -0.0717
30654W        W47501  12.186   7.070   1.381 -0.2310  0.0195 -0.0988
30655W        W47502   5.642  11.418  13.989 -0.1480  0.4244  0.0956
30656W        W47503   7.709   9.012  15.637  0.0174 -0.0434 -0.3758
30657W        W47504  15.176  17.404   1.221  0.0105 -0.0112  0.1268
30658W        W47505   9.442   9.171   3.671 -0.0285  0.3526  0.2730
30659W        W47506   9.058   4.605   3.717 -0.0492 -0.0425  0.0518
30660W        W47507  10.657   0.360  15.354  0.0416 -0.1812 -0.1177
30661W        W47508   9.145  11.355   0.225  0.2983 -0.3066  0.1431
30662W        W47509  11.354  15.036  15.477 -0.1418  0.0489  0.2344
30663W        W47510   7.026   1.945  13.976 -0.1364  0.0852  0.0191
30664W        W47511  16.747   6.664  12.763  0.0500  0.0278  0.2107
30665W        W47512   9.187  10.914  12.346  0.0511  0.3070  0.0061
30666W        W47513   0.481   7.324  10.684  0.0890  0.0201  0.3688
30667W        W47514  10.778  17.850   0.708  0.2411 -0.0029  0.1081
30668W        W47515  11.140  10.757   5.110  0.0760 -0.2048 -0.0642
30669W        W47516  16.623  16.153   5.410  0.1232 -0.1561 -0.1660
30670W        W47517  11.363  10.277  16.060  0.2115 -0.0693  0.1850
30671W        W47518   2.354  11.964   4.381 -0.3293  0.0582 -0.2730
30672W        W47519  18.277  14.521   0.490 -0.3208 -0.0869  0.1983
30673W        W47520  17.293  12.603   3.594 -0.1535  0.0666 -0.2675
30674W        W47521  14.147   7.351   4.182 -0.1201 -0.0990 -0.2404
30675W        W47522   4.340   9.339   2.267 -0.0396 -0.0127  0.1305
30676W        W47523   8.376   4.453  15.660 -0.0564 -0.0031 -0.3359
30677W        W47524   8.577  12.993  12.472 -0.2774  0.2729  0.1497
30678W        W47525  11.840  17.677  11.683 -0.1768  0.1955  0.0777
30679W        W47526   3.236   7.305  10.709  0.1061  0.3101 -0.1426
30680W        W47527   6.800   8.502  15.599  0.1914  0.2174  0.2039
30681W        W47528   4.150  16.958  13.410  0.0384  0.1355 -0.0823
30682W        W47529   5.140  13.430   2.149 -0.0115  0.0235 -0.1677
30683W        W47530   0.650  15.396  11.465  0.3091  0.0489 -0.3032
30684W        W47531  12.262  14.680   2.589 -0.0805 -0.1709 -0.1859
30685W        W47532  15.964  13.780   0.798  0.4198  0.0093 -0.0421
30686W        W47533  16.356   9.236  11.324  0.3037 -0.2120 -0.1010
30687W        W47534  17.230   0.244  13.569 -0.0635  0.1023  0.1094
30688W        W47535   0.504   3.273   1.309 -0.2617 -0.5550 -0.0367
30689W        W47536   7.968   0.902   2.350 -0.0877 -0.1265  0.0292
30690W        W47537   7.124   2.240  16.310 -0.1227 -0.0246 -0.2545
30691W        W47538   9.412   7.851   2.099 -0.1589 -0.0676  0.0862
30692W        W47539  15.860  17.332   2.316  0.1605 -0.0633 -0.2837
30693W        W47540  12.012  12.480  14.738 -0.0477  0.3591  0.3323
30694W        W47541  15.762   9.952   0.647 -0.1163 -0.0813 -0.5322
30695W        W47542  12.557   2.173  15.975  0.0607 -0.0288 -0.0256
30696W        W47543  16.570   6.733   4.972 -0.0675 -0.1989  0.0802
30697W        W47544   1.250   8.862   1.695 -0.2437  0.1849 -0.0192
30698W        W47545  16.984   3.624  11.881  0.0156  0.2882  0.1048
30699W        W47546   0.092  17.569  14.822 -0.1705 -0.0490  0.2562
30700W        W47547   9.958   4.290  12.536  0.0281 -0.1172  0.1572
30701W        W47548   0.856  15.129   1.237 -0.2096 -0.1180 -0.0356
30702W        W47549  18.393  14.505   5.959 -0.3214 -0.1549  0.1086
30703W        W47550   3.759  13.146  15.516  0.2073  0.0326 -0.0744
30704W        W47551   6.465   0.970   3.467  0.2326  0.1558  0.4102
30705W        W47552   4.101   3.853   2.198  0.0697  0.0938  0.2443
30706W        W47553   0.081  13.414   4.653 -0.0174 -0.0274  0.0606
30707W        W47554   8.854  13.756   1.708 -0.0471  0.0454 -0.5608
30708W        W47555   6.668   4.460  12.013  0.0757 -0.1755  0.1103
30709W        W47556   0.282  17.944  15.559  0.0496 -0.0280 -0.1651
30710W        W47557   5.056  14.249   0.199 -0.0530  0.0508 -0.3322
30711W        W47558  12.514  18.215  13.338  0.1729 -0.1773 -0.0512
30712W        W47559   6.063   1.021   3.172 -0.2315 -0.0055  0.1019
30713W        W47560   1.899   3.203   4.533  0.1663 -0.1789 -0.0570
30714W        W47561   6.779  11.880   1.389  0.2316  0.0271  0.1561
30715W        W47562   2.171   8.830  11.448 -0.0435  0.0449  0.0928
30716W        W47563   0.549  18.323  14.277  0.1809 -0.1659  0.0824
30717W        W47564   6.286  12.402  11.894 -0.1110 -0.0628 -0.0276
30718W        W47565  16.607   2.532  12.314 -0.0559 -0.1193  0.1700
30719W        W47566  10.529   7.126  12.924 -0.5173 -0.1305  0.0131
30720W        W47567   8.183  11.033   1.681 -0.3631 -0.0509 -0.1578
30721W        W47568   1.878   7.515   4.360  0.1122  0.1936  0.0487
30722W        W47569   3.970   3.754  10.085  0.2694 -0.1337  0.2187
30723W        W47570   2.714   7.747   1.569  0.1360  0.1136  0.1479
30724W        W47571  15.868  12.935  13.607 -0.2265  0.1187 -0.0080
30725W        W47572   4.948   7.749  12.176  0.2347  0.3057  0.0449
30726W        W47573   2.101   5.793  15.036 -0.1505 -0.3588  0.0122
30727W        W47574  18.092   4.532  11.649 -0.0204  0.3180  0.0270
30728W        W47575   3.366   5.179  16.294  0.2579 -0.4099 -0.0353
30729W        W47576   7.081   7.572   0.398  0.1447 -0.0889 -0.1722
30730W        W47577   1.157   2.673  14.601  0.0109 -0.0761  0.1123
30731W        W47578  12.718   9.281   1.585 -0.1730 -0.3512  0.2827
30732W        W47579  10.833   7.085  12.057 -0.0599  0.2008  0.0978
30733W        W47580  10.939   2.667  11.480 -0.0939 -0.0360  0.0553
30734W        W47581   2.368  13.757  14.584 -0.1204  0.3422  0.2013
30735W        W47582  15.480   2.476   2.272 -0.0618  0.2354 -0.1248
30736W        W47583  10.180   1.959   0.197  0.0996 -0.5474  0.0443
30737W        W47584   1.463  14.900   5.840  0.1285  0.2314  0.1854
30738W        W47585   6.187  12.697  13.761  0.0333  0.1929  0.2358
30739W        W47586   8.452  13.807   0.357 -0.0793 -0.0082 -0.0719
30740W        W47587  13.677  11.598  13.799  0.1320 -0.0186 -0.2282
30741W        W47588   3.105   8.460   4.507  0.0605 -0.0579  0.0275
30742W        W47589   9.968   2.209  14.117  0.1151 -0.1712  0.3833
30743W        W47590  16.184  18.405  11.815  0.1689 -0.0693  0.1536
30744W        W47591  14.725  17.585  14.511  0.1233  0.2389 -0.0660
30745W        W47592  17.947   7.351  13.887 -0.1596  0.1947 -0.3411
30746W        W47593  11.430   3.150  13.333 -0.2052 -0.1062 -0.1309
30747W        W47594   3.286   5.874   4.248  0.0483 -0.2804 -0.0432
30748W        W47595  10.042   7.796   4.707 -0.0635  0.2424 -0.1032
30749W        W47596  14.702  17.117  14.742 -0.0651  0.0231  0.1076
30750W        W47597  15.129   2.938  15.233 -0.0147 -0.0780 -0.0933
30751W        W47598  18.264  14.402   0.007 -0.1962 -0.0792  0.0673
30752W        W47599  14.864   1.025  15.726  0.2475 -0.0782 -0.2088
30753W        W47600  13.072   3.386   4.408 -0.1895 -0.3056  0.0919
30754W        W47601   8.781  10.172   4.051 -0.0128  0.5127 -0.0815
30755W        W47602  12.976   6.670  13.192 -0.4209 -0.1457 -0.1651
30756W        W47603   3.968   1.489   0.243  0.3068  0.1630  0.1842
30757W        W47604   5.277   9.836   4.139  0.1572  0.2912  0.2324
30758W        W47605   3.642   0.772  13.236 -0.0392 -0.0252 -0.0749
30759W        W47606   8.130   7.108   1.799 -0.1402  0.0085 -0.2435
30760W        W47607   9.166  13.336  14.672  0.0352 -0.1701  0.4127
30761W        W47608  14.004   3.372   4.968 -0.0637  0.0342 -0.2698
30762W        W47609   4.937   0.879  10.373 -0.0669 -0.2071  0.0073
30763W        W47610   3.278   0.045  14.343 -0.1662 -0.1550 -0.2148
30764W        W47611  12.323   4.324   0.360  0.2590  0.0040 -0.2185
30765W        W47612  14.523  18.357   6.182  0.0273  0.1222  0.0217
30766W        W47613   3.408  16.471  16.285 -0.0341  0.0260  0.0210
30767W        W47614   5.633   3.749   1.873 -0.2099 -0.0839 -0.1750
30768W        W47615   7.215   9.156  15.527 -0.2214 -0.1342  0.1327
30769W        W47616   4.705  14.412   2.096 -0.0112  0.0887  0.2428
30770W        W47617   0.062  10.990   4.504  0.3342 -0.2116  0.2281
30771W        W47618   3.582  11.904   1.722  0.0129  0.1626  0.1931
30772W        W47619  10.967   6.488  12.244 -0.3592 -0.0261  0.2438
30773W        W47620   5.580  15.137  14.633 -0.2027 -0.3596  0.0221
30774W        W47621  11.318  14.501   2.642  0.2936  0.1455 -0.2554
30775W        W47622  13.479  15.839  12.747  0.3318 -0.2480  0.1890
30776W        W47623   2.050   3.524  14.230  0.3010 -0.2484  0.1833
30777W        W47624  10.544   1.193  11.476  0.0249  0.0039  0.1796
30778W        W47625  13.606   3.122   1.275  0.0212  0.0353  0.2658
30779W        W47626  11.669   3.316  15.917  0.2395 -0.0088  0.1338
30780W        W47627  11.197   5.085  11.488 -0.0670  0.1254  0.1858
30781W        W47628   2.643  10.308   3.627  0.0382 -0.0207 -0.1179
30782W        W47629   8.710   0.085  11.984  0.1217  0.2673  0.2876
30783W        W47630   6.911   8.599   5.947  0.4436  0.0939 -0.2384
30784W        W47631   4.165  13.335  11.627 -0.1443 -0.1042 -0.1041
30785W        W47632  13.833  13.419   4.238  0.1736  0.3747 -0.2672
30786W        W47633   2.307  14.641   4.200  0.1089  0.0579 -0.4419
30787W        W47634   7.351   7.570   2.672 -0.0985 -0.0351  0.0453
30788W        W47635  18.030  13.388  16.188 -0.0269  0.1828 -0.2238
30789W        W47636   5.455   3.098  14.267 -0.0675  0.0640  0.0469
30790W        W47637  11.308  10.937  15.060  0.2276 -0.2740  0.2970
30791W        W47638   0.961  16.041  13.008  0.1397 -0.0951 -0.0415
30792W        W47639  16.587   7.863  11.376 -0.2811 -0.0183  0.0845
30793W        W47640   4.513  14.294   3.993  0.0277 -0.1123  0.2485
30794W        W47641   7.999   9.780   1.409  0.2036  0.2285 -0.0426
30795W        W47642   0.012   4.894  11.537  0.0249 -0.0192  0.3569
30796W        W47643  13.853  16.428  12.144  0.0616 -0.0542 -0.0351
30797W        W47644  10.836  13.985  15.405  0.3470 -0.1306  0.1227
30798W        W47645   3.330   2.227   3.851  0.1540  0.1154 -0.1010
30799W        W47646   4.414   1.323   5.609  0.3565 -0.3180  0.1543
30800W        W47647   2.934   4.760  13.394 -0.0091  0.2615  0.1388
30801W        W47648  10.658  10.861  14.613 -0.0860  0.0293  0.1044
30802W        W47649   1.724  17.886   4.466  0.0976  0.2173  0.1477
30803W        W47650   5.834   1.140   5.527  0.4750  0.1230 -0.2950
30804W        W47651   1.936  14.198   3.310 -0.0810 -0.0556 -0.0665
30805W        W47652  11.086   7.038  14.236  0.2132  0.0027 -0.0269
30806W        W47653  12.770   8.895  12.761  0.1621 -0.0680 -0.0394
30807W        W47654  16.501   2.796  11.923 -0.0597  0.3308  0.0261
30808W        W47655   5.927   0.349  15.466 -0.4004  0.1232  0.0094
30809W        W47656  14.979  16.595   1.023  0.1584 -0.0055  0.1260
30810W        W47657   4.081   3.669  14.095 -0.0670 -0.4210 -0.1020
30811W        W47658   3.531  11.651  13.254 -0.2216 -0.2820  0.0180
30812W        W47659  13.965   3.622   0.712 -0.0452  0.1881 -0.3331
30813W        W47660   9.870   3.058   5.160  0.1641  0.2005 -0.0937
30814W        W47661   6.206   9.835   6.027 -0.0021  0.0625  0.1489
30815W        W47662  13.930   5.987   2.473 -0.1510  0.1454  0.3312
30816W        W47663  13.558  17.931  13.381  0.1859  0.1665 -0.0687
30817W        W47664   0.640  14.580  13.741  0.1161 -0.2033  0.1982
30818W        W47665   7.647   4.382   1.594  0.1385  0.1107 -0.6617
30819W        W47666  12.079   0.135   3.152 -0.0157 -0.1048  0.3382
30820W        W47667   9.484  13.766  14.421  0.1486 -0.2807 -0.1863
30821W        W47668   8.743   7.560  16.319  0.2436  0.1532  0.0356
30822W        W47669   1.459   2.400  14.136 -0.1609 -0.3190 -0.0701
30823W        W47670  12.583  10.534   5.253  0.0117 -0.2226  0.3076
30824W        W47671   5.440   2.357  12.454 -0.1097 -0.4103  0.0114
30825W        W47672   3.697  13.287  11.822  0.2258  0.0616  0.0641
30826W        W47673  14.728   7.623   0.895 -0.0998 -0.3408  0.1704
30827W        W47674   0.914  15.583  13.274 -0.1234 -0.2137  0.0162
30828W        W47675   6.492  13.926  12.061  0.0412 -0.0289  0.1243
30829W        W47676   9.607   3.342  13.775  0.0800  0.4619  0.2630
30830W        W47677  16.309  14.757   3.109 -0.0993 -0.2152 -0.1568
30831W        W47678  16.154  17.616  14.948  0.0469 -0.1670 -0.1527
30832W        W47679   4.661  12.444   3.828  0.1588 -0.2035  0.3496
30833W        W47680   9.293   5.913   0.485 -0.0906 -0.2243  0.0518
30834W        W47681   0.818   2.366  12.991 -0.0230  0.1795  0.2493
30835W        W47682  18.181  13.185   0.816  0.0162  0.0058  0.2705
30836W        W47683   1.940   0.932  12.600  0.1010  0.2716  0.1613
30837W        W47684   5.544   7.569   3.812 -0.0990  0.2746  0.0336
30838W        W47685  14.292   7.077   1.031 -0.0040  0.1711  0.1134
30839W        W47686  15.630   3.774  14.782 -0.3230 -0.1234 -0.1097
30840W        W47687  14.988   6.991  11.782  0.4098 -0.0705  0.0045
30841W        W47688   3.794  11.188  14.198 -0.3033 -0.3949 -0.0496
30842W        W47689  17.105   7.071   4.786  0.0208 -0.3236  0.1248
30843W        W47690  13.700   0.430   5.197 -0.0461  0.0960  0.0925
30844W        W47691  10.886   1.294   1.903 -0.0857 -0.0592 -0.1644
30845W        W47692   8.675   0.286  14.328  0.6448  0.0339  0.3532
30846W        W47693   0.988   1.365   3.959  0.1923  0.2515  0.0421
30847W        W47694   0.968   3.012   1.243  0.0421  0.2795  0.1207
30848W        W47695   9.663  10.115   5.120 -0.2075 -0.0092  0.1502
30849W        W47696  12.785  18.099   5.622 -0.1763 -0.0641 -0.1712
30850W        W47697   9.483  16.358  15.344  0.0500  0.0846 -0.0709
30851W        W47698   0.979   2.183  16.318 -0.1253  0.0224 -0.0972
30852W        W47699   0.821   3.781  15.821 -0.1660  0.0267  0.0224
30853W        W47700  13.037   5.018   2.358 -0.4529 -0.0087 -0.1958
30854W        W47701  12.274   5.028   4.896  0.2594  0.1082  0.3302
30855W        W47702  17.991   2.646   2.833  0.1539 -0.0944  0.0267
30856W        W47703   6.175   0.682   5.024  0.1703 -0.0227 -0.1996
30857W        W47704  13.426   2.541  14.788 -0.1359 -0.1504  0.0960
30858W        W47705  12.576   5.871   2.095 -0.0662  0.1588 -0.3643
30859W        W47706   8.292   1.117  13.751 -0.0603  0.1943 -0.1129
30860W        W47707  10.855  14.612  11.492 -0.3107 -0.1406 -0.0561
30861W        W47708   7.010  14.095  12.063  0.0604  0.1691  0.0412
30862W        W47709   4.908   6.128   3.020 -0.0290 -0.2047 -0.1194
30863W        W47710   3.512   2.644   4.401 -0.0286 -0.0061 -0.2861
30864W        W47711   1.894  15.623   5.309 -0.0165  0.3079 -0.1196
30865W        W47712   3.096  11.689  11.630  0.5059 -0.1595  0.1676
30866W        W47713  16.646   8.039   1.346  0.2748 -0.3974 -0.0119
30867W        W47714   5.782  15.043  15.069  0.1651  0.1354  0.0787
30868W        W47715   7.657  10.599  15.698  0.2258  0.1762  0.4536
30869W        W47716   7.055   5.328  14.099  0.2867 -0.1489 -0.2219
30870W        W47717   6.401   8.985   0.616 -0.2464  0.1440 -0.0197
30871W        W47718   3.103  15.790  12.049 -0.0769 -0.2788  0.3136
30872W        W47719   5.326   5.135   1.425 -0.0714  0.1680  0.1523
30873W        W47720  13.147  14.214  15.761 -0.1149  0.0640  0.0813
30874W        W47721   5.997  14.844   4.121 -0.0194  0.3878 -0.1243
30875W        W47722   8.919   1.681   4.023  0.0364 -0.2636 -0.0895
30876W        W47723   5.346  10.195   2.057  0.1365  0.4721  0.1394
30877W        W47724   0.656   2.763   3.845  0.0800  0.1048 -0.0650
30878W        W47725   9.009  11.966   2.613  0.3008  0.1408  0.1028
30879W        W47726  17.641  17.064   4.100 -0.1384  0.1455  0.0256
30880W        W47727   4.676   9.761  12.961  0.1214  0.2089  0.0231
30881W        W47728   5.885   3.872  13.768  0.2312  0.1321  0.0078
30882W        W47729   4.797  16.272   2.208 -0.5916 -0.3510 -0.1762
30883W        W47730  14.692   5.590  16.213 -0.3083 -0.1136 -0.1466
30884W        W47731   8.781  16.874   2.987 -0.0742  0.0376 -0.0410
30885W        W47732   1.491   3.200   4.814 -0.0829 -0.1201 -0.0480
30886W        W47733  12.092   2.792  13.870 -0.2509 -0.0635 -0.3173
30887W        W47734   6.255   8.224  14.802  0.3142 -0.1623  0.2038
30888W        W47735   3.408  17.659   4.545  0.0688 -0.4563  0.1158
30889W        W47736  13.447  15.686  16.272  0.0294  0.2240 -0.0172
30890W        W47737   2.013   3.896   0.404  0.2736 -0.0370 -0.1960
30891W        W47738  11.725   7.192   3.344 -0.1295  0.0665  0.2022
30892W        W47739   6.914   6.127  15.236 -0.0635  0.0259  0.1845
30893W        W47740   7.469   8.930   3.892  0.0392  0.0737 -0.0444
30894W        W47741   3.975  12.677   1.559 -0.3025  0.1066 -0.2159
30895W        W47742   6.841  13.373   5.097 -0.0992 -0.0445  0.0127
30896W        W47743   3.239   0.204   2.397 -0.1394  0.0068 -0.0576
30897W        W47744  13.676  11.852   0.134  0.2883 -0.1618  0.2773
30898W        W47745   9.773   0.168  16.197  0.1273 -0.1176 -0.3299
30899W        W47746  12.124   5.474   5.060 -0.4665 -0.0023 -0.0082
30900W        W47747  10.068   6.950   4.016  0.0073  0.0018 -0.1832
30901W        W47748  11.021  16.294   3.153  0.0705 -0.2102 -0.1591
30902W        W47749   2.070   0.476   0.836 -0.0535 -0.2755  0.1352
30903W        W47750   7.008  11.455   2.252  0.2081  0.1396 -0.0828
30904W        W47751  13.248   3.922  12.337 -0.0883 -0.2505 -0.1034
30905W        W47752  15.749   1.661  11.885 -0.2538 -0.0545  0.0363
30906W        W47753   9.075  18.314   0.709  0.1195 -0.3150 -0.0400
30907W        W47754   6.262   3.349  10.646 -0.0145 -0.1652  0.0484
30908W        W47755   7.944   6.426   3.235  0.3070 -0.0682  0.0526
30909W        W47756   8.424   6.001   0.056 -0.5202 -0.0433  0.1970
30910W        W47757  12.692   5.787   1.174 -0.0481 -0.1008  0.1717
30911W        W47758   9.532   9.384   3.090  0.0500 -0.0331 -0.1537
30912W        W47759  12.893   4.554   2.321 -0.0831  0.0224  0.2248
30913W        W47760  12.639  15.345   1.346  0.4408 -0.0095  0.0022
30914W        W47761   6.859  13.603   1.661  0.1807  0.4840 -0.0804
30915W        W47762   2.208  17.518   1.431 -0.0971 -0.0287  0.0453
30916W        W47763  18.088   9.072   1.355 -0.2942 -0.5206  0.0074
30917W        W47764  16.641  13.650   4.374 -0.0639 -0.3239 -0.2847
30918W        W47765   5.382   0.040   0.100  0.0993 -0.1686  0.1443
30919W        W47766   1.039  17.503  13.241 -0.0592  0.0950  0.0600
30920W        W47767   1.419  15.142   0.413  0.2010  0.1484 -0.0297
30921W        W47768  15.089   1.117  12.995 -0.1560  0.1446  0.2749
30922W        W47769   9.079  12.433   0.826 -0.1806 -0.0145  0.2046
30923W        W47770   3.245  17.467   0.985  0.1212 -0.2705 -0.4925
30924W        W47771  14.455  16.187  11.546 -0.1924  0.0190  0.0260
30925W        W47772   5.584   7.961  16.063  0.1188 -0.3347  0.0341
30926W        W47773   4.932  18.143  15.861 -0.0486  0.0593  0.5585
30927W        W47774   2.524   8.216  12.526  0.0727  0.0262  0.0450
30928W        W47775   8.056  15.646   5.441 -0.1572 -0.1605  0.0768
30929W        W47776   1.754  11.035  13.985 -0.2493  0.1082 -0.0380
30930W        W47777   8.994   9.254   1.058  0.0996 -0.0874 -0.0371
30931W        W47778  16.814  12.838   0.724  0.4737  0.0655 -0.0829
30932W        W47779   6.642   9.834  13.976 -0.0698  0.2566 -0.0103
30933W        W47780   0.103   0.173  14.693  0.1015  0.3387  0.1101
30934W        W47781  12.996  16.071  16.320  0.0747 -0.0104  0.2210
30935W        W47782  18.173  11.709  12.862  0.2260 -0.3209  0.0667
30936W        W47783  10.002  17.022  11.547 -0.0838 -0.2955  0.2601
30937W        W47784  18.056  18.408  15.936  0.1055  0.0902 -0.0264
30938W        W47785   4.368   2.876  15.811 -0.2086  0.0517 -0.0785
30939W        W47786  10.742   7.156  14.687 -0.0232  0.5305  0.2329
30940W        W47787   0.707  16.577   0.856 -0.5792  0.0734 -0.0668
30941W        W47788  15.422  16.323   0.705  0.0654 -0.3003  0.3972
30942W        W47789  16.629   8.667   4.977  0.0547 -0.0655  0.1421
30943W        W47790  12.453  12.249  14.507  0.0357 -0.1244 -0.1021
30944W        W47791   8.485  12.657   3.239  0.1311  0.0068  0.0858
30945W        W47792  11.689   3.035   1.280 -0.0806 -0.0530  0.0719
30946W        W47793  10.873  17.519   3.373  0.1141  0.0469 -0.1991
30947W        W47794  16.627   0.196  16.372 -0.0904 -0.1023 -0.1343
30948W        W47795  15.691  10.805   0.272 -0.1129  0.2352  0.4137
30949W        W47796   1.235  12.834   3.364  0.1641  0.0116 -0.2003
30950W        W47797   0.045   3.297   4.591  0.0773  0.1714 -0.1370
30951W        W47798  15.646   9.161   2.966 -0.2774  0.1357  0.1213
30952W        W47799   3.541   5.314  14.113 -0.0686 -0.0865 -0.1017
30953W        W47800  17.748   7.449  15.197  0.1109  0.0420  0.0450
30954W        W47801   4.950  13.027   4.742 -0.3336  0.2266  0.3057
30955W        W47802  13.716   7.323  12.683 -0.2740  0.0719  0.0052
30956W        W47803  17.992  17.988   3.903 -0.0541  0.1807 -0.0808
30957W        W47804   2.520  17.108   1.112  0.1717 -0.0027 -0.2791
30958W        W47805   5.677  13.803  13.115 -0.0844  0.2717 -0.1505
30959W        W47806   6.093   6.006  13.116  0.3380 -0.0266  0.0231
30960W        W47807  15.965   9.100   3.339 -0.3040  0.0341 -0.0212
30961W        W47808   0.116  16.750   4.497  0.0833  0.0662  0.1303
30962W        W47809  17.379  10.563   5.299 -0.2068  0.1218 -0.2523
30963W        W47810  10.382   4.377   0.196  0.0641 -0.0112 -0.0607
30964W        W47811   5.131   7.380   2.206  0.0667 -0.2595  0.0765
30965W        W47812   5.161   5.829   3.535 -0.1954  0.2895 -0.6637
30966W        W47813   0.328  15.141   4.672  0.2172 -0.0945 -0.1956
30967W        W47814   5.751   4.305  11.438  0.0951  0.0407 -0.1080
30968W        W47815  14.702  12.533  12.435 -0.1962 -0.4707  0.1174
30969W        W47816   7.524   9.131  12.682  0.0850  0.0313 -0.2260
30970W        W47817  12.705   2.388   0.992 -0.1276  0.1942  0.2279
30971W        W47818  16.835   9.130  15.583 -0.1449  0.1834  0.0025
30972W        W47819   8.237  14.086  15.911 -0.2211  0.1325  0.2239
30973W        W47820  14.280   0.933   1.290 -0.2167 -0.0543 -0.0241
30974W        W47821   1.198   4.663   2.480  0.2612 -0.1731  0.0996
30975W        W47822  11.379  12.022  15.673 -0.1091 -0.1574 -0.0550
30976W        W47823  11.768  15.031   0.423 -0.0305  0.0890 -0.0761
30977W        W47824   6.706  14.285   4.585 -0.0363 -0.0069 -0.3784
30978W        W47825  11.657  15.447   5.485  0.0077 -0.0011 -0.0374
30979W        W47826   5.205  15.798   1.741 -0.2855 -0.3493  0.1743
30980W        W47827   9.314  15.901   0.394 -0.5517  0.2111  0.0160
30981W        W47828   2.903   1.174  12.874 -0.3420 -0.3660 -0.2631
30982W        W47829  18.208   3.170  14.213  0.2485  0.0524 -0.0113
30983W        W47830   8.433   3.653  13.110  0.1982 -0.4259 -0.2447
30984W        W47831   5.106   1.235   3.777  0.2569 -0.0861  0.1931
30985W        W47832   8.578   6.358   3.234 -0.0775 -0.0708  0.1211
30986W        W47833   3.227  16.725   0.311  0.3949 -0.0392 -0.1653
30987W        W47834   7.484  16.259  12.970 -0.1564  0.1058 -0.0886
30988W        W47835  16.211  17.254   3.272  0.1258 -0.0986 -0.0788
30989W        W47836  16.897  16.018  12.071 -0.1312  0.4030 -0.3365
30990W        W47837  10.955  11.165  15.283 -0.1618 -0.2108  0.3126
30991W        W47838   7.512  11.299  15.284  0.0136 -0.1523 -0.0153
30992W        W47839   2.673   0.867   0.135 -0.3798  0.0944  0.0760
30993W        W47840  12.210   6.735   2.748 -0.3338  0.0258  0.2875
30994W        W47841   7.326  18.090   3.384 -0.1106  0.1170 -0.0529
30995W        W47842   2.017   7.708  12.478  0.3170 -0.1942 -0.2222
30996W        W47843   5.320   1.732   1.730  0.1320  0.0396 -0.1102
30997W        W47844   0.696  11.522   1.900 -0.0795 -0.1911  0.0112
30998W        W47845  10.110   7.785  15.643  0.2977 -0.1213 -0.2196
30999W        W47846   7.759   4.399  11.812 -0.2305 -0.0573  0.3637
31000W        W47847   8.926  13.305   3.856  0.4641  0.0676  0.1627
31001W        W47848  10.055  15.294   0.418 -0.2103  0.1408 -0.0693
31002W        W47849  18.372  11.418  15.456  0.3054 -0.1398 -0.1668
31003W        W47850  15.071  14.955  14.903 -0.0323  0.0251  0.1179
31004W        W47851   8.629   0.902   4.390 -0.0878  0.1745 -0.1561
31005W        W47852   2.585   1.769   0.221 -0.1517 -0.0030 -0.0701
31006W        W47853  16.234   8.126   4.480 -0.1917  0.1999 -0.2401
31007W        W47854   1.825   2.183  13.836 -0.0818  0.1162  0.0940
31008W        W47855   0.475   0.691  13.963 -0.2941 -0.2225 -0.2426
31009W        W47856   0.316   8.235   2.555  0.0698 -0.3230  0.1930
31010W        W47857   8.962   0.442   0.229  0.1525  0.2743 -0.2592
31011W        W47858   5.893   8.282   0.695  0.1513  0.0236 -0.0947
31012W        W47859  17.551   6.984   1.452  0.3079 -0.2560 -0.1066
31013W        W47860  15.964   0.367   1.584 -0.0269 -0.1001 -0.0342
31014W        W47861  12.906  15.214   0.537 -0.2149 -0.0147 -0.1036
31015W        W47862   7.511  13.957  14.871  0.0908 -0.0098  0.1188
31016W        W47863  10.317   9.866  15.920 -0.1319  0.1861  0.0137
31017W        W47864   9.193  15.417  14.987 -0.2927  0.2449  0.1817
31018W        W47865   3.680   8.029  12.517  0.1734 -0.0677  0.0130
31019W        W47866  15.861   5.616   4.892  0.0830  0.1621  0.0797
31020W        W47867   6.826  17.720   2.687 -0.2585 -0.1676 -0.0356
31021W        W47868   9.985   3.161  12.144 -0.2849  0.0328 -0.1145
31022W        W47869   3.907   4.090   1.008  0.0781  0.2522 -0.1798
31023W        W47870  11.948   6.018  12.850  0.0606 -0.1023 -0.0293
31024W        W47871  18.183   4.723  10.801  0.1563  0.1859  0.0220
31025W        W47872   4.213  14.630  12.104 -0.0071 -0.1706 -0.0570
31026W        W47873   5.050  11.214  14.081 -0.3425 -0.0579 -0.1212
31027W        W47874  15.890   7.280  15.215 -0.1848 -0.0573  0.0227
31028W        W47875   2.104   2.894  11.106 -0.0581 -0.2150 -0.3485
31029W        W47876  10.896  12.385   4.241 -0.0222  0.0037  0.0628
31030W        W47877  10.352   4.664   4.682 -0.4203  0.0821 -0.3590
31031W        W47878  12.459  12.992  14.739  0.1854  0.0604  0.0228
31032W        W47879   8.879   8.065  13.446  0.2089 -0.0342  0.0822
31033W        W47880   3.607   5.657   4.599  0.0432 -0.1118 -0.3079
31034W        W47881   0.361  14.131  13.758 -0.0910  0.1680 -0.1095
31035W        W47882  10.318   1.981  11.564 -0.2028  0.0708  0.0064
31036W        W47883   9.209  12.420  14.043  0.0015  0.1913  0.0073
31037W        W47884   6.428   6.442  11.484 -0.3288  0.0882  0.5195
31038W        W47885  13.218   3.550  15.106  0.2937  0.0658  0.0062
31039W        W47886   9.460   6.933  13.955  0.1436  0.5032  0.0097
31040W        W47887  14.438   9.151   0.719  0.0158 -0.1491 -0.1204
31041W        W47888   0.906  15.754   0.300 -0.0802 -0.1009  0.1805
31042W        W47889   7.117   1.390  15.064 -0.1731 -0.2198 -0.3413
31043W        W47890  10.817   8.914   0.020 -0.0148  0.0262 -0.0844
31044W        W47891  15.604   1.932  11.149  0.0633 -0.1321  0.0914
31045W        W47892   0.349  16.222   3.299  0.2665 -0.2595  0.3956
31046W        W47893   6.189   3.397  15.689  0.0253 -0.1050 -0.2141
31047W        W47894   5.068   8.145   5.144 -0.3072 -0.0122 -0.2776
31048W        W47895   2.891   0.172   1.939  0.0811  0.1711  0.0126
31049W        W47896   8.550  13.224   5.639 -0.6066  0.1138 -0.0523
31050W        W47897   0.258   5.883   2.712 -0.0113 -0.2782 -0.2567
31051W        W47898  17.762  10.436  11.761  0.3352  0.2644  0.1589
31052W        W47899  16.814   7.200  12.118  0.0638 -0.0347 -0.2399
31053W        W47900  10.274   2.284   5.223  0.1842  0.1790 -0.1861
31054W        W47901   3.543   9.821   2.073  0.0817 -0.0782  0.2769
31055W        W47902   9.628   0.815  14.680 -0.0959  0.0419  0.1044
31056W        W47903  14.702  17.415  13.636  0.0267 -0.3188 -0.1215
31057W        W47904  13.907  17.923   3.345 -0.1014 -0.0296  0.1061
31058W        W47905   2.264  17.846   4.370 -0.0891  0.3348  0.4283
31059W        W47906   4.833   5.072   1.310  0.0700  0.2224 -0.1180
31060W        W47907   5.130  14.890   4.082 -0.0869  0.1909 -0.1765
31061W        W47908  13.913  18.127  14.225  0.2950  0.0835 -0.1945
31062W        W47909  16.035  14.372   5.219 -0.0539  0.1559 -0.2540
31063W        W47910  17.885   2.441   5.784  0.0765 -0.1163 -0.2177
31064W        W47911   0.243  14.677  12.873  0.1828  0.2825  0.0598
31065W        W47912   0.706  11.595   3.613  0.2136  0.0381  0.0438
31066W        W47913  13.210   5.077  13.085 -0.2262 -0.1205  0.4105
31067W        W47914  13.771  11.761   5.436  0.0827  0.2020 -0.1341
31068W        W47915   1.759  15.766  12.784 -0.0401  0.1683 -0.2506
31069W        W47916   8.029  14.463   4.076 -0.0587  0.1488 -0.0514
31070W        W47917   8.292  16.367   0.938 -0.0837  0.0066 -0.1100
31071W        W47918  17.679   9.078  13.484  0.2021 -0.0117 -0.0630
31072W        W47919   5.272  17.224   0.381  0.0235  0.1142  0.1274
31073W        W47920   2.724   5.908   1.032  0.2901  0.2125  0.2132
31074W        W47921  10.897   6.720   3.680  0.1065 -0.2054  0.0590
31075W        W47922  12.370  17.824  10.999 -0.1248  0.0994  0.1858
31076W        W47923  16.168   1.146  15.414 -0.0940  0.1387  0.1500
31077W        W47924  15.308  16.679  12.552  0.0670 -0.2441 -0.1574
31078W        W47925   2.129  13.986   4.303  0.1801  0.2769 -0.0859
31079W        W47926   0.980  14.365  15.020 -0.0586 -0.3807  0.3111
31080W        W47927   0.767   7.322   0.292  0.1814 -0.1062  0.1598
31081W        W47928   8.045  14.193   5.844 -0.2815 -0.1621  0.1120
31082W        W47929   6.003   8.284   4.744  0.0713  0.2106 -0.0161
31083W        W47930   0.023  17.485  14.061  0.0912  0.1930 -0.0030
31084W        W47931   7.177   6.453  16.091 -0.0555  0.4703 -0.3157
31085W        W47932  17.871   6.774  12.066 -0.0626 -0.0608 -0.0478
31086W        W47933   9.751   9.919  12.687 -0.0539  0.1646 -0.0201
31087W        W47934   8.339  14.109   2.599  0.0492  0.2264 -0.2667
31088W        W47935   9.845  11.294  11.782  0.0535  0.1273  0.2710
31089W        W47936  10.559   2.040   2.255 -0.2285  0.0809 -0.0206
31090W        W47937   0.066  10.395  16.078 -0.2469 -0.0376 -0.0553
31091W        W47938   1.061   2.945   2.220  0.0185  0.1165 -0.2046
31092W        W47939  10.332  16.978  15.744 -0.3259 -0.4066  0.4262
31093W        W47940   3.789   0.996  15.576 -0.2203  0.0330 -0.2826
31094W        W47941   9.720   7.884  11.972  0.0379  0.2230 -0.0521
31095W        W47942   9.949  17.108   5.112 -0.1260 -0.1428  0.2663
31096W        W47943  12.415   5.389   3.561  0.2663  0.1305 -0.2665
31097W        W47944   6.513   1.087   5.860  0.1472 -0.0301  0.2636
31098W        W47945   4.938  12.904   0.359 -0.0373 -0.3907  0.2380
31099W        W47946   7.123   0.854   4.126  0.0121  0.0801  0.0995
31100W        W47947  18.014  16.981   4.423 -0.0211 -0.0884 -0.2426
31101W        W47948  16.302   1.114   5.071 -0.0237 -0.1434 -0.4800
31102W        W47949  14.421  14.267  13.991  0.1710  0.1762 -0.0488
31103W        W47950  10.179   6.210  12.392 -0.2233 -0.1791  0.0085
31104W        W47951   1.474  10.089  11.876  0.0088  0.0300  0.0209
31105W        W47952   4.379   1.981   1.667  0.3848 -0.0017  0.2900
31106W        W47953   4.066  12.545  12.871  0.1668  0.0084 -0.1433
31107W        W47954  14.976   1.561  13.745 -0.0004  0.1201  0.0152
31108W        W47955   7.654   1.072   3.488 -0.0722 -0.3184 -0.3653
31109W        W47956   8.077   2.384   1.159  0.1323  0.0911  0.0174
31110W        W47957  13.536   2.181  11.810  0.2115  0.0822 -0.5097
31111W        W47958  11.941   7.565   4.688  0.2473  0.1487 -0.0183
31112W        W47959  17.243  10.547   3.485 -0.3038 -0.1667  0.0603
31113W        W47960   4.358   2.613   0.861 -0.0644  0.1045 -0.2383
31114W        W47961   2.933   1.485   0.481 -0.0290 -0.4955  0.1751
31115W        W47962  16.331   0.962   1.521 -0.0232  0.4124  0.1711
31116W        W47963   5.885   7.803  12.451 -0.3554 -0.2271 -0.4312
31117W        W47964  17.137  16.516   5.049 -0.1870  0.0450 -0.2737
31118W        W47965   6.151   8.971   1.196  0.3663  0.0877 -0.2731
31119W        W47966  18.146   1.947  15.354  0.0192 -0.0083 -0.0202
31120W        W47967   2.494  16.260   0.130  0.0085  0.1068  0.2185
31121W        W47968   4.014   7.376  16.068  0.2945 -0.1264 -0.2117
31122W        W47969   5.612   6.691   2.961 -0.0285  0.0024 -0.0700
31123W        W47970   8.002  14.274  15.029  0.0920 -0.2147  0.2323
31124W        W47971   6.538   0.316   5.123 -0.3854  0.4755  0.1914
31125W        W47972  12.276  11.170   0.678  0.1336 -0.1677  0.1263
31126W        W47973   5.380  17.226  11.832 -0.1048  0.1702  0.1529
31127W        W47974   4.761  16.547  16.026 -0.0169 -0.1206 -0.1567
31128W        W47975  10.266   8.765  12.029  0.0232 -0.2540  0.1139
31129W        W47976  10.676   2.099  13.497  0.0016 -0.1482  0.0844
31130W        W47977  11.549   3.443  14.676  0.1071  0.1250  0.0856
31131W        W47978  15.038  10.738   4.878  0.0157 -0.2107  0.1400
31132W        W47979  10.610   3.708  14.767 -0.1527 -0.0413 -0.0977
31133W        W47980  12.870   6.310   4.518 -0.0433 -0.2760 -0.2585
31134W        W47981   1.054   2.529  11.045  0.1469 -0.1745 -0.4399
31135W        W47982  13.748   5.539   2.130  0.1010  0.0781 -0.4724
31136W        W47983  16.970   1.088   3.649 -0.0586 -0.2351  0.0840
31137W        W47984   8.955  11.603   2.982  0.0910  0.0841  0.1735
31138W        W47985  17.013   0.967  11.734  0.0156 -0.1780 -0.1253
31139W        W47986  13.685  15.813   0.308 -0.0459  0.1868  0.1171
31140W        W47987   0.500   3.093   5.455  0.1087 -0.2708 -0.2059
31141W        W47988  11.262  10.619   2.353  0.2514  0.0356  0.1770
31142W        W47989   9.289   5.797  12.055  0.1474  0.1745 -0.0647
31143W        W47990  13.985   5.177   1.632 -0.1064 -0.0226  0.0674
31144W        W47991   0.309   6.578  15.286  0.3113 -0.1616  0.0633
31145W        W47992  16.544   7.635   3.139  0.0966 -0.2273  0.1280
31146W        W47993   4.789   9.083   0.070  0.0136 -0.0828 -0.1729
31147W        W47994   7.131  16.610   3.259  0.2234 -0.2579  0.1245
31148W        W47995  15.516  11.778  14.789 -0.0022 -0.2253 -0.0865
31149W        W47996  16.047  17.096   1.265 -0.3051 -0.2929 -0.2096
31150W        W47997   4.048   8.030  14.303  0.2833  0.1529 -0.2348
31151W        W47998   6.687   4.210  16.191 -0.1893  0.2491 -0.2755
31152W        W47999   1.666  13.566   1.821 -0.1851  0.0152 -0.0929
31153W        W48000   0.767   5.731   1.711 -0.2271  0.1403 -0.3213
31154W        W48001  14.057  10.659  13.518  0.0661  0.1759  0.1690
31155W        W48002  14.001   5.265  13.416  0.1438 -0.2165  0.3556
31156W        W48003   3.441  16.853   1.144 -0.0637  0.0067 -0.0190
31157W        W48004  17.533   4.094  15.996  0.0512  0.2646 -0.0167
31158W        W48005  10.106   8.074   5.189 -0.2188  0.1728 -0.0220
31159W        W48006   9.237   3.336  14.212 -0.0694 -0.0592 -0.2182
31160W        W48007  11.680  16.075   3.898  0.1337 -0.1875  0.0849
31161W        W48008   5.443   1.458   3.191  0.0658  0.3043  0.1912
31162W        W48009   8.658  11.423   0.282 -0.2775 -0.1392  0.0286
31163W        W48010   4.873  14.550   3.209  0.1179  0.1384 -0.0961
31164W        W48011  12.505   9.685  11.826 -0.1929 -0.1950 -0.0456
31165W        W48012   8.779  14.318   4.220 -0.3235 -0.3128  0.2874
31166W        W48013   5.133  18.387  15.462  0.0350 -0.3823  0.2362
31167W        W48014  16.270   8.704   3.440  0.2121  0.1723 -0.0451
31168W        W48015  15.788  17.248   4.365  0.2723  0.2085 -0.0474
31169W        W48016  17.979   1.393  12.813 -0.0695  0.1919 -0.0227
31170W        W48017   7.834  14.654  12.162  0.0022  0.0353 -0.2247
31171W        W48018   4.494  17.734  14.255  0.1374  0.1348 -0.4991
31172W        W48019   1.503   8.974   4.061  0.3092 -0.4087 -0.0212
31173W        W48020   9.358   5.819   3.221  0.1029  0.1747  0.1096
31174W        W48021   4.799  15.420  11.719 -0.0218 -0.2326 -0.1127
31175W        W48022   0.502  15.325  13.191  0.0364 -0.1148  0.0858
31176W        W48023   8.952   4.312   0.141 -0.0986 -0.2109  0.2097
31177W        W48024  17.985   5.882  12.999 -0.2716 -0.5267 -0.0779
31178W        W48025  18.043   0.034  12.118  0.1097  0.0413  0.2042
31179W        W48026  13.871   7.034   4.888  0.1959 -0.0481 -0.2403
31180W        W48027   8.754   2.291   0.173  0.0359  0.0734 -0.0868
31181W        W48028  13.136  11.270  15.160 -0.0025 -0.0450  0.0919
31182W        W48029   2.369  11.976  14.431  0.1349  0.2050 -0.2460
31183W        W48030  13.884   3.972  16.280 -0.0750 -0.1466 -0.0592
31184W        W48031  12.090   5.161  15.218 -0.1070 -0.0265  0.3756
31185W        W48032   8.762   6.519   0.274 -0.1516 -0.2888  0.2836
31186W        W48033   4.029   7.766  13.753  0.0179  0.2237  0.1759
31187W        W48034   3.495  15.754   2.967 -0.2893  0.2462  0.1734
31188W        W48035  17.261  12.056  12.511  0.1842  0.3277  0.1360
31189W        W48036  16.538   8.024   0.357  0.1150 -0.0136 -0.0619
31190W        W48037   8.771  15.806   0.323 -0.0963  0.2937  0.2092
31191W        W48038   3.245   2.704   1.022  0.2729 -0.0025 -0.1035
31192W        W48039   0.852   5.815  13.625  0.1750  0.0179  0.2603
31193W        W48040  11.384   5.756   2.860  0.0084  0.0561 -0.1050
31194W        W48041  15.538   7.253   1.284  0.1468  0.0551  0.0260
31195W        W48042   0.702   5.215   4.421 -0.0410 -0.1334 -0.0047
31196W        W48043   6.522  12.288   5.437 -0.0570 -0.1942  0.2285
31197W        W48044  10.745   2.007   3.161 -0.1233 -0.0404 -0.2605
31198W        W48045  11.724  13.439   4.003 -0.0541 -0.0624  0.1967
31199W        W48046   3.746  17.690  13.339  0.0470 -0.0819  0.0142
31200W        W48047   5.952  10.370  14.825  0.0888 -0.2815 -0.0464
31201W        W48048   1.258  12.801   0.906  0.1089  0.1190 -0.3696
31202W        W48049  17.348  10.808  15.195  0.0190  0.3229  0.0598
31203W        W48050  18.049   8.283  11.317  0.1280 -0.2082  0.1195
31204W        W48051  16.279  12.657  15.114  0.0045 -0.2534  0.2404
31205W        W48052  16.467   4.636  11.072 -0.2728 -0.0432  0.0792
31206W        W48053  16.435   9.324   0.411  0.1090 -0.4388 -0.1813
31207W        W48054   7.723   2.414  13.423 -0.1699 -0.0303 -0.0217
31208W        W48055  17.224   1.131  13.480  0.2759 -0.0457 -0.0560
31209W        W48056   6.458   4.105  14.189 -0.0251  0.1373 -0.0368
31210W        W48057   6.452   6.410   9.992 -0.1022  0.1372 -0.0037
31211W        W48058   4.920  10.981   5.671  0.1364  0.0030 -0.0943
31212W        W48059   0.323   9.184  12.048  0.1677 -0.0515 -0.0484
31213W        W48060   0.374  17.206  15.981 -0.1602  0.1385 -0.1826
31214W        W48061   5.301   9.468   1.343  0.1804  0.0820  0.0362
31215W        W48062   8.545   4.588   1.068  0.2255  0.2510  0.1303
31216W        W48063  14.095  10.207  11.612  0.0083 -0.1345 -0.0265
31217W        W48064   2.485   6.262   4.275 -0.1470  0.1886 -0.3176
31218W        W48065  17.519   9.814  14.073 -0.0526  0.2398 -0.0245
31219W        W48066   9.554  14.714  12.264 -0.2872 -0.1635 -0.1129
31220W        W48067   2.571   3.435  10.843 -0.1378 -0.1183  0.0958
31221W        W48068   9.505   9.977   1.398 -0.2910 -0.1453 -0.1952
31222W        W48069  14.249   0.794   0.805 -0.2824 -0.4675 -0.0856
31223W        W48070   2.852   7.304  11.168 -0.0456  0.3308 -0.0827
31224W        W48071   8.695  14.403   0.419  0.3036  0.1438 -0.1031
31225W        W48072  11.496  16.264   1.476 -0.0177 -0.0556  0.2283
31226W        W48073  10.277   4.027  11.624  0.2336 -0.0604 -0.0136
31227W        W48074   2.830   1.224  12.393  0.2261 -0.4441  0.2068
31228W        W48075   1.917  15.950  15.177  0.0715 -0.0684 -0.2509
31229W        W48076  17.368   1.424   0.898  0.0968 -0.3902  0.3904
31230W        W48077  10.191   4.411   3.694 -0.0557 -0.0301 -0.0830
31231W        W48078  14.630   3.336   0.291 -0.1194 -0.0523  0.1956
31232W        W48079  11.963   8.051   0.142 -0.1499 -0.2779 -0.3333
31233W        W48080  13.945   5.627   1.416  0.3099 -0.0630 -0.1732
31234W        W48081   1.182   7.298  12.063  0.0943 -0.0626  0.0001
31235W        W48082   5.950  11.850   2.481  0.2988  0.2627  0.0389
31236W        W48083   3.210  10.135   2.281  0.1698  0.2890  0.1519
31237W        W48084   3.257  15.380  14.265 -0.2057  0.0016 -0.0483
31238W        W48085  12.864  11.830   1.189 -0.2666 -0.2986 -0.0485
31239W        W48086   2.542   0.604   3.640 -0.4532 -0.1220 -0.0297
31240W        W48087  18.305   8.116  14.856  0.1353 -0.4718  0.3377
31241W        W48088   2.497   1.976   0.989  0.0969 -0.2859  0.0138
31242W        W48089   0.868   3.944   2.587  0.0803 -0.0881 -0.1078
31243W        W48090  14.363   9.398  15.126  0.2338  0.0322  0.0211
31244W        W48091   0.822   3.742  15.317  0.0713  0.1719  0.1992
31245W        W48092  16.206  17.546  14.425 -0.0195  0.3114  0.1577
31246W        W48093  11.058   5.446  14.492 -0.1677 -0.1194  0.2275
31247W        W48094  15.344  17.640  15.399 -0.1870  0.2118  0.0737
31248W        W48095   0.534   7.148   1.587  0.3056  0.1743  0.0907
31249W        W48096   9.154   8.281   2.028  0.1084 -0.0978  0.1653
31250W        W48097  16.872  16.019   4.584 -0.1366  0.0089  0.1348
31251W        W48098  13.497  11.042   1.138 -0.0966 -0.2718  0.0290
31252W        W48099  10.413   7.639   0.506 -0.0135  0.0300  0.2587
31253W        W48100  11.841  11.707   4.646 -0.1559 -0.1652  0.4061
31254W        W48101   4.847   9.809   2.658 -0.1610  0.0628 -0.1518
31255W        W48102   2.197   5.600   1.830  0.1754  0.3472  0.0558
31256W        W48103   1.154   5.004   3.627 -0.2774  0.2910 -0.2962
31257W        W48104   5.934   0.079   1.497 -0.2233  0.1333 -0.0528
31258W        W48105   1.516   9.829  13.776 -0.1864  0.3152 -0.2415
31259W        W48106   6.750   2.252   3.188  0.2272  0.2255 -0.2176
31260W        W48107  11.101  18.053   1.024  0.2406 -0.1248  0.3080
31261W        W48108   2.213   1.872   5.035  0.2683 -0.2785  0.3931
31262W        W48109  14.167   4.761   1.404  0.2142  0.0664  0.1513
31263W        W48110   2.637   4.432   2.223 -0.0412  0.0670 -0.1527
31264W        W48111   9.481   5.498   2.835  0.1908  0.0478  0.2392
31265W        W48112   8.133   7.717   3.511  0.3867  0.0347 -0.3727
31266W        W48113   6.555   5.460   3.057  0.0638  0.0143  0.0758
31267W        W48114   0.071  12.072   2.906  0.2539 -0.1812  0.2951
31268W        W48115  15.118   6.075   2.586  0.2129 -0.0232 -0.1100
31269W        W48116  10.021  15.587  13.883  0.2990 -0.2129  0.1068
31270W        W48117   9.795   3.601  15.482  0.3777 -0.2868  0.2246
31271W        W48118  16.995  12.386  13.773  0.0287 -0.0670 -0.0968
31272W        W48119   1.525   4.546   0.395 -0.1382  0.1301  0.1465
31273W        W48120   5.026  10.930   4.119 -0.3272  0.0409  0.2391
31274W        W48121  14.672  17.672  12.714 -0.3412  0.1621  0.1115
31275W        W48122  17.462  15.897  11.689  0.0947 -0.0435  0.0398
31276W        W48123  14.531  15.405  14.604 -0.0613  0.0023  0.1021
31277W        W48124  13.276   9.450   6.111  0.0561  0.2573 -0.0843
31278W        W48125   4.407  16.818  15.659  0.0939 -0.1175 -0.0696
31279W        W48126   7.712  13.960  15.980  0.1913 -0.0429  0.0324
31280W        W48127   3.190   6.978   1.927 -0.0019  0.3421  0.1257
31281W        W48128  10.240   3.579  12.308  0.1964 -0.3456 -0.0649
31282W        W48129  12.977  16.471   3.366 -0.0820 -0.3109 -0.1896
31283W        W48130   1.388   5.007  14.084 -0.2476 -0.2502 -0.3174
31284W        W48131  18.036  16.493   0.098 -0.1261 -0.0701 -0.2139
31285W        W48132  15.543  12.720  14.453  0.0849 -0.0230 -0.2638
31286W        W48133  15.981   3.447   3.644  0.0034  0.0174 -0.1999
31287W        W48134  11.739   4.959  11.377 -0.0876  0.0312 -0.0491
31288W        W48135  15.604  17.769  12.495  0.0368  0.1309 -0.0132
31289W        W48136   3.101  11.725   3.482 -0.0792 -0.1374  0.0267
31290W        W48137   3.953  12.187   6.459  0.1424  0.0475  0.1808
31291W        W48138   6.301   3.511  14.819 -0.1135 -0.3129  0.0239
31292W        W48139   4.460  18.297  14.262 -0.1389 -0.1360  0.2697
31293W        W48140   0.056   6.851  10.871  0.0857  0.2518 -0.1025
31294W        W48141   6.348   7.220   5.484  0.2177 -0.1910  0.1942
31295W        W48142   1.953  12.686  14.903  0.0835 -0.1016  0.1563
31296W        W48143   8.900  10.570   2.620  0.1099  0.1462  0.2073
31297W        W48144  10.158   0.756  13.690  0.0704  0.3231  0.1582
31298W        W48145   7.866  17.231  16.264  0.0944 -0.1382 -0.1917
31299W        W48146  10.246   8.855  13.870  0.0539 -0.1816  0.0547
31300W        W48147  16.035  10.114  11.476  0.3062 -0.0411  0.0642
31301W        W48148   6.780   2.801  16.031  0.0818 -0.4004  0.0012
31302W        W48149  11.195  10.245   1.503  0.2061  0.0069  0.2382
31303W        W48150  15.627   8.898   4.276  0.0846 -0.2768 -0.0947
31304W        W48151  12.550   7.922   1.295  0.3125 -0.1401  0.1696
31305W        W48152  13.480  10.036  13.439  0.3116 -0.1299 -0.2000
31306W        W48153   6.942   0.628   2.457  0.0560 -0.1646 -0.0053
31307W        W48154  17.720   0.353  13.701  0.1049  0.1506  0.0837
31308W        W48155   4.229   5.811  11.584  0.1207 -0.0970 -0.1301
31309W        W48156   2.527   4.115  15.878 -0.0927  0.0402  0.0183
31310W        W48157  16.776   7.532  12.532 -0.0113  0.0341 -0.1040
31311W        W48158  14.675   0.447   4.127 -0.0241 -0.0897 -0.0612
31312W        W48159  17.811  16.766  13.552  0.3095  0.1129 -0.1515
31313W        W48160  15.324  15.965   5.537 -0.3243 -0.1001 -0.0578
31314W        W48161   5.017  13.842  15.605  0.4396  0.2694  0.0312
31315W        W48162  10.144  18.191  15.450  0.3239  0.0256  0.2857
31316W        W48163   4.058   4.061  10.575  0.1447 -0.1028  0.0791
31317W        W48164  12.962   1.624   5.332  0.0416  0.2994 -0.2267
31318W        W48165  16.047   2.362  14.107 -0.1282  0.1095  0.2267
31319W        W48166  13.669   7.295  12.143 -0.0878  0.0020 -0.0236
31320W        W48167   8.589   6.476  11.750 -0.2029  0.1365  0.0334
31321W        W48168   6.805   8.088  12.349 -0.3251  0.0570  0.2138
31322W        W48169   3.654   1.494   3.994 -0.2014  0.0780 -0.0842
31323W        W48170  10.787  18.163   4.909  0.1169 -0.0991  0.0558
31324W        W48171   5.159  14.159  14.138  0.2661  0.0927  0.0745
31325W        W48172   6.934  18.050   5.338 -0.2223 -0.0920  0.1790
31326W        W48173  16.049  13.091   4.793 -0.1474 -0.0838  0.0765
31327W        W48174   1.618   3.557  13.523 -0.0581  0.1729  0.1182
31328W        W48175   3.470   4.410   3.305  0.0034 -0.2213  0.1914
31329W        W48176   3.407   5.402  10.560  0.0587  0.1759 -0.2377
31330W        W48177   1.280   3.298  13.987  0.0522 -0.0004 -0.1378
31331W        W48178   4.940  15.613  15.412 -0.3025  0.2175  0.0910
31332W        W48179   7.217  17.324   3.500  0.1923 -0.2602 -0.4354
31333W        W48180   6.753  14.311  15.484  0.2327  0.3237 -0.1670
31334W        W48181  14.760   7.988   4.600  0.2368  0.2457 -0.1800
31335W        W48182  15.136   4.309   4.762 -0.1650 -0.1215 -0.3911
31336W        W48183   2.455   0.528  15.930 -0.1715 -0.0121  0.1807
31337W        W48184  15.811   7.971  16.163  0.1312 -0.0809  0.4575
31338W        W48185  11.753   6.214   4.260 -0.0884 -0.2735  0.0135
31339W        W48186  17.173  13.691   2.142 -0.0045  0.1547 -0.0052
31340W        W48187  10.227   3.926  12.847 -0.0094  0.2187 -0.3121
31341W        W48188  18.248  14.753   3.160  0.0008 -0.1010  0.1670
31342W        W48189   4.046   2.836  12.646 -0.0448  0.0988 -0.2445
31343W        W48190   1.966   0.451   2.830  0.1416 -0.0503  0.0790
31344W        W48191   2.001   9.918  13.896 -0.0174  0.2710  0.0317
31345W        W48192  11.645   1.846  10.941  0.0901  0.1051 -0.0539
31346W        W48193  13.558   6.220   0.794 -0.1067  0.0777  0.0008
31347W        W48194   5.557  17.702  11.876  0.0082  0.1982 -0.0556
31348W        W48195   8.179  14.406  14.455 -0.0242 -0.4368  0.0986
31349W        W48196   4.740  11.565  13.917 -0.2322 -0.2073 -0.3088
31350W        W48197   6.946  14.853   5.362 -0.0855 -0.1392  0.2548
31351W        W48198  16.253   5.487  15.490 -0.3482 -0.0195  0.0777
31352W        W48199   0.400   6.082   1.740  0.2020 -0.0210 -0.0768
31353W        W48200  17.143   5.565  14.542  0.2505  0.4029  0.1676
31354W        W48201   7.808   0.376  13.221 -0.0334  0.1432  0.0189
31355W        W48202  15.902   2.729   2.127 -0.0402 -0.0674  0.0332
31356W        W48203  10.018  11.980   4.120  0.1704  0.1647  0.0140
31357W        W48204  17.644  10.133   2.245 -0.2137 -0.0788  0.1278
31358W        W48205   8.415   5.716   5.353  0.3166 -0.0247 -0.2379
31359W        W48206   6.242   2.986  15.430 -0.1505 -0.0434 -0.1023
31360W        W48207   3.587   9.559   2.509  0.1442  0.1342  0.0620
31361W        W48208   6.287   7.376  11.252 -0.0741 -0.0825 -0.2675
31362W        W48209   4.217  11.585  12.477 -0.2082 -0.1774  0.3114
31363W        W48210  13.561   8.808  12.396 -0.2244 -0.1453 -0.0637
31364W        W48211   5.075   0.417  14.192  0.2774  0.2453 -0.0034
31365W        W48212   5.420  13.750  15.436  0.0554  0.1295 -0.1253
31366W        W48213  13.358  10.915   2.144  0.1083  0.2435  0.3046
31367W        W48214   5.211  11.472   3.592 -0.2672 -0.1189 -0.1482
31368W        W48215   5.738  15.709   1.563 -0.3384  0.0702  0.0622
31369W        W48216  15.972  12.000   1.330 -0.1115  0.3322  0.1038
31370W        W48217  11.673   9.568   1.722  0.2864  0.2831  0.1052
31371W        W48218   5.407   8.171   4.576  0.0418  0.0815  0.1220
31372W        W48219  14.275   2.363  13.678 -0.0745 -0.0443  0.0289
31373W        W48220   1.176  14.557   5.520 -0.0169 -0.1564  0.0409
31374W        W48221  18.251  18.137  13.569  0.0681  0.4195  0.2003
31375W        W48222   7.118   9.485  13.832 -0.2856 -0.0965  0.4231
31376W        W48223   5.786  13.479   1.166 -0.0764 -0.4405 -0.2818
31377W        W48224   8.404   3.471  15.815  0.0593  0.0158  0.1577
31378W        W48225  10.955  12.695  11.533  0.1405  0.0784  0.0345
31379W        W48226   1.899  15.757  13.356 -0.1421 -0.0589  0.2662
31380W        W48227  11.999   8.516   5.163 -0.1420  0.0574 -0.0330
31381W        W48228  13.837  11.076  15.337  0.0462  0.0843  0.0142
31382W        W48229   0.253  14.113   1.431  0.2066  0.1465  0.1566
31383W        W48230   8.598  11.024   3.350  0.2500  0.0816  0.1051
31384W        W48231   4.452   7.491  13.679  0.5055  0.1670 -0.2821
31385W        W48232   0.525   3.343   0.434 -0.0835  0.1826  0.0041
31386W        W48233  13.862   1.807  12.202 -0.0058  0.0438  0.0835
31387W        W48234  13.164   8.636  13.448 -0.0907  0.2434  0.0123
31388W        W48235  12.519  18.264  15.711 -0.2439 -0.1735  0.0749
31389W        W48236  17.408  14.387  14.404  0.1017  0.3118  0.0525
31390W        W48237  14.165   4.779  13.924 -0.2361  0.2224 -0.3368
31391W        W48238   8.687   8.906   0.058 -0.3631  0.1393  0.2839
31392W        W48239   5.963   8.766   0.757  0.0558 -0.1497 -0.1765
31393W        W48240   0.876   8.434   5.323 -0.0946  0.1160 -0.5096
31394W        W48241   1.374   4.657  16.116 -0.4158 -0.3625  0.2086
31395W        W48242   9.790   0.990  13.374  0.0397  0.0972 -0.0794
31396W        W48243  18.018  11.200   3.024 -0.0816 -0.2501  0.3087
31397W        W48244   9.480   2.646   1.125  0.0899 -0.1157  0.0831
31398W        W48245  10.639   2.613  15.384 -0.1751  0.0479 -0.1317
31399W        W48246   2.494   8.296   1.342  0.2861  0.1637 -0.2247
31400W        W48247   5.291   2.485   0.285  0.3506  0.0551  0.0342
31401W        W48248  15.252  12.182   0.032 -0.2908 -0.0672  0.1199
31402W        W48249   3.769  14.839  14.794 -0.0170  0.1450  0.1025
31403W        W48250  15.940  12.269   3.631  0.1743 -0.2269 -0.0192
31404W        W48251   7.445  14.004  13.630  0.2114  0.0180 -0.1091
31405W        W48252   3.342   4.537   4.196 -0.5304 -0.0431  0.0411
31406W        W48253  13.394   4.915  13.503 -0.3634  0.0007  0.1971
31407W        W48254   4.522   6.213  13.839  0.3702 -0.0038  0.1599
31408W        W48255  15.675  15.695  12.636 -0.2728 -0.1670 -0.3347
31409W        W48256   7.460   9.471   0.426  0.2206 -0.0031  0.3749
31410W        W48257   3.024   7.383  16.227 -0.1942 -0.0855  0.1363
31411W        W48258  11.039   9.818  12.468 -0.0870  0.1545 -0.0649
31412W        W48259   5.589  14.824   3.795  0.1137 -0.1481 -0.2077
31413W        W48260   9.932   0.687   3.692 -0.1010 -0.0436 -0.0184
31414W        W48261  17.803  12.250   0.809  0.3169  0.0216  0.0562
31415W        W48262   5.004   5.307  10.708  0.3042  0.0558  0.1632
31416W        W48263   3.954  11.488  14.653  0.2499 -0.0801  0.1476
31417W        W48264  17.449   6.045   1.214  0.2839 -0.2036 -0.0230
31418W        W48265  14.277   6.884  13.668 -0.0834 -0.1475 -0.0474
31419W        W48266  15.440   7.686  11.066 -0.1619 -0.2722  0.1903
31420W        W48267  14.938  14.760  13.723 -0.1826  0.0387 -0.1265
31421W        W48268   7.285  13.343   5.947 -0.1101  0.0023 -0.2711
31422W        W48269  16.265   1.970   0.529 -0.0358 -0.0715  0.0201
31423W        W48270  16.288   1.834  14.131  0.1288 -0.0499  0.0534
31424W        W48271  18.336   9.742  13.542 -0.4885 -0.2279 -0.1710
31425W        W48272   1.724  14.009   2.814 -0.0285 -0.0750 -0.2253
31426W        W48273  15.609   9.447   0.934  0.0899 -0.3884 -0.3121
31427W        W48274   9.626  18.139  13.606  0.4331 -0.4673 -0.2408
31428W        W48275   9.624  12.461  13.074 -0.2398 -0.2613 -0.4435
31429W        W48276  14.374   7.948   1.610  0.2200  0.1020  0.2318
31430W        W48277   7.905   2.809   2.188 -0.1981  0.2168 -0.0424
31431W        W48278  12.675  12.531  13.974  0.1485 -0.3004  0.1995
31432W        W48279   5.953   5.511   3.954  0.3975  0.1878  0.0842
31433W        W48280   6.130  17.469   2.947  0.1494  0.2153 -0.1027
31434W        W48281  11.654   0.833   0.358  0.0152 -0.4156 -0.0954
31435W        W48282  17.428  11.831   3.190  0.0213  0.1576  0.0952
31436W        W48283   8.226   8.148  13.397  0.1659 -0.2094  0.3043
31437W        W48284   2.271   0.520  15.346  0.1202  0.1053  0.0691
31438W        W48285   0.482   2.613  11.009  0.0880  0.0967  0.2013
31439W        W48286  15.602  12.322  12.929 -0.0921  0.0042 -0.1035
31440W        W48287   9.849   8.525   5.755 -0.1664  0.2605  0.0623
31441W        W48288   9.350  15.272   3.751 -0.4970  0.1581 -0.4375
31442W        W48289  11.284   5.759   5.533  0.2879  0.0516  0.1119
31443W        W48290   1.769   1.586   3.306  0.0117  0.4912  0.1164
31444W        W48291  15.659   4.620  15.617 -0.1433 -0.2042  0.3788
31445W        W48292  10.489   1.102  15.748 -0.2554  0.2228 -0.0414
31446W        W48293   2.031   2.343   3.624  0.0650 -0.0018 -0.0965
31447W        W48294   1.640  16.109   1.911 -0.3286 -0.0186  0.4241
31448W        W48295   7.829   8.878   4.857  0.0609  0.0967 -0.1541
31449W        W48296  10.684   4.927   0.775  0.0014  0.0499 -0.2581
31450W        W48297   6.850   8.743   0.600  0.0242 -0.2783  0.1542
31451W        W48298   4.268  16.609   4.954 -0.1749  0.0892  0.0517
31452W        W48299   0.794   7.748   2.069 -0.1250  0.0915 -0.2227
31453W        W48300  11.872  13.727  15.181  0.1197  0.1140  0.0691
31454W        W48301   5.498   2.884   1.713 -0.4285 -0.0185 -0.3549
31455W        W48302   2.568   0.171  15.058  0.1141 -0.0432  0.0951
31456W        W48303   4.078   3.195  13.959 -0.0748  0.0725 -0.2045
31457W        W48304   8.463   6.218  15.059  0.0423  0.0893 -0.0831
31458W        W48305  15.488   1.290  11.659 -0.0890  0.1386 -0.1871
31459W        W48306   2.828   7.316   1.172 -0.3390  0.3133 -0.3889
31460W        W48307  16.478  15.208  12.495 -0.2237  0.1241  0.1608
31461W        W48308  12.471  14.297  11.504  0.1181 -0.3222  0.0355
31462W        W48309  10.563   8.148  13.356 -0.0828 -0.0474  0.0400
31463W        W48310   8.202  14.244   0.378  0.2235  0.0742  0.0589
31464W        W48311   4.196  13.219  16.144 -0.0799 -0.0675 -0.0857
31465W        W48312  14.865  14.027  14.983 -0.2271  0.3039 -0.1301
31466W        W48313  12.447  15.120  15.647  0.1541 -0.1768  0.0296
31467W        W48314  11.215  16.624  15.292  0.0438 -0.2404 -0.0893
31468W        W48315   1.569   3.750  13.951  0.0242 -0.0751  0.0917
31469W        W48316  15.678   9.317  13.815  0.2674 -0.1333  0.1043
31470W        W48317   0.439   8.335  12.034  0.1664 -0.2440  0.0020
31471W        W48318   2.143   8.359  13.916  0.0413  0.0988 -0.1049
31472W        W48319  12.811  15.920   0.429 -0.0995  0.2452  0.1445
31473W        W48320  14.172  18.369   3.549 -0.1948  0.4251  0.1321
31474W        W48321   9.210  12.359  12.890  0.1826  0.0039 -0.0720
31475W        W48322   9.625   8.893   5.442 -0.1316  0.0791  0.1710
31476W        W48323   9.566  16.580  11.463  0.0231 -0.1293 -0.1397
31477W        W48324   7.360  12.549  13.023  0.1702 -0.0440  0.0349
31478W        W48325   6.403  14.860   4.572 -0.1582 -0.1136 -0.1731
31479W        W48326   7.316  18.255   3.912  0.1250  0.0641  0.2362
31480W        W48327   1.954  10.134  14.396 -0.0057 -0.1644  0.1546
31481W        W48328   7.364  15.968   2.711  0.2130  0.1201  0.1616
31482W        W48329   3.905   8.131  11.523  0.1069 -0.2431 -0.0237
31483W        W48330   5.446   3.702  14.506  0.0266 -0.3137  0.3171
31484W        W48331   1.397  12.768   0.316  0.1278  0.1749  0.0114
31485W        W48332  14.609   6.504  10.965  0.1239  0.1760  0.3012
31486W        W48333  11.076   4.216  12.715 -0.0043 -0.0796 -0.0258
31487W        W48334   4.349  17.976  11.610 -0.4861 -0.0539 -0.0268
31488W        W48335  12.605   5.331  14.449 -0.1411 -0.0142 -0.0199
31489W        W48336  12.320   6.339   4.354 -0.0607  0.0744 -0.0500
31490W        W48337   2.837   5.039  12.006  0.0598  0.3453 -0.0119
31491W        W48338   2.524  15.992  14.223 -0.1296 -0.1621  0.1957
31492W        W48339  16.273   1.296   3.296  0.3814 -0.0806 -0.2012
31493W        W48340   1.603   9.810  12.295 -0.1759  0.0852 -0.0546
31494W        W48341  13.625  11.968  15.370  0.0093  0.2830  0.0224
31495W        W48342   0.872  11.216   0.389  0.0686 -0.0510  0.0815
31496W        W48343   5.250   2.691  12.078 -0.3644 -0.0195  0.0902
31497W        W48344   1.563   7.117   4.633  0.0749 -0.0037 -0.2721
31498W        W48345  13.655   0.654  16.314  0.0272 -0.0252  0.3144
31499W        W48346   3.845  17.849   0.219  0.0923 -0.1082  0.3239
31500W        W48347  10.154  17.944  12.949 -0.0226  0.2606  0.4067
31501W        W48348   8.014   9.135   3.026 -0.0928 -0.4608 -0.1052
31502W        W48349   0.030  16.076  13.146 -0.1634 -0.4740  0.2911
31503W        W48350   8.456  14.827   2.090  0.1193 -0.0380 -0.1307
31504W        W48351   8.351   0.449   2.262 -0.1527  0.2229  0.1083
31505W        W48352   3.223   9.501  13.910  0.0519 -0.2353 -0.0116
31506W        W48353  11.721  10.520   2.233 -0.3890 -0.1022 -0.1445
31507W        W48354  12.368  12.369  12.471 -0.0650 -0.1062 -0.0577
31508W        W48355   9.170   1.725   2.277 -0.1969 -0.0854 -0.0425
31509W        W48356  13.214   9.543  12.306  0.0770  0.1272 -0.1218
31510W        W48357   0.061  14.094  14.224  0.2143 -0.2253 -0.3275
31511W        W48358  14.176   7.439  12.010  0.0926  0.0515 -0.1675
31512W        W48359   8.528   6.928   1.457 -0.0022  0.1080 -0.1872
31513W        W48360   1.264   9.457  13.015  0.0304 -0.2944  0.0812
31514W        W48361  11.997  12.074  15.812  0.2402 -0.2014  0.3941
31515W        W48362   3.635   1.902  11.701  0.0254  0.1138  0.1121
31516W        W48363  12.016   1.621   2.768 -0.0383  0.1642 -0.1089
31517W        W48364   0.383   4.047  13.052 -0.0285 -0.3395  0.0218
31518W        W48365   4.312   9.454  13.176  0.3238 -0.1676  0.0832
31519W        W48366   4.190   9.071   2.724  0.1405 -0.0090 -0.0752
31520W        W48367  17.923  17.190   5.550  0.4248 -0.1217  0.0945
31521W        W48368   3.046  16.247  12.406  0.2824  0.1403  0.3385
31522W        W48369  11.770  11.504   5.710 -0.1102  0.1777 -0.0426
31523W        W48370  16.184  15.731  12.907 -0.4215 -0.0509  0.1818
31524W        W48371   9.021  13.544   2.763  0.2302 -0.0145  0.3252
31525W        W48372   4.433  10.507  11.475 -0.0672  0.0294 -0.0927
31526W        W48373   0.598   8.730  15.329  0.2326 -0.1542  0.2736
31527W        W48374   9.152   5.749  15.722 -0.0496  0.3644  0.0384
31528W        W48375   6.902  18.245  14.575 -0.0086 -0.3226 -0.1473
31529W        W48376   1.787   6.206  14.189 -0.3441 -0.3197  0.0611
31530W        W48377   7.543   8.091   1.113  0.1576  0.4051  0.1322
31531W        W48378   4.053  14.874   2.128 -0.2889  0.0209 -0.1511
31532W        W48379  11.321   7.404   4.667  0.1880 -0.5936 -0.0098
31533W        W48380   7.996  16.340   2.967 -0.2268  0.1341 -0.2605
31534W        W48381  11.063   6.021  12.403 -0.2348 -0.3823  0.0140
31535W        W48382   2.681  12.187   1.950 -0.1593  0.1618 -0.0383
31536W        W48383  12.077   5.611  13.533 -0.1954  0.0148 -0.2649
31537W        W48384  10.635  10.633   3.712 -0.1562  0.0025 -0.1292
31538W        W48385   0.259  10.651  11.448  0.0837 -0.1929 -0.0289
31539W        W48386   2.858   1.903   2.285  0.1197 -0.0572 -0.0532
31540W        W48387  12.140   4.219  14.926  0.2137 -0.0469 -0.0576
31541W        W48388  13.708  12.447  13.393  0.0319 -0.3220 -0.3080
31542W        W48389   8.398   7.489   1.606  0.1745  0.1235 -0.0633
31543W        W48390   5.338   9.327   2.273 -0.0834 -0.1341  0.3544
31544W        W48391  11.682   4.964   0.858 -0.1789 -0.1853  0.1369
31545W        W48392  12.474  16.881  11.939 -0.3570  0.0509 -0.3736
31546W        W48393  15.519   8.175  11.048  0.0076 -0.1949  0.0297
31547W        W48394  12.428  10.102   1.729 -0.0582 -0.0091  0.3971
31548W        W48395  17.977  13.637  11.544  0.3120  0.2740 -0.1130
31549W        W48396   6.133   5.827   1.017 -0.3078  0.0445  0.0382
31550W        W48397  15.125  10.678   4.223  0.0287 -0.0621 -0.1949
31551W        W48398  16.082  15.004  12.188  0.0790  0.4372  0.0749
31552W        W48399  11.046  10.331   0.846  0.0408 -0.2442  0.0774
31553W        W48400  11.711  13.231   3.192  0.3817 -0.1143 -0.0772
31554W        W48401   9.232   5.881   4.971  0.0162  0.0005  0.2257
31555W        W48402  10.146  15.242   5.267 -0.1083  0.0158  0.1006
31556W        W48403  11.712  17.425   0.421  0.0471  0.0182  0.0881
31557W        W48404   2.085   0.048  14.699 -0.2640 -0.1126 -0.2171
31558W        W48405   4.598  14.112   0.674 -0.0341 -0.1082  0.3539
31559W        W48406   0.884   8.525  16.206  0.0003 -0.0807  0.1339
31560W        W48407  11.897   5.709  11.895  0.3442  0.0373  0.0927
31561W        W48408   5.497  10.838  14.137 -0.1228 -0.2390 -0.0254
31562W        W48409  12.110  14.808   4.817 -0.1704  0.0196  0.0728
31563W        W48410  10.921  11.725  14.528 -0.1794 -0.1593  0.2604
31564W        W48411   1.948  17.070   1.378  0.1600  0.2733 -0.0697
31565W        W48412   2.454  17.759   5.460 -0.0672 -0.0163 -0.0931
31566W        W48413   3.172  11.130   0.639  0.2303 -0.2892  0.1133
31567W        W48414   1.954   6.864  13.580  0.0639  0.0333 -0.0228
31568W        W48415  17.818   9.113  14.669 -0.1639  0.0288 -0.2287
31569W        W48416  11.548   7.659   0.116 -0.1498  0.1499  0.0012
31570W        W48417  17.444   8.608   1.765  0.0643  0.0975  0.3799
31571W        W48418   5.829  18.055  14.184  0.0572  0.0362  0.1140
31572W        W48419   2.042  13.721   2.165  0.1806  0.2876  0.0633
31573W        W48420   4.292  11.044  13.392  0.1211  0.0574  0.1761
31574W        W48421   9.351  14.692  12.999 -0.1915 -0.0581 -0.1897
31575W        W48422  13.516  18.051  14.558  0.2069  0.0117  0.1816
31576W        W48423   8.792   7.982  15.336 -0.0226 -0.0107  0.1625
31577W        W48424   8.769  11.273  12.614 -0.0937  0.2509  0.0793
31578W        W48425   0.487  12.883  12.960 -0.2801 -0.2249  0.2273
31579W        W48426   3.760  16.332   4.923 -0.0903  0.1441 -0.0905
31580W        W48427   2.942  11.927  16.023  0.0522 -0.3089 -0.1508
31581W        W48428  12.933   5.906   3.017 -0.1776  0.1636 -0.2114
31582W        W48429   7.009   8.105   1.361  0.0626 -0.0013  0.4513
31583W        W48430  12.198   1.723   3.654  0.0530  0.1650 -0.2738
31584W        W48431  13.329   2.368  11.316  0.3484  0.3214 -0.0192
31585W        W48432   6.589   9.134   2.830  0.4793  0.2723 -0.1634
31586W        W48433   3.974   9.469   2.935  0.1593 -0.0379  0.2541
31587W        W48434  13.072   2.807  11.207 -0.1380 -0.3931 -0.3675
31588W        W48435   8.630  10.710  15.792 -0.1223  0.0546 -0.2396
31589W        W48436   5.867   5.498   1.349 -0.3087  0.2414 -0.0566
31590W        W48437   6.344  13.884  16.356  0.0563 -0.2380 -0.2739
31591W        W48438  11.851  16.739  14.941 -0.1633  0.1810 -0.0319
31592W        W48439   1.120  10.259   0.761  0.0182  0.2259  0.0220
31593W        W48440  15.272  10.116  13.750 -0.2033  0.2433  0.2466
31594W        W48441  12.501  12.570  15.618  0.0402 -0.1383 -0.2095
31595W        W48442  15.697   3.896   5.471 -0.0011 -0.2397  0.0853
31596W        W48443   6.875  18.268  11.790  0.3610 -0.2684 -0.0785
31597W        W48444   4.766   6.591   3.163 -0.1831  0.3672  0.1057
31598W        W48445  14.262   6.700   2.349 -0.3816 -0.0622 -0.0395
31599W        W48446  17.968   9.463   3.427 -0.0114  0.3570 -0.2793
31600W        W48447  15.327  14.480   3.374 -0.0036 -0.0325  0.1093
31601W        W48448  12.389   9.056   3.181 -0.3977  0.0665 -0.0517
31602W        W48449  18.317  15.946   2.158 -0.0504  0.0162  0.0193
31603W        W48450  15.906   1.062   0.849 -0.2012 -0.0488  0.0280
31604W        W48451   6.475  13.491  12.590  0.1562  0.0785  0.2000
31605W        W48452   6.622  12.334  13.030  0.4891  0.1040  0.0765
31606W        W48453   5.189  15.784  12.782  0.1970  0.1769 -0.0471
31607W        W48454  10.719   9.187   0.780 -0.2731  0.1707  0.2043
31608W        W48455  11.937   3.147  13.382  0.0290 -0.2030  0.0990
31609W        W48456  10.312  11.443  12.388  0.1729 -0.2747 -0.2486
31610W        W48457   3.359   0.406   1.674  0.0635  0.1081  0.1525
31611W        W48458  15.053   9.691  13.217  0.1267 -0.0966  0.2498
31612W        W48459   5.631   0.486   4.224  0.1992  0.0045 -0.1009
31613W        W48460  10.665  13.866  11.804  0.0610 -0.1089  0.3490
31614W        W48461  16.009  16.176  13.765 -0.0307 -0.0194 -0.4127
31615W        W48462   3.945  16.309   0.618 -0.1328 -0.1382 -0.3207
31616W        W48463   1.194   2.731   4.692 -0.1310 -0.0142 -0.3783
31617W        W48464  14.314   5.039  15.944 -0.1582  0.1020  0.1837
31618W        W48465  15.671   4.066   0.747 -0.1481  0.1939  0.0023
31619W        W48466   4.032  15.721   0.038  0.1253  0.1972  0.6668
31620W        W48467  13.012  14.685  13.356  0.0437 -0.1493  0.0267
31621W        W48468  10.641   4.611   2.864 -0.0400 -0.3583 -0.1469
31622W        W48469  10.058  15.745  13.336  0.1057  0.1608  0.3202
31623W        W48470   6.645  10.310   2.189 -0.2877  0.1084  0.1917
31624W        W48471  12.476  10.554   2.991  0.1815  0.3135  0.0953
31625W        W48472   1.602  17.240  13.161 -0.1885  0.0575 -0.3592
31626W        W48473   3.243   6.086  15.442  0.1750 -0.0249 -0.0378
31627W        W48474  13.705   3.652  15.712 -0.0176  0.0370  0.0584
31628W        W48475  12.743   1.877   0.793  0.2741 -0.0120 -0.1657
31629W        W48476   2.597  11.124   3.120  0.2368 -0.0034 -0.1558
31630W        W48477   3.216  16.599   5.653  0.1901  0.1688 -0.1291
31631W        W48478   1.737   9.515  15.671 -0.2059  0.2069 -0.2359
31632W        W48479   3.823   1.270  15.990  0.0942  0.2345  0.1171
31633W        W48480  10.388   6.149   3.949  0.2840  0.2004 -0.1474
31634W        W48481  16.467  16.319  14.045 -0.0902 -0.0414  0.0265
31635W        W48482  15.064  12.176  14.665  0.1018  0.0324 -0.0440
31636W        W48483   1.783  14.465  13.553  0.4503 -0.1466 -0.0003
31637W        W48484  11.170  13.390   3.272  0.2687 -0.0664  0.0477
31638W        W48485   8.427   9.036  11.810 -0.2352 -0.2715  0.0077
31639W        W48486   2.713   2.117   5.060  0.0812  0.1363  0.1173
31640W        W48487   8.062  17.364  14.691  0.0821  0.1212 -0.2820
31641W        W48488  16.169   5.493  10.997  0.0531  0.0576  0.0073
31642W        W48489  16.417   6.413  14.411 -0.2432  0.1452  0.0722
31643W        W48490  12.339   2.400  15.477 -0.0334 -0.1085  0.4846
31644W        W48491   6.163   4.323  13.845 -0.2285 -0.0925 -0.1620
31645W        W48492   3.522   0.717   2.295 -0.1673  0.0788 -0.2872
31646W        W48493   3.968  10.298  10.329  0.0783  0.2232 -0.0337
31647W        W48494  14.813  14.285  13.540  0.0992 -0.2283  0.0581
31648W        W48495   0.116   7.927  16.372  0.1945 -0.1830  0.4684
31649W        W48496   6.865   5.959   3.120 -0.0364 -0.0599  0.0059
31650W        W48497  10.289  10.567   0.197 -0.1281  0.2398  0.2262
31651W        W48498  15.651   7.200  14.400 -0.0289 -0.2242  0.1045
31652W        W48499  13.209  16.760   2.998 -0.2890 -0.1801 -0.3024
31653W        W48500   9.249  11.612   1.160 -0.2971 -0.1499  0.2857
31654W        W48501   5.779   8.297  14.562 -0.4431 -0.1715 -0.1963
31655W        W48502  14.803   8.959  12.884 -0.2517  0.3013 -0.1814
31656W        W48503   5.771   2.074  13.586 -0.1294  0.2218 -0.2023
31657W        W48504   9.116  14.161  14.431  0.0454 -0.1019  0.2444
31658W        W48505  16.098  13.310   0.873  0.0432  0.1602 -0.0392
31659W        W48506  17.847  15.353  14.702 -0.0270 -0.1797  0.0866
31660W        W48507   8.987  13.449  15.507  0.1472  0.0372 -0.0359
31661W        W48508   1.931   1.031   4.277 -0.2900 -0.0346  0.0665
31662W        W48509   5.116  13.405  12.029  0.2430 -0.0405  0.0601
31663W        W48510   7.910   3.243  13.946  0.1423 -0.0476 -0.2263
31664W        W48511   4.533   8.478  12.623  0.4421 -0.1156 -0.1054
31665W        W48512   8.313  13.141   0.444  0.3331  0.0487 -0.2825
31666W        W48513   7.226   1.820   1.616  0.4613  0.2092  0.0922
31667W        W48514  13.594  11.364   5.130 -0.0988 -0.1854 -0.0850
31668W        W48515  16.958  14.736   0.724 -0.1672  0.3548 -0.0745
31669W        W48516  14.754   5.694   2.512 -0.1405 -0.0306 -0.2161
31670W        W48517   1.958  17.102   3.962 -0.0284 -0.2492 -0.0669
31671W        W48518  11.148   1.597  15.582  0.0730 -0.0280 -0.1804
31672W        W48519   1.767  15.716   0.294 -0.3037  0.1470 -0.1673
31673W        W48520  12.937  14.107   6.544  0.1088 -0.0074 -0.1174
31674W        W48521   1.466   1.166   0.764  0.2309  0.4909  0.1406
31675W        W48522   2.498   5.637  16.373  0.0316  0.1825  0.1703
31676W        W48523  17.705   2.245  15.522 -0.0513  0.2702 -0.0210
31677W        W48524   5.168   5.790   1.877  0.0821  0.0269 -0.0922
31678W        W48525  16.505   8.426   1.626 -0.0756 -0.0707  0.1682
31679W        W48526  11.877  11.108   3.391 -0.1581 -0.1029  0.1453
31680W        W48527   5.346   4.712  13.507  0.3773 -0.2579 -0.0995
31681W        W48528  13.950  16.619  15.224  0.1256  0.1175  0.0926
31682W        W48529   5.941   9.186  12.227 -0.0321 -0.0250 -0.2423
31683W        W48530   5.911  14.796   2.604  0.2488  0.0774 -0.0005
31684W        W48531   2.836  14.465   5.788 -0.0557  0.1017 -0.1201
31685W        W48532   8.003  13.723   4.407 -0.0614  0.0069  0.1964
31686W        W48533   1.419   0.825   4.402  0.2134 -0.0432  0.0065
31687W        W48534  12.265  11.859  12.707 -0.0048 -0.0299  0.2922
31688W        W48535   7.523   6.941  15.992 -0.2386 -0.2138 -0.3267
31689W        W48536   8.467   9.454   3.805  0.2494  0.3360  0.1968
31690W        W48537  14.930   0.775   0.263  0.2018 -0.3017  0.2615
31691W        W48538  16.107   0.736   2.380 -0.1015 -0.1303  0.1568
31692W        W48539  15.579   2.725  15.973 -0.0056  0.1753  0.3064
31693W        W48540   3.890  13.404  13.134 -0.0635  0.1362 -0.1006
31694W        W48541  10.685   8.568  13.693  0.3460  0.1378  0.0541
31695W        W48542  10.251   6.707   1.166  0.0137  0.0328 -0.0169
31696W        W48543   3.519   6.287   1.270  0.0243 -0.0520  0.0931
31697W        W48544   8.818  14.312  12.554 -0.0264  0.0082  0.3822
31698W        W48545  13.513  15.257   0.797  0.0455  0.0626  0.2635
31699W        W48546  18.117   5.896  12.368 -0.0294  0.0729  0.3088
31700W        W48547   4.474   4.675   2.221  0.0488  0.1392 -0.3295
31701W        W48548   3.806   6.556  12.386 -0.0172 -0.0910 -0.0800
31702W        W48549   4.509  14.228   3.052  0.1043  0.3354 -0.1665
31703W        W48550   8.849   7.772   5.472 -0.0575  0.1019  0.3720
31704W        W48551   9.562  13.576   2.453 -0.1401  0.1764 -0.3167
31705W        W48552   1.129  11.402  13.241 -0.0435  0.0528  0.2052
31706W        W48553   6.892   1.506  13.131 -0.0427  0.0939 -0.6084
31707W        W48554   3.709   9.231  11.185  0.1513 -0.1531  0.0952
31708W        W48555  11.126   1.474  12.852 -0.1282  0.0002 -0.0664
31709W        W48556   2.944  13.625  13.783  0.0698 -0.0877  0.1801
31710W        W48557   8.300  14.060  15.398 -0.0024 -0.0636 -0.1932
31711W        W48558  10.504  11.253   4.797 -0.2911  0.3095  0.1920
31712W        W48559  17.874   1.761  12.431  0.1458 -0.1169  0.0850
31713W        W48560  17.588  13.593  12.447  0.1319  0.4806  0.0450
31714W        W48561  14.998   5.088  14.802  0.1409 -0.0069  0.0267
31715W        W48562   7.627  11.249   0.148 -0.2096  0.0861 -0.1889
31716W        W48563  15.971   7.766   4.269 -0.2899 -0.1205  0.0046
31717W        W48564   8.799  10.507   5.709 -0.1819 -0.3870 -0.3214
31718W        W48565   9.612   2.481  14.672 -0.3081  0.2936 -0.0013
31719W        W48566  14.110  17.436  11.237  0.1627 -0.0789  0.1134
31720W        W48567  11.257   4.083  15.913 -0.0917 -0.0880  0.3092
31721W        W48568   0.110   4.694  14.025  0.1143 -0.0481 -0.1865
31722W        W48569  17.968  15.385  15.305  0.4219  0.1929 -0.1239
31723W        W48570   9.014  18.198  12.622  0.1843 -0.1825 -0.1013
31724W        W48571   7.027   4.845  15.650 -0.2028  0.3719  0.0182
31725W        W48572   5.932  11.656   5.860  0.0221 -0.0417  0.0355
31726W        W48573   3.096   4.666  11.800  0.0680 -0.1301  0.0328
31727W        W48574  13.220   6.231  11.031 -0.1319  0.1974 -0.0076
31728W        W48575   3.317   8.759   0.175 -0.1247  0.2509 -0.2033
31729W        W48576   9.674   4.007   1.463 -0.1407 -0.3734  0.0555
31730W        W48577  13.422   3.710  11.053  0.4339  0.3426  0.2609
31731W        W48578   1.517   2.832  12.357  0.2749  0.0383 -0.2325
31732W        W48579   9.137  10.767   0.293  0.3112  0.0079 -0.1200
31733W        W48580   8.330  12.507   1.598 -0.0358  0.3438  0.1810
31734W        W48581   6.541  17.182  16.115  0.0355 -0.0797  0.1446
31735W        W48582   0.186  15.369  16.118 -0.0961 -0.0982 -0.3002
31736W        W48583  10.921   3.294   2.059 -0.2008 -0.5479  0.2032
31737W        W48584  11.520   4.503  14.420  0.0656 -0.3816  0.1308
31738W        W48585  15.602  18.207  14.253  0.3051  0.4211  0.0812
31739W        W48586   0.619   7.846  16.301  0.2704 -0.3377  0.2184
31740W        W48587   3.602   8.615   2.384 -0.2717 -0.2019 -0.1216
31741W        W48588  13.943   8.116  16.326  0.4076  0.0012 -0.0238
31742W        W48589  13.117   7.667   2.595  0.1342  0.1943 -0.1806
31743W        W48590  13.628   5.521   4.688 -0.0132  0.2719 -0.2435
31744W        W48591  15.266   5.756  11.715 -0.1169 -0.0358 -0.3556
31745W        W48592   5.945   5.719  12.207 -0.0827  0.1153  0.2748
31746W        W48593   2.920   0.840   3.903 -0.1000 -0.1340 -0.1452
31747W        W48594   4.800   4.039   5.315 -0.0422 -0.0483 -0.3390
31748W        W48595   2.541  16.366  13.652 -0.1070 -0.0326  0.0192
31749W        W48596  11.664  13.406  16.363  0.3834  0.3246 -0.1588
31750W        W48597  15.354   8.981  12.969 -0.0082  0.1867  0.0660
31751W        W48598  13.500   9.141   4.015 -0.5142  0.0103  0.0146
31752W        W48599  11.346  11.638   4.602 -0.0079 -0.1504 -0.3367
31753W        W48600   1.389   6.864  11.347 -0.2199 -0.2186  0.1083
31754W        W48601   4.187  12.671   1.010 -0.0543 -0.2009  0.2195
31755W        W48602   2.341  12.845  13.998  0.0755 -0.6984  0.3740
31756W        W48603   2.834  16.269   2.205 -0.2332  0.1219  0.0553
31757W        W48604   0.801   7.148  13.572 -0.1651  0.1464  0.1048
31758W        W48605   0.265   1.557   3.678  0.1079  0.1615  0.0753
31759W        W48606   2.142   4.948  11.473 -0.2153 -0.0966 -0.1576
31760W        W48607   8.882   5.984  15.198 -0.0342 -0.1877  0.0159
31761W        W48608   4.644   6.644   2.342 -0.0491  0.2683  0.0976
31762W        W48609  11.654   3.907   6.046 -0.2891 -0.1391  0.1021
31763W        W48610   7.572  16.473  16.226  0.1774  0.2205 -0.0053
31764W        W48611  15.092  14.593   5.009  0.2046 -0.1426 -0.2299
31765W        W48612   0.229   8.547  14.445 -0.3351 -0.2102  0.1333
31766W        W48613  10.171  14.496   6.085 -0.2825  0.1244  0.2030
31767W        W48614   8.777  16.828  15.621  0.2333 -0.1683 -0.1547
31768W        W48615   3.487  10.915  14.418 -0.1025  0.0985  0.0289
31769W        W48616  10.409   8.853  12.774 -0.0011 -0.0826  0.0247
31770W        W48617  15.967   8.704  12.757 -0.0756 -0.0000  0.0665
31771W        W48618   0.487   6.542   1.565  0.1707 -0.2629 -0.0811
31772W        W48619  16.531   0.874  13.112 -0.0156 -0.1998  0.0383
31773W        W48620  15.867   9.115   0.586 -0.1608 -0.2124 -0.1971
31774W        W48621   8.287  14.361   2.057  0.2377 -0.0637  0.1839
31775W        W48622   8.500  17.161  13.026  0.0161 -0.0197 -0.1416
31776W        W48623  12.138   2.232   3.605 -0.0090 -0.1107  0.0001
31777W        W48624   6.810   4.411  11.527  0.0748  0.1175  0.1888
31778W        W48625   7.959  11.580   2.864 -0.1818 -0.0202  0.0184
31779W        W48626  14.218  12.533   3.951 -0.0456  0.0099  0.1310
31780W        W48627  16.361   2.115  11.429 -0.1275 -0.1122  0.0870
31781W        W48628  11.855  10.782   4.967 -0.1971 -0.0399  0.3482
31782W        W48629   3.365  12.307   1.494 -0.1450  0.2223 -0.0121
31783W        W48630  15.103  15.818   0.907  0.1418  0.3387 -0.1103
31784W        W48631  13.992  10.678   1.411  0.0326  0.0139 -0.1141
31785W        W48632  16.768   7.362  11.352  0.0307 -0.0073 -0.0589
31786W        W48633  12.789   7.867  11.602 -0.1465  0.0815 -0.1214
31787W        W48634   1.345   1.454  12.932  0.1347 -0.1389 -0.1522
31788W        W48635  12.232   3.096   1.392 -0.0447  0.1785 -0.3772
31789W        W48636   4.889   5.442   5.757 -0.1085 -0.0511 -0.0994
31790W        W48637   5.297  14.052   0.737 -0.0007  0.3778  0.1392
31791W        W48638  12.815   9.850  12.845 -0.0112  0.0426 -0.0143
31792W        W48639   9.146  15.294   5.110  0.1550  0.2754  0.2020
31793W        W48640   8.894   1.887   2.746  0.1292  0.0753  0.3388
31794W        W48641  13.176  10.157  11.596  0.0228 -0.0812 -0.0497
31795W        W48642   1.727  10.718  12.139  0.1224 -0.2952 -0.0706
31796W        W48643   9.903  14.696   5.316  0.1167  0.1967  0.1198
31797W        W48644   1.898  14.054  13.966  0.1687 -0.0756 -0.0530
31798W        W48645  11.696   5.962  13.697  0.0226 -0.1314 -0.2595
31799W        W48646   2.069  10.364  16.155 -0.0522  0.1302 -0.0714
31800W        W48647   8.739  11.689   5.354  0.1011  0.2317 -0.2457
31801W        W48648   1.607  15.457   3.742  0.1762  0.2707  0.0492
31802W        W48649   8.553  17.153   1.481 -0.2361 -0.0621  0.0565
31803W        W48650  13.921  12.986   3.010 -0.2420 -0.0840  0.2713
31804W        W48651  16.569   3.131   4.447 -0.0344  0.2036 -0.0058
31805W        W48652  13.382   3.157   0.757 -0.2147  0.0301 -0.0797
31806W        W48653  14.133  10.576   2.518 -0.1862  0.1502  0.0549
31807W        W48654   4.260  10.466  12.465  0.0958  0.3322 -0.0014
31808W        W48655  11.086   0.904   2.062  0.1662  0.1135  0.0148
31809W        W48656  10.230   3.387   1.470  0.2712 -0.0922  0.0978
31810W        W48657   0.235   1.748  11.070  0.1788 -0.0287  0.1649
31811W        W48658   2.928  18.141  11.990 -0.0216  0.1145  0.0012
31812W        W48659  10.910  13.648   1.494  0.0063 -0.0282  0.1689
31813W        W48660  12.786  16.877   5.193 -0.1002  0.2315 -0.2815
31814W        W48661   7.755  18.010  12.320 -0.0463 -0.0103 -0.1073
31815W        W48662   8.464   1.701   5.674 -0.1057  0.0263 -0.1856
31816W        W48663  17.939   3.565  14.521 -0.4570 -0.0258 -0.1332
31817W        W48664  12.455   6.244  16.211  0.1177 -0.2968 -0.3213
31818W        W48665   5.162  14.420   1.598  0.1054 -0.1033  0.1621
31819W        W48666  14.065  12.473  15.404  0.0308  0.1515 -0.1795
31820W        W48667  15.676   8.495   4.644 -0.0317  0.0708  0.0782
31821W        W48668   8.984  11.214   4.483  0.2069 -0.1347  0.1934
31822W        W48669  15.693  16.050  15.103 -0.3612 -0.0937  0.1055
31823W        W48670  13.057  14.140   2.187  0.1564 -0.0271 -0.3308
31824W        W48671   3.744  14.021   4.015 -0.0135  0.1272  0.1045
31825W        W48672   1.887  17.468   4.693 -0.0627 -0.0784 -0.0673
31826W        W48673   3.927  10.961   0.467  0.0226 -0.1397 -0.1901
31827W        W48674   9.383  16.199  14.007 -0.0104  0.3296 -0.0517
31828W        W48675  14.085  11.542   0.141  0.4137  0.1034 -0.1321
31829W        W48676   1.432  14.940  15.831 -0.1299 -0.2105  0.1277
31830W        W48677  14.768   0.011   4.765 -0.0198 -0.0453  0.2659
31831W        W48678   6.166   7.114  13.268  0.0506  0.1467 -0.1160
31832W        W48679  17.581   8.705  14.440 -0.1299  0.0686 -0.0093
31833W        W48680  12.855  10.400  12.927 -0.0268  0.1502  0.0666
31834W        W48681   2.438  10.512   1.393  0.0057 -0.5890  0.1814
31835W        W48682   6.818   8.496   2.607 -0.0882 -0.1871  0.1196
31836W        W48683  14.209   6.130   3.815  0.3225  0.0452  0.0002
31837W        W48684   6.448   5.099   3.890 -0.0671 -0.0385  0.0431
31838W        W48685   6.651  12.279   3.489 -0.0214  0.0657 -0.0712
31839W        W48686   5.448   7.912   2.790  0.0470  0.1644  0.0087
31840W        W48687   6.229   6.074   0.107  0.2393  0.0508 -0.2843
31841W        W48688   0.555   8.096   3.902  0.1144 -0.1488  0.1239
31842W        W48689   5.545  17.162  12.634 -0.0898 -0.0530  0.3796
31843W        W48690   7.959  12.206  15.561  0.0102  0.0917  0.0369
31844W        W48691  16.359   3.421  15.887  0.2737 -0.1495 -0.3145
31845W        W48692   3.415  12.307  13.376  0.4794 -0.0569  0.1018
31846W        W48693  16.337   4.128  13.527  0.2269  0.0581 -0.2063
31847W        W48694   6.062   8.389  12.194 -0.0508  0.0847 -0.1503
31848W        W48695  17.512  14.565   4.501  0.0860  0.2129 -0.1549
31849W        W48696   8.259  17.574  15.602 -0.2689 -0.0846 -0.0844
31850W        W48697   5.675   3.100  15.642  0.1385  0.3368 -0.1983
31851W        W48698   8.760  12.466  15.015 -0.0459 -0.0445  0.0993
31852W        W48699   2.672   0.957  12.002 -0.0627 -0.1847 -0.1189
31853W        W48700  15.198  15.034   4.768 -0.0444 -0.6829 -0.0927
31854W        W48701   9.730   1.341   2.825  0.5306 -0.0372 -0.1295
31855W        W48702   0.802   5.661   3.618  0.2271  0.1046  0.0910
31856W        W48703   6.995   7.147  11.285 -0.0622  0.1564  0.1738
31857W        W48704   6.129   9.864   0.441  0.0203 -0.1380  0.3473
31858W        W48705  17.832   0.406  14.748  0.2566  0.3494 -0.1768
31859W        W48706   6.922  16.746   2.845  0.2858  0.0840 -0.0743
31860W        W48707  17.345   2.623   2.377 -0.1597  0.0605 -0.1615
31861W        W48708  14.503  13.493  14.387  0.0282 -0.1908  0.0068
31862W        W48709  10.958  16.474  13.246 -0.1720 -0.0566  0.1643
31863W        W48710  13.680  13.099  12.532  0.0940 -0.0262 -0.1787
31864W        W48711   4.588   2.555  14.229  0.2008  0.1970 -0.1127
31865W        W48712   2.688  16.901   5.959 -0.0952  0.0926 -0.0357
31866W        W48713  14.875  13.711   4.583  0.0111 -0.0942  0.1017
31867W        W48714  16.649   4.047   5.038  0.2217 -0.2800  0.2451
31868W        W48715   5.321   9.543   4.575  0.1230  0.0702 -0.2820
31869W        W48716   9.637   2.600   0.524 -0.3079  0.3203  0.0752
31870W        W48717  14.429  11.044  14.835 -0.2048  0.0591 -0.0000
31871W        W48718  13.282   5.890  14.575  0.0848 -0.3312 -0.1518
31872W        W48719   6.708  13.874  15.684  0.0628  0.0380  0.0983
31873W        W48720   1.195   4.033  13.125  0.1074  0.3652  0.3199
31874W        W48721  16.857   5.623  10.685 -0.0460 -0.1990 -0.1857
31875W        W48722   5.707   6.881  13.404  0.0671 -0.0913  0.3157
31876W        W48723   3.215  15.425  16.126 -0.2742  0.3407  0.1382
31877W        W48724  15.213  10.495  16.362  0.0556  0.1116  0.0153
31878W        W48725  17.055  11.857  14.600 -0.4264 -0.2635  0.2829
31879W        W48726   2.691  17.559  14.907 -0.0713  0.0679  0.0439
31880W        W48727   9.231   4.663   1.715  0.0439 -0.0515 -0.1013
31881W        W48728  14.301  16.605  11.901 -0.1290  0.0808 -0.1682
31882W        W48729  16.491   3.515  13.760 -0.2828  0.0961  0.1075
31883W        W48730   1.210  11.152  15.768  0.2783  0.0665  0.1820
31884W        W48731   1.534   6.779   0.163  0.3864  0.1449 -0.0138
31885W        W48732   8.079   8.091   1.225 -0.1511 -0.1482 -0.2473
31886W        W48733  12.835  18.353   2.331  0.2549  0.0481 -0.1219
31887W        W48734   9.852  16.044  12.489 -0.1068 -0.2207  0.1232
31888W        W48735  15.208   8.461  11.458  0.2438  0.0655 -0.0614
31889W        W48736  18.251  11.273  12.480 -0.0615  0.2512 -0.0356
31890W        W48737   2.257  18.410  12.607  0.2577  0.1086 -0.2299
31891W        W48738  14.409   0.835  14.445  0.0578 -0.1699 -0.2900
31892W        W48739   9.688   2.085   5.069 -0.2650  0.0402  0.1667
31893W        W48740  10.482   8.317   0.999  0.1095  0.0751 -0.0544
31894W        W48741  12.107  11.652   0.618 -0.0308 -0.0532 -0.1589
31895W        W48742   7.567   4.165  15.110 -0.2600  0.1372 -0.0570
31896W        W48743  11.431   2.014  15.443 -0.0570 -0.0262  0.2541
31897W        W48744  11.666   1.768   2.331 -0.0769  0.1786 -0.4490
31898W        W48745  13.736  11.040   4.235  0.0898  0.0470  0.0116
31899W        W48746   1.588  15.162  13.179 -0.3987 -0.2171  0.1751
31900W        W48747  14.427  10.080  14.541 -0.0402 -0.0421 -0.1490
31901W        W48748   4.564   1.169  14.682  0.1559  0.1383 -0.0122
31902W        W48749  12.091   9.470   1.123 -0.2092 -0.0610 -0.1948
31903W        W48750   5.005   4.972  11.165 -0.2426 -0.1728 -0.0172
31904W        W48751  10.981   2.972   2.962 -0.1813  0.1177 -0.1144
31905W        W48752   5.726   6.001   1.776 -0.3680  0.0444  0.0365
31906W        W48753  17.295   9.105   1.643  0.3369 -0.2217  0.0864
31907W        W48754   0.507  18.134  12.877  0.1999 -0.2980  0.3976
31908W        W48755  11.196   4.375   5.719  0.1503  0.1108  0.1509
31909W        W48756  12.193   3.920   0.761  0.4431 -0.1453 -0.1982
31910W        W48757  16.525  11.675   3.714 -0.3674  0.2014 -0.0489
31911W        W48758   3.905   8.842   0.925  0.2087 -0.2222 -0.2085
31912W        W48759   8.415   1.641  12.807  0.2095  0.0698 -0.1443
31913W        W48760  12.474  15.521  11.851  0.0985  0.1232  0.0785
31914W        W48761   7.216  17.099   1.296 -0.0585  0.0103  0.1097
31915W        W48762   5.629  17.894   6.067  0.0034  0.0650 -0.1046
31916W        W48763   8.347   5.203   5.154 -0.2960  0.0088  0.0036
31917W        W48764   0.489   7.187  14.668 -0.3175 -0.2553 -0.0538
31918W        W48765   0.381  15.473   2.467 -0.2840 -0.1158 -0.2278
31919W        W48766   6.997   2.996  14.577 -0.3453 -0.0256 -0.1829
31920W        W48767  12.336   4.614  16.375  0.1281  0.0553  0.2811
31921W        W48768   7.378  17.282  14.277  0.3068 -0.0609  0.3562
31922W        W48769  17.015   5.478  11.495 -0.0484 -0.1621  0.2881
31923W        W48770   9.337   9.121  11.866  0.0205  0.0910  0.1418
31924W        W48771   3.723   6.785   0.611 -0.3807  0.2064 -0.0097
31925W        W48772   9.757   6.700   2.714 -0.2141 -0.0629 -0.3497
31926W        W48773   4.243  10.968  12.339  0.1031  0.1291  0.3843
31927W        W48774  17.384   7.379  13.806 -0.4124  0.0429 -0.0610
31928W        W48775  16.230   7.007  14.885  0.1756 -0.0030 -0.4204
31929W        W48776   2.046   2.664   2.279 -0.2543 -0.1658  0.2189
31930W        W48777   3.078  13.361  12.652  0.3075 -0.2052 -0.0944
31931W        W48778   1.610   7.934  11.243 -0.0018 -0.0352 -0.0127
31932W        W48779   8.706  17.966   3.593 -0.0161  0.0209 -0.0326
31933W        W48780   5.529   5.635   0.480  0.0848 -0.0092 -0.3131
31934W        W48781  13.857   9.233  14.861 -0.1625  0.2165 -0.0666
31935W        W48782  11.599   1.938   4.158  0.1965 -0.0557  0.0919
31936W        W48783  13.181  13.761   3.304 -0.1507 -0.1161  0.0143
31937W        W48784  18.390  14.532   4.640 -0.2340  0.0618 -0.2357
31938W        W48785   3.037  13.648   1.956  0.0879  0.0417 -0.0097
31939W        W48786   9.678   3.786   2.567 -0.1674 -0.0423 -0.0239
31940W        W48787  17.464  18.007  15.253  0.2280  0.0722 -0.1954
31941W        W48788   5.190   6.436  14.498  0.2765 -0.1153 -0.0586
31942W        W48789   7.668   5.999  14.002  0.2105 -0.1285  0.1130
31943W        W48790  16.225  13.607   4.695  0.1147 -0.0046 -0.2373
31944W        W48791   4.828  12.573   1.483  0.0144 -0.3434  0.2073
31945W        W48792   7.182   5.802  14.065 -0.2987  0.3178 -0.2470
31946W        W48793  18.244  12.689  11.716  0.0976  0.1704 -0.0578
31947W        W48794  14.384   6.838  10.696  0.0725 -0.4288 -0.2951
31948W        W48795   8.444  10.925  13.456 -0.0551  0.2329 -0.0367
31949W        W48796  12.729  15.517  14.645  0.3198  0.1501  0.3359
31950W        W48797  12.902  15.180  13.201 -0.1324  0.0926  0.0188
31951W        W48798   5.905   4.863  14.389 -0.1041 -0.0573  0.1460
31952W        W48799   5.746  16.853  14.985 -0.1465 -0.3312  0.0479
31953W        W48800  11.190   3.355  10.955 -0.3263 -0.0897 -0.0619
31954W        W48801   2.920  10.460   1.752  0.0294  0.2566  0.2541
31955W        W48802  16.002  10.251   3.272  0.0497  0.2658 -0.0003
31956W        W48803   4.566   5.058  14.193  0.1302 -0.2953  0.0438
31957W        W48804   3.012   2.047   1.191  0.1918 -0.0434  0.1619
31958W        W48805  10.411  13.004  15.765  0.2094  0.2329  0.1250
31959W        W48806  16.293   5.927  15.800  0.0595 -0.0640 -0.3473
31960W        W48807  14.453   3.912  12.706 -0.1918  0.0941  0.2502
31961W        W48808   8.573   7.570  14.158  0.0297  0.2181  0.1516
31962W        W48809  12.366  15.760   4.880  0.0097 -0.0679 -0.2596
31963W        W48810   0.269   0.674   3.666 -0.1533  0.0023  0.3994
31964W        W48811  16.591  15.754  12.654 -0.0413 -0.0564 -0.0194
31965W        W48812  16.679  18.134   3.609  0.1778  0.0574 -0.0859
31966W        W48813   1.453  18.306   4.234 -0.0498 -0.1131  0.1897
31967W        W48814  13.355   5.853  14.114 -0.1558 -0.3129 -0.0382
31968W        W48815   3.693   8.873   0.491 -0.1663 -0.3023 -0.0126
31969W        W48816   2.432  12.338   0.931 -0.0597  0.1223 -0.2935
31970W        W48817   5.485   8.418  15.329 -0.1070  0.3020 -0.0106
31971W        W48818  12.318   1.878  11.757  0.1383  0.0482  0.5043
31972W        W48819  14.981  17.796   3.294 -0.2762  0.2989 -0.0331
31973W        W48820  17.368   4.290  11.129 -0.0958  0.1616 -0.1000
31974W        W48821   6.903  11.726   4.241  0.0805  0.2914 -0.2032
31975W        W48822   0.176   1.691   4.732 -0.0615  0.3349  0.0757
31976W        W48823  14.182  15.598  15.969  0.0663  0.0523 -0.0886
31977W        W48824  11.622   2.512   2.522 -0.1972 -0.4792 -0.0792
31978W        W48825   5.985  10.225   3.489 -0.3906 -0.3703  0.1667
31979W        W48826  17.474   6.949   4.421 -0.0185 -0.0230  0.2041
31980W        W48827   4.055   9.772   3.448 -0.0666 -0.0349  0.0582
31981W        W48828   5.658   9.002  11.309 -0.0402 -0.0080 -0.2026
31982W        W48829  11.449   0.305   0.273 -0.0777  0.4216  0.4370
31983W        W48830  14.583   3.698   2.217  0.0938 -0.3952  0.1696
31984W        W48831  10.026   6.251  12.864  0.2987  0.2791 -0.0290
31985W        W48832   6.619   7.760   0.735 -0.1817  0.2345  0.0778
31986W        W48833   6.519  13.635  13.467 -0.2833  0.2596  0.0521
31987W        W48834  13.945   9.829   1.958 -0.1512 -0.0098  0.1499
31988W        W48835   1.898  13.907  12.313 -0.2180  0.0361  0.2162
31989W        W48836   3.706   3.988  11.435 -0.1312  0.1233 -0.1301
31990W        W48837  11.458   5.352  13.113 -0.0645  0.0203  0.1593
31991W        W48838  16.277  10.149   3.700  0.2396  0.0496  0.1236
31992W        W48839   9.216   2.789   4.695  0.3513  0.3164 -0.0759
31993W        W48840  11.299  13.495   5.144  0.0153 -0.1879 -0.1883
31994W        W48841  17.986   3.946  13.663 -0.3841  0.0042 -0.0973
31995W        W48842   9.908   8.287  14.317  0.0057  0.0401  0.1090
31996W        W48843   9.615  12.163  14.205 -0.1401  0.0067 -0.0837
31997W        W48844   2.138  15.497   3.907  0.0366  0.1574  0.1483
31998W        W48845   3.665   5.433  15.031 -0.3278  0.0978  0.0579
31999W        W48846   9.980  17.443  14.114  0.2153  0.1902 -0.1026
32000W        W48847  17.355   4.045  12.040  0.0108 -0.0344 -0.0017
32001W        W48848   0.068   9.443   1.547 -0.0921 -0.0315 -0.0034
32002W        W48849   8.304   1.702   0.831  0.0280  0.3603  0.0111
32003W        W48850   9.872  17.518  14.583 -0.1111 -0.1693  0.1573
32004W        W48851  13.299  16.114   0.340 -0.1489  0.0812 -0.3368
32005W        W48852  16.836  11.393  11.383 -0.0907 -0.0441 -0.1359
32006W        W48853   2.725   4.964   2.245 -0.1189 -0.1868  0.1254
32007W        W48854  12.100  16.861   2.062  0.0451 -0.0326  0.1147
32008W        W48855   4.647   2.893  12.442 -0.2431 -0.1648 -0.1863
32009W        W48856   1.200   7.514  15.076 -0.3187 -0.2077  0.2072
32010W        W48857  10.986   9.115   4.989  0.0807 -0.1848 -0.2609
32011W        W48858   7.592  12.238   5.670 -0.0396 -0.0028 -0.1631
32012W        W48859   7.849  17.260  15.611  0.1976 -0.0063 -0.1468
32013W        W48860   7.231   9.390   5.160 -0.2714 -0.1405  0.1060
32014W        W48861   8.484   8.682  14.102 -0.0212  0.1630 -0.2776
32015W        W48862   5.421   1.250   5.268  0.1231 -0.2908 -0.0287
32016W        W48863  13.685   3.995  12.067 -0.0085 -0.0695 -0.0667
32017W        W48864  18.201   6.859   0.279  0.1020  0.1290  0.3395
32018W        W48865  12.332  13.978   3.313  0.3287 -0.1108 -0.0269
32019W        W48866  16.335   8.765  13.079  0.0671 -0.1748  0.0189
32020W        W48867  12.039  16.261  13.236  0.5397  0.0726  0.0601
32021W        W48868   8.493  14.491  14.910  0.1169 -0.4367 -0.2281
32022W        W48869  12.489   4.585   5.224 -0.1054  0.0555 -0.1470
32023W        W48870   4.288  14.048   3.689  0.3907  0.0080 -0.2271
32024W        W48871  16.868   1.197   0.913 -0.4982  0.0422 -0.1218
32025W        W48872  11.738  11.702  15.490  0.1100  0.1807  0.1757
32026W        W48873   6.642  17.705  14.079 -0.4561  0.0867  0.0132
32027W        W48874  17.787   8.109  14.228 -0.0217 -0.2185 -0.3894
32028W        W48875  18.272   9.741  14.068 -0.3837 -0.0652  0.2317
32029W        W48876  16.126   9.060  14.369 -0.2413 -0.1438 -0.1821
32030W        W48877   0.236   7.723   0.819  0.1509  0.0126  0.2230
32031W        W48878  13.622  10.833  15.920 -0.0776  0.1394  0.0000
32032W        W48879  12.213  16.588   2.801 -0.1332 -0.0621 -0.2518
32033W        W48880  14.641   0.876   4.359  0.4125 -0.2978 -0.0373
32034W        W48881   6.926  10.359   6.110 -0.2220  0.1822 -0.0510
32035W        W48882   3.838  12.217   0.270 -0.0466  0.3141 -0.2091
32036W        W48883   8.269  15.044   6.264 -0.0413  0.0450 -0.1235
32037W        W48884  17.909  16.073  14.814 -0.2235 -0.2983 -0.0874
32038W        W48885   7.266   1.738   5.167 -0.3686 -0.0523  0.1762
32039W        W48886   0.124   5.276  13.223 -0.0694  0.0386  0.1508
32040W        W48887  17.842   1.580   5.145 -0.2275  0.1656  0.1129
32041W        W48888  13.470   9.245  14.021 -0.2423 -0.1153 -0.1686
32042W        W48889   1.525  12.325   0.537  0.0161 -0.1920 -0.2119
32043W        W48890  12.327   0.248   5.097  0.2398  0.0484  0.0947
32044W        W48891   2.970   6.393   5.058  0.1532 -0.1301  0.4997
32045W        W48892   5.354   1.573  16.335 -0.3468 -0.2532 -0.2233
32046W        W48893   3.973  13.649   1.658  0.0566 -0.2002  0.1851
32047W        W48894   8.236   1.399   2.303  0.1256 -0.4577  0.1617
32048W        W48895   5.077  10.907   1.913 -0.1628 -0.1742 -0.0445
32049W        W48896  16.259   2.850  14.070 -0.1427 -0.1535 -0.0736
32050W        W48897  10.971  12.026  12.142 -0.0723  0.1680  0.0476
32051W        W48898  17.173  18.058   0.931 -0.0383  0.0037  0.0801
32052W        W48899  13.360   1.058   3.775  0.3082 -0.0696  0.0856
32053W        W48900   0.390  11.574  15.158 -0.0570  0.0279  0.2475
32054W        W48901   2.313   4.009   1.290  0.2101 -0.1506  0.1395
32055W        W48902  12.667   7.615   4.471  0.1252  0.0573 -0.1409
32056W        W48903   9.627  14.009  16.007  0.1876  0.2907  0.2016
32057W        W48904   8.270   3.080   0.522 -0.0834  0.3386  0.5662
32058W        W48905   9.451   8.223  14.092  0.0668 -0.3052 -0.0475
32059W        W48906  16.530  11.490   3.186  0.0217  0.2550 -0.2017
32060W        W48907  13.503  12.933   1.307 -0.3607 -0.2771  0.1923
32061W        W48908   7.471   7.371  15.048 -0.1251 -0.1448 -0.0678
32062W        W48909   5.108   0.252   1.854 -0.1840  0.2308  0.0589
32063W        W48910   2.383  10.208  12.851 -0.1000  0.1331  0.1033
32064W        W48911   5.119   7.430   0.370  0.0694  0.2291 -0.1959
32065W        W48912   2.712   3.353  11.816 -0.1629  0.3387 -0.1253
32066W        W48913  14.084   0.903  15.517 -0.1289 -0.1375 -0.0421
32067W        W48914  14.844   4.928   5.524 -0.2013 -0.2146  0.1201
32068W        W48915  14.480   5.446  15.782 -0.2798 -0.3324  0.1391
32069W        W48916   7.442   5.058   4.494 -0.2148  0.1280  0.0244
32070W        W48917   3.081  14.158   1.986 -0.0177 -0.2069  0.4783
32071W        W48918   5.319  12.947   2.463  0.3921  0.2272  0.0952
32072W        W48919   6.100   4.743  15.248  0.0346 -0.0645 -0.1862
32073W        W48920   2.348   6.793  13.992  0.1451 -0.0672 -0.0023
32074W        W48921   6.391  12.025   2.205  0.0435  0.1617  0.1658
32075W        W48922   7.861  14.252   2.263 -0.0834  0.0915 -0.0357
32076W        W48923  15.405   1.261  14.565  0.0692 -0.0756  0.0850
32077W        W48924   9.767   9.752  15.887 -0.1944 -0.0378  0.2129
32078W        W48925   7.461  12.813  16.311  0.0531 -0.0466 -0.0945
32079W        W48926   2.067   4.463  15.949 -0.0342  0.0616  0.0077
32080W        W48927   0.225  10.146   2.352 -0.1277 -0.0180 -0.3767
32081W        W48928   1.155   2.711   3.576  0.0073 -0.1293 -0.0576
32082W        W48929  12.583   0.584   3.794 -0.1146 -0.0855  0.1129
32083W        W48930  12.092  10.523  15.722  0.1980 -0.0015 -0.1643
32084W        W48931   9.195   7.526   0.262 -0.0899  0.1101 -0.0829
32085W        W48932   6.891   6.893   6.211 -0.1333 -0.1401 -0.1964
32086W        W48933   2.306   4.882  13.998 -0.1405  0.1959  0.0394
32087W        W48934  13.115   2.818  16.088 -0.0745  0.0969  0.0637
32088W        W48935   0.694  17.923   1.309 -0.1142  0.2796  0.1324
32089W        W48936   0.741  13.985  14.750 -0.0357 -0.3109  0.3435
32090W        W48937  17.271   6.953   0.623  0.2722  0.2896 -0.2568
32091W        W48938   1.980   2.169   2.081 -0.3583 -0.0411 -0.0445
32092W        W48939  15.632  14.280   3.013 -0.1183 -0.1682  0.1224
32093W        W48940  16.106   1.074  12.349 -0.0775  0.1151 -0.0299
32094W        W48941   2.598   1.582   2.735  0.0701 -0.0456  0.0905
32095W        W48942   9.716  16.417   2.089  0.0195  0.0860 -0.1347
32096W        W48943   0.338  16.701  15.839  0.1459 -0.3104  0.0880
32097W        W48944  10.457   8.679  13.208 -0.2263  0.3843 -0.2978
32098W        W48945  12.734  17.232  11.712 -0.0143 -0.1400 -0.2855
32099W        W48946  16.503   3.370  11.003  0.2470  0.1098 -0.3100
32100W        W48947  12.082   1.543  16.229 -0.2540  0.0626 -0.0412
32101W        W48948  16.183   5.072  11.345 -0.1927 -0.2633  0.1162
32102W        W48949   7.845  10.172   0.946  0.1089  0.1279 -0.1812
32103W        W48950  17.472   7.246  11.665  0.2033  0.3311  0.1931
32104W        W48951  17.578   5.547   1.937 -0.2203  0.0388  0.2469
32105W        W48952   7.048   0.710  13.397 -0.0747  0.1364 -0.4807
32106W        W48953  10.194   4.892   3.730 -0.1173  0.1197  0.2620
32107W        W48954   5.182   3.215  14.692 -0.2071 -0.0164 -0.0919
32108W        W48955   8.257   5.378  12.140  0.0348  0.1909  0.4705
32109W        W48956   3.003  17.578   6.021 -0.2163 -0.0256  0.1004
32110W        W48957  17.796   1.222  11.473  0.0722 -0.0341 -0.1446
32111W        W48958   4.162  17.130  15.122  0.3844  0.0799  0.1810
32112W        W48959   6.943  13.606  11.800  0.2076 -0.0000  0.2481
32113W        W48960   7.250  15.762   4.986 -0.0213 -0.0975 -0.2274
32114W        W48961   4.809   9.559   3.726 -0.1429  0.1806  0.1076
32115W        W48962   4.787   4.540   1.397 -0.2710 -0.1142  0.0104
32116W        W48963   8.184  10.632  15.641  0.2678  0.0166 -0.2518
32117W        W48964  13.026  11.026   1.108  0.1395  0.2232 -0.0098
32118W        W48965  15.196  15.895   3.932  0.1399 -0.0753  0.2508
32119W        W48966   8.619  14.201   6.488  0.1427 -0.1202  0.0576
32120W        W48967  16.539  16.566  12.787  0.0936  0.0043  0.3035
32121W        W48968  14.225   4.328   4.073 -0.1384  0.1819  0.2967
32122W        W48969  17.339  17.177  16.011  0.0175  0.0115  0.2965
32123W        W48970   4.697   4.635  14.344 -0.0972  0.3413  0.2387
32124W        W48971  17.088   0.085  15.027  0.0289  0.0001 -0.1717
32125W        W48972  17.146   0.572  15.318 -0.1297 -0.0955 -0.0216
32126W        W48973  17.330   3.390  15.261 -0.2939  0.0193 -0.0926
32127W        W48974   9.710  14.554  15.107 -0.1476 -0.0812  0.3138
32128W        W48975   3.971   0.587   0.495  0.0982  0.2183  0.0558
32129W        W48976  10.080   8.555   4.677  0.0913  0.3140 -0.4085
32130W        W48977   4.073   1.182   2.413 -0.0114 -0.2799 -0.0590
32131W        W48978   0.516   1.161   3.743  0.0942 -0.0053 -0.0527
32132W        W48979   6.472   0.272  15.512  0.0165  0.0571 -0.1590
32133W        W48980   6.274  12.677  15.557 -0.3802  0.0113  0.1313
32134W        W48981   1.899   8.917  14.534  0.2514  0.0147  0.0409
32135W        W48982   5.441  11.736  15.092 -0.0338  0.4756 -0.1552
32136W        W48983   4.105  16.364   3.993 -0.2021 -0.3462  0.1106
32137W        W48984   9.424   0.763   1.128 -0.1780 -0.1110 -0.0637
32138W        W48985  17.279   6.291  15.255 -0.1093  0.0434  0.0232
32139W        W48986   8.572  11.239  13.982  0.1036 -0.0036 -0.0531
32140W        W48987  15.804  13.846   4.641 -0.0765  0.0854  0.3104
32141W        W48988   9.567   6.083  14.590 -0.2110  0.0071  0.1929
32142W        W48989   9.127   2.236  11.389  0.3670 -0.0897 -0.0624
32143W        W48990  10.850   9.266  14.409  0.0178  0.0525 -0.4167
32144W        W48991   5.501   5.349  14.197  0.0407 -0.0298  0.1285
32145W        W48992  13.777  16.795  11.850 -0.1608 -0.3043  0.1306
32146W        W48993  13.666   8.007   1.282  0.0060 -0.1218 -0.0885
32147W        W48994   9.998  17.855  15.892  0.1259  0.0739 -0.1959
32148W        W48995  18.009  13.689  12.200  0.0286 -0.1373 -0.0831
32149W        W48996  12.068   8.880   2.729 -0.0009 -0.1180 -0.0052
32150W        W48997   0.962   9.912   0.428  0.0932  0.0408 -0.1877
32151W        W48998   5.115  11.395  15.380  0.0638 -0.0445 -0.0437
32152W        W48999  13.775  14.256   2.054  0.0075  0.0783  0.0768
32153W        W49000   9.199  15.307  12.860  0.1757 -0.2131 -0.1402
32154W        W49001   4.796  16.667  13.853  0.1135 -0.3860 -0.2188
32155W        W49002   6.461  16.251  16.345  0.0757 -0.0164 -0.2791
32156W        W49003   2.677   1.565  16.094  0.2700  0.0662 -0.1141
32157W        W49004   2.135  12.385  12.894 -0.0626  0.0584  0.1428
32158W        W49005   8.638   6.378  14.312 -0.1746 -0.0822 -0.0522
32159W        W49006  17.049   1.291  12.541 -0.2572  0.1387 -0.1028
32160W        W49007  16.804   1.734  10.049 -0.0309  0.0535  0.0151
32161W        W49008   2.271   8.174  11.650  0.2198  0.1954  0.2667
32162W        W49009   9.629  16.882  11.849  0.1112  0.0471 -0.0592
32163W        W49010   9.958   7.507   0.838  0.2470 -0.2885  0.0479
32164W        W49011   0.601   9.777  13.528  0.3227 -0.0236 -0.0204
32165W        W49012  11.616  16.956   2.491  0.4213  0.0069 -0.0661
32166W        W49013   3.000  14.073   5.304  0.3493  0.1361 -0.1888
32167W        W49014   7.622  17.730   1.689  0.0059  0.0143 -0.0871
32168W        W49015  10.483  15.796   0.182 -0.2281  0.2023 -0.1142
32169W        W49016  10.384  13.812  13.942  0.1136  0.1275  0.0796
32170W        W49017   9.734  10.734   4.238  0.1805  0.0932  0.3476
32171W        W49018  16.438   2.235   0.116 -0.1627  0.0523 -0.1261
32172W        W49019   3.202   9.745  12.939 -0.0584  0.2152  0.3715
32173W        W49020   7.330   3.355  14.886  0.1636  0.1071  0.2464
32174W        W49021  12.224  17.455   4.954  0.3785 -0.0486  0.2381
32175W        W49022   2.536   3.803  11.991 -0.1545  0.1348  0.0192
32176W        W49023  11.616   5.826  13.207  0.1749 -0.2014  0.0651
32177W        W49024   1.559  10.282  12.443  0.0231  0.2872  0.0267
32178W        W49025   1.634  10.612  11.573 -0.1434 -0.2957 -0.0323
32179W        W49026  16.988   0.073  15.965 -0.2009 -0.1627 -0.1093
32180W        W49027   5.543  16.220   5.011  0.0473 -0.2900  0.2859
32181W        W49028  14.135  12.134   1.095 -0.1580  0.2549  0.1374
32182W        W49029  18.273  17.202   3.067  0.0965  0.0962 -0.0883
32183W        W49030  17.005  11.639   3.367  0.0397  0.0414  0.0224
32184W        W49031   8.751   2.117   4.867  0.0246  0.3289  0.1265
32185W        W49032   4.894  16.524   3.301 -0.1180 -0.3047 -0.0211
32186W        W49033  16.392   4.275  12.963 -0.2331  0.0432  0.2707
32187W        W49034   3.607   3.534  15.820 -0.0613  0.0289  0.1769
32188ION     NA49035   0.171  14.655   6.399  0.2976 -0.2338  0.1182
32189ION     NA49036   9.439   3.524   2.223  0.2686 -0.0592 -0.0215
32190ION     NA49037   5.372   2.295  14.474  0.2633  0.0869 -0.1836
32191ION     NA49038  14.116   8.534  10.379  0.3523 -0.2095 -0.1333
32192ION     NA49039   1.106  18.269  10.619 -0.1627  0.0082 -0.1181
32193ION     NA49040   6.375  10.444   5.262  0.1310 -0.1629 -0.2091
32194ION     NA49041   3.199  10.905  10.434 -0.0183  0.2539  0.0813
32195ION     NA49042  14.556   1.956   2.804 -0.0907  0.0798 -0.2447
32196ION     NA49043   2.718   1.785  10.391 -0.0340 -0.1748  0.0810
32197ION     NA49044  15.414   3.491  12.632  0.2774 -0.1882 -0.2906
32198ION     NA49045  10.071   7.750   5.631 -0.2615  0.4997  0.1584
32199ION     NA49046  11.551   8.303  10.412  0.0812 -0.3375 -0.0827
32200ION     NA49047  18.236   5.142   9.798  0.0939  0.1113 -0.2561
32201ION     NA49048   6.099   9.565  10.621 -0.1180 -0.1069 -0.0077
32202ION     NA49049   4.165   4.214  10.120  0.0037  0.1571 -0.1386
32203ION     NA49050   9.593  16.006  16.262 -0.3687 -0.1365  0.0313
32204ION     NA49051   1.856  16.739   3.085 -0.1558  0.2701 -0.0228
32205ION     NA49052  12.718   7.864  10.482  0.0215 -0.0094 -0.0795
32206ION     NA49053  10.574  17.994  10.809 -0.4760  0.0254 -0.2357
32207ION     NA49054   9.547  17.497  10.762  0.0297 -0.0893  0.1050
32208ION     NA49055  13.784  10.936   0.667  0.1341 -0.1249  0.1524
32209ION     NA49056  10.887   4.202  10.811  0.1495  0.0007 -0.0558
32210ION     NA49057   1.701  11.532  10.549 -0.0049 -0.0113  0.4723
32211ION     NA49058  13.613  14.623  12.790 -0.1072  0.1120 -0.0663
32212ION     NA49059   3.218   7.817  16.109 -0.1833  0.0602  0.4969
32213ION     NA49060  11.800   7.999  10.844 -0.1957  0.3007  0.0310
32214ION     NA49061   4.871   2.775  10.645  0.1203  0.0234  0.2431
32215ION     NA49062   1.250   1.190  10.422 -0.2355 -0.2239  0.0329
32216ION     NA49063   5.730   7.467  10.378 -0.0691 -0.1366  0.0148
32217ION     NA49064   1.793   8.184  10.253  0.0732 -0.0478  0.1029
32218ION     NA49065   0.144  17.029  12.070  0.0629  0.1969 -0.1721
32219ION     NA49066  17.267   6.387  12.970  0.4227  0.0343  0.0498
32220ION     NA49067  13.081   8.603  10.387 -0.1900  0.0063  0.0103
32221ION     NA49068   5.738  13.865   6.173  0.0376  0.1904 -0.6585
32222ION     NA49069   9.799   8.308  10.536  0.0351 -0.0858  0.3199
32223ION     NA49070  13.190   6.210  10.312  0.1145  0.2349  0.1271
32224ION     NA49071   4.694  16.807  10.834 -0.0534 -0.0787 -0.0594
32225ION     NA49072   8.416   2.243  10.713 -0.0031 -0.1621 -0.1297
32226ION     NA49073   2.902  17.922  10.316 -0.0239  0.0971 -0.3943
32227ION     NA49074  12.377   0.741  10.448 -0.0533  0.1795  0.3110
32228ION     NA49075   5.950   9.871  14.539  0.0950  0.1654 -0.0309
32229ION     NA49076   9.520   3.444  10.704  0.2514  0.0945  0.1585
32230ION     NA49077  11.764  16.199   1.059  0.0127  0.1736  0.2146
32231ION     NA49078   0.836   9.443   2.761 -0.0678 -0.4245 -0.3338
32232ION     NA49079  15.797  15.331  10.661 -0.0191 -0.0694  0.0488
32233ION     NA49080   0.914   0.089  14.992  0.1606  0.2829  0.0259
32234ION     NA49081  15.265   6.774   3.863  0.0766  0.1253  0.0912
32235ION     NA49082   3.629   3.192   2.645  0.2243 -0.1711  0.0279
32236ION     NA49083   2.039  17.000  10.773 -0.2744 -0.2020 -0.1269
32237ION     NA49084  15.510   1.926  10.285  0.0970  0.5789 -0.3437
32238ION     NA49085   5.891  14.194  10.873  0.1558  0.1062  0.2216
32239ION     NA49086  15.717  16.170  10.665 -0.4584 -0.0607 -0.0091
32240ION     NA49087   8.497   2.288  16.087  0.3289 -0.0617  0.1098
32241ION     NA49088   2.017  16.890  14.197 -0.5052 -0.4531 -0.1609
32242ION     NA49089   4.306   1.004  13.518 -0.2654  0.0473  0.4936
32243ION     NA49090   7.674  11.301  10.893 -0.3057 -0.2223  0.3806
32244ION     NA49091   9.843  10.132  10.574  0.0440 -0.1511  0.0666
32245ION     NA49092  13.615  11.775  12.666 -0.0187  0.5347 -0.0279
32246ION     NA49093  16.168   8.697   4.668  0.0991 -0.4214  0.1513
32247ION     NA49094  15.822   0.823  10.266 -0.0443  0.4716  0.2342
32248ION     NA49095  10.725   8.374  10.358  0.1613 -0.1661 -0.1070
32249ION     NA49096  17.322   7.508   9.833  0.1092 -0.6618 -0.1178
32250ION     NA49097  15.267   4.374   2.333 -0.1580  0.1139  0.0726
32251ION     NA49098  17.982   5.801  10.028 -0.3743  0.5016 -0.1802
32252ION     NA49099   4.114  10.675  10.634 -0.1006 -0.1469  0.0919
32253ION     NA49100   9.857   9.154  10.671 -0.1640  0.0819 -0.0821
32254ION     NA49101  10.257   7.240  10.404  0.2062  0.2706  0.1744
32255ION     NA49102  11.168   3.247  14.148 -0.1303  0.0371  0.1805
32256ION     NA49103  10.968  11.220  12.974 -0.3873 -0.0545 -0.0540
32257ION     NA49104   4.256  10.099  12.053  0.0404 -0.3634 -0.1428
32258ION     NA49105   9.137  10.736  10.791 -0.1718  0.0028  0.0408
32259ION     NA49106   0.331  16.662  10.858 -0.1051  0.1207  0.1983
32260ION     NA49107   8.148   9.216  11.021 -0.3290 -0.1707  0.1566
32261ION     NA49108   4.724  16.165  10.768 -0.0362 -0.0793 -0.1803
32262ION     NA49109   4.474   3.931   5.670 -0.1245  0.2452  0.2024
32263ION     NA49110  13.813  12.787  12.905  0.1772  0.2313 -0.3483
32264ION     NA49111   6.712   7.637  12.061  0.1493 -0.1400  0.0301
32265ION     NA49112  12.900   1.020   5.474 -0.3529  0.0458  0.4143
32266ION     NA49113   5.633  12.408   3.809 -0.0089  0.0465 -0.1673
32267ION     NA49114  10.826  11.240  10.707  0.0236 -0.1120  0.0886
32268ION     NA49115   8.144  12.319  10.929 -0.0650  0.0488  0.1408
32269ION     NA49116  17.187   8.227  10.071  0.3037  0.0090  0.2895
32270ION     NA49117   6.637  12.183   0.438  0.1351  0.0893  0.0172
32271ION     NA49118   3.426   4.613  10.014 -0.0280 -0.0022  0.0363
32272ION     NA49119   7.038   6.548   5.867 -0.1629  0.0628 -0.2360
32273ION     NA49120  13.768   4.776   1.035  0.0593  0.1479  0.2681
32274ION     NA49121   6.924  10.734  10.677  0.0503 -0.3446 -0.1458
32275ION     NA49122  11.072   7.485  10.244 -0.1716  0.0778 -0.2090
32276ION     NA49123  10.358  15.935  10.782  0.0907 -0.0057  0.0487
32277ION     NA49124   2.863  16.168  10.703  0.0425 -0.1433 -0.3720
32278ION     NA49125  14.078  16.187   0.770  0.2530  0.0572 -0.0799
32279ION     NA49126  17.130   6.530   0.922  0.0921  0.2346  0.1507
32280ION     NA49127   9.480  15.471  10.682  0.0019  0.0187 -0.0771
32281ION     NA49128  16.206  10.103  10.390  0.1703 -0.2203 -0.2937
32282ION     NA49129  11.547   4.483  10.542 -0.2815 -0.0158 -0.2775
32283ION     NA49130  11.591  18.071  10.636  0.0013 -0.4514 -0.1300
32284ION     NA49131  15.431   2.180  14.788  0.0061 -0.1256 -0.0084
32285ION     NA49132  12.211   4.014  10.510  0.1320  0.1948 -0.0717
32286ION     NA49133   9.456   7.830  10.531  0.1338 -0.2475  0.0226
32287ION     NA49134   1.765   1.624  10.086  0.2512 -0.0399  0.1883
32288ION     NA49135  17.131   6.222   9.823 -0.0560  0.0375  0.1853
32289ION     NA49136   9.492  11.658   1.952 -0.3894 -0.0214 -0.2621
32290ION     NA49137   1.521   4.313   9.802  0.0226  0.1695 -0.0811
32291ION     NA49138  16.657   9.287  10.133 -0.1585 -0.2906 -0.3019
32292ION     NA49139  10.662  10.357  10.474  0.0332 -0.1472 -0.0551
32293ION     NA49140  16.061  15.714   5.861 -0.3639  0.2083 -0.1671
32294ION     NA49141   9.115   4.895   5.726 -0.0681 -0.3007 -0.3679
32295ION     NA49142   8.254  13.374  10.982 -0.0041  0.2946 -0.0929
32296ION     NA49143  13.680   9.764  12.262  0.1178  0.3157 -0.2894
32297ION     NA49144   0.118   7.800   5.609  0.1365  0.1849  0.0190
32298ION     NA49145  11.882  15.216  10.869  0.1969 -0.1263 -0.5700
32299ION     NA49146   5.146   4.620   5.691  0.4199 -0.1277  0.1000
32300ION     NA49147   8.344  10.196  11.047  0.0393 -0.4680 -0.0656
32301ION     NA49148  12.373  16.885  15.039 -0.1585  0.4067 -0.2426
32302ION     NA49149   2.906  11.682  10.855  0.1583  0.0961  0.1727
32303ION     NA49150   1.861  13.100  10.826  0.1635  0.0076 -0.2078
32304ION     NA49151   4.614   6.685   5.550 -0.1563 -0.0509  0.2993
32305ION     NA49152   8.510   1.404  10.575 -0.3725 -0.2360 -0.1464
32306ION     NA49153   3.917   2.716  16.048 -0.0014 -0.1634 -0.0172
32307ION     NA49154   3.952  12.761  14.713 -0.3042  0.0040 -0.0985
32308ION     NA49155   4.209  12.406  10.791 -0.4200 -0.1018 -0.1329
32309ION     NA49156   1.969   0.019  14.098 -0.0702 -0.0162  0.2137
32310ION     NA49157   0.325   4.342  14.426 -0.3891  0.2919  0.0054
32311ION     NA49158   6.813   1.327   6.233  0.1370 -0.1656 -0.2091
32312ION     NA49159   7.004   4.080   1.124 -0.0505 -0.2592  0.1169
32313ION     NA49160  16.012  16.841   5.914 -0.3202  0.0013 -0.1066
32314ION     NA49161  14.669  17.307  11.225  0.0065  0.1085  0.0940
32315ION     NA49162  11.389  10.616  10.591  0.1368 -0.0744  0.1334
32316ION     NA49163   4.821  15.579   5.707 -0.1021 -0.3619  0.0671
32317ION     NA49164   3.827   0.555   6.045 -0.0995  0.2404 -0.2998
32318ION     NA49165   1.752   4.819  15.637 -0.0250 -0.0164 -0.1549
32319ION     NA49166   6.466   8.718  10.586 -0.0473 -0.1373 -0.3189
32320ION     NA49167   9.188   4.884  12.391 -0.2800 -0.1591 -0.1925
32321ION     NA49168   4.382  15.251  11.014 -0.0751  0.1907  0.2774
32322ION     NA49169  10.298   5.044   2.848 -0.1752 -0.0914 -0.3384
32323ION     NA49170  17.565  17.158   0.485 -0.3235 -0.1223  0.0840
32324ION     NA49171   2.003   8.964  10.308 -0.1870  0.1541 -0.2732
32325ION     NA49172   4.779   3.582  10.312 -0.2916  0.0135  0.2171
32326ION     NA49173  11.067  16.099   4.632 -0.4348 -0.2215  0.2638
32327ION     NA49174   2.312   7.419   5.266  0.2817  0.0890  0.0794
32328ION     NA49175  12.252   2.390  10.463 -0.2973 -0.1319 -0.1143
32329ION     NA49176   8.305   9.214  15.745  0.3323 -0.2151  0.3275
32330ION     NA49177   6.806  15.800   2.885 -0.1270  0.0110  0.1548
32331ION     NA49178  15.411  10.698  10.681  0.0650 -0.3766 -0.1293
32332ION     NA49179   8.697   9.134   2.196 -0.0146  0.1675 -0.1313
32333ION     NA49180  16.447   7.837  10.108 -0.0572 -0.0350 -0.0784
32334ION     NA49181  14.994   0.552  10.503 -0.1886  0.0081  0.1921
32335ION     NA49182   4.995   6.027   4.895  0.0469 -0.2451 -0.1760
32336ION     NA49183   5.954   4.286  10.478  0.1457  0.2836 -0.1857
32337ION     NA49184  10.835  13.139  11.666  0.1157  0.0747  0.0972
32338ION     NA49185   5.801  10.707  10.875  0.0282 -0.0927  0.0656
32339ION     NA49186  14.048  12.821   0.171 -0.0369 -0.4828  0.0652
32340ION     NA49187   8.001  15.747  10.678 -0.3668 -0.0230 -0.0024
32341ION     NA49188  10.851  14.272   0.820 -0.3491 -0.0479  0.0925
32342ION     NA49189   3.127  17.169  10.640 -0.0995  0.1604  0.1030
32343ION     NA49190  13.858   6.774   3.154 -0.1057  0.3455 -0.2857
32344ION     NA49191   2.341   1.044  10.284 -0.1853 -0.0993  0.0580
32345ION     NA49192  15.118  14.729   0.338 -0.0122 -0.0242 -0.3082
32346ION     NA49193   7.712   1.495   5.346  0.1394  0.0108 -0.0988
32347ION     NA49194   9.306   6.226  10.615  0.2329  0.1825 -0.4246
32348ION     NA49195  16.554   5.601   9.799 -0.0211  0.2214 -0.0991
32349ION     NA49196   1.335   6.534   9.986  0.2594 -0.2534 -0.3400
32350ION     NA49197   8.590   6.161  11.361 -0.0541 -0.0112  0.0321
32351ION     NA49198  15.190  16.396   3.219  0.1861 -0.2895  0.3014
32352ION     NA49199   1.512  12.372   5.700  0.3645  0.1696  0.3776
32353ION     NA49200   5.510  18.241   1.639  0.5746  0.0175  0.2192
32354ION     NA49201  13.897   4.013  10.167 -0.4185 -0.0537 -0.0271
32355ION     NA49202   8.053   1.265  10.663  0.1432  0.2966 -0.1084
32356ION     NA49203   6.813  11.577   6.267 -0.1608 -0.1810 -0.0216
32357ION     NA49204  10.797   3.380  15.421  0.1247  0.3600  0.1000
32358ION     NA49205   0.371   7.825  10.710  0.1415  0.2760 -0.3418
32359ION     NA49206  14.918   7.498   5.299 -0.0631 -0.0492 -0.2508
32360ION     NA49207  11.196   2.888   5.116  0.2252 -0.0030 -0.2471
32361ION     NA49208   5.657  15.682  12.773  0.0441  0.2237 -0.4662
32362ION     NA49209   1.343  17.168  13.581 -0.3100  0.3363  0.0638
32363ION     NA49210   4.013   7.971  13.294  0.1392  0.1437 -0.1602
32364ION     NA49211  12.906  11.713  10.841 -0.4201 -0.2973 -0.1626
32365ION     NA49212   1.925   2.044   0.214  0.0085 -0.2281  0.0211
32366ION     NA49213  12.855  13.239  10.781  0.2702  0.1480 -0.4013
32367ION     NA49214   5.154  15.627  15.963 -0.0065 -0.0604  0.0351
32368ION     NA49215   1.118   1.351   5.773 -0.2970  0.4057  0.2202
32369ION     NA49216  11.625   5.797  10.381  0.1659 -0.2112 -0.3466
32370ION     NA49217   9.140  13.661  11.401 -0.3502  0.0016  0.1987
32371ION     NA49218   4.980   6.120  10.027 -0.0750  0.0732  0.1981
32372ION     NA49219   1.423   6.524   3.236  0.3205 -0.2182 -0.1561
32373ION     NA49220   1.848   4.893   9.937 -0.1608 -0.4928  0.0166
32374ION     NA49221  14.976   2.602  10.336  0.1536  0.1213  0.1916
32375ION     NA49222   7.346   3.083  10.504 -0.0174 -0.0934 -0.1666
32376ION     NA49223  12.225   5.632   5.583 -0.1918 -0.0940 -0.0989
32377ION     NA49224  14.356  15.736  10.661  0.2206 -0.1194 -0.2403
32378ION     NA49225   4.885   7.940   5.976  0.0439  0.0301 -0.2501
32379ION     NA49226   7.119  13.344  14.294 -0.1043 -0.1920 -0.0140
32380ION     NA49227   8.750   6.324  10.472  0.1473 -0.2701 -0.0796
32381ION     NA49228  14.992   8.834  10.134  0.1003 -0.0212  0.0111
32382ION     NA49229  11.307  16.127  10.630 -0.1411 -0.2863  0.0474
32383ION     NA49230  18.168  10.735  11.552 -0.3120 -0.0961 -0.0506
32384ION     NA49231   4.621   8.914   6.033 -0.0662 -0.0901  0.1129
32385ION     NA49232  16.916   6.203  10.375 -0.0133  0.0932 -0.3075
32386ION     NA49233  18.068   6.658   9.881  0.0780 -0.3696 -0.1606
32387ION     NA49234   2.292   6.582   9.943  0.1739  0.0105  0.0160
32388ION     NA49235  13.281  14.628  10.584 -0.2030  0.3223  0.2461
32389ION     NA49236  16.870  11.889  11.084 -0.0149 -0.0258 -0.1651
32390ION     NA49237  15.257  13.388   4.467  0.0719 -0.3221 -0.1265
32391ION     NA49238  11.106   1.573  10.662  0.0599  0.2075 -0.0727
32392ION     NA49239   0.944   4.358   5.118  0.0704 -0.3410 -0.0319
32393ION     NA49240  18.230  15.253  10.690 -0.1169  0.1315  0.0799
32394ION     NA49241   9.243  12.824   6.197  0.0080 -0.0153  0.0276
32395ION     NA49242  14.833  14.032  11.554 -0.0296 -0.1485  0.2744
32396ION     NA49243   2.832  16.598  13.169  0.2252  0.1158 -0.2449
32397ION     NA49244  17.630  14.945  10.825  0.2158 -0.0858  0.2965
32398ION     NA49245   2.492  13.234   5.949  0.1321 -0.0042 -0.2173
32399ION     NA49246   2.941  13.185  10.901  0.1782 -0.0749  0.0545
32400ION     NA49247  12.119   7.462  10.368  0.1926  0.1322  0.3004
32401ION     NA49248  11.448  11.033  15.557  0.2515  0.0198 -0.4818
32402ION     NA49249   8.158  12.300  13.147  0.0597  0.0262 -0.0030
32403ION     NA49250  13.479  17.020   2.613  0.1177 -0.1145 -0.0450
32404ION     NA49251   9.963   6.581  12.065  0.1185 -0.0771 -0.0072
32405ION     NA49252  15.198   9.229   5.482 -0.2820  0.3891  0.2894
32406ION     NA49253   5.093  12.691  10.896  0.0509  0.1519  0.1364
32407ION     NA49254   0.639   8.694   5.693 -0.0571 -0.1236  0.1381
32408ION     NA49255  17.903  16.694  10.749  0.2068  0.3024  0.1015
32409ION     NA49256   5.706   1.046  10.705 -0.2524  0.4481 -0.0334
32410ION     NA49257  12.562  12.301  10.841  0.1140 -0.0626 -0.0361
32411ION     NA49258  14.446  17.797  12.264  0.1414 -0.2850 -0.3442
32412ION     NA49259  16.616  13.347  10.907 -0.1333  0.0671 -0.2962
32413ION     NA49260   1.482  13.246   0.910  0.1746 -0.1037 -0.0587
32414ION     NA49261   4.258  14.304  10.845 -0.1731 -0.0476 -0.1215
32415ION     NA49262   2.206   0.920   1.697 -0.0866  0.0132  0.0133
32416ION     NA49263   8.144  10.344   0.218 -0.4355  0.0896  0.2596
32417ION     NA49264  14.348  10.448  10.808  0.0507  0.1951 -0.0726
32418ION     NA49265  17.244   2.023  14.271 -0.0467 -0.0944  0.0634
32419ION     NA49266   2.159  11.279  10.491 -0.4204  0.1280 -0.3556
32420ION     NA49267   0.385   8.577  10.237 -0.0195 -0.1209  0.0959
32421ION     NA49268   8.948   9.580   6.232  0.1057  0.0317  0.1115
32422ION     NA49269  14.954   6.429  10.110 -0.3098 -0.1366  0.0372
32423ION     NA49270   4.980   3.088  10.195 -0.3141  0.0580 -0.0671
32424ION     NA49271  15.095  11.273   4.955  0.0169  0.0578 -0.0609
32425ION     NA49272  12.135  13.399   3.404 -0.3705  0.0506 -0.3891
32426ION     NA49273   1.983   5.786   9.845 -0.1375  0.0584 -0.0811
32427ION     NA49274  14.500   0.056  10.876  0.0547  0.0997  0.0399
32428ION     NA49275  15.510  14.325   4.887 -0.0086  0.0070 -0.1436
32429ION     NA49276   5.176   5.204  10.143  0.2254  0.0262  0.0078
32430ION     NA49277   5.558  15.152  11.177  0.0260 -0.1513  0.0937
32431ION     NA49278   8.788   3.607  10.415  0.1514 -0.2005 -0.0355
32432ION     NA49279   8.032   1.793   6.260 -0.0044 -0.1222 -0.2948
32433ION     NA49280   1.482  10.458   5.771  0.2116 -0.3477  0.0541
32434ION     NA49281  18.417  13.534  10.803  0.1964  0.1502  0.0680
32435ION     NA49282   9.242   3.141  15.244  0.0479  0.0469 -0.1773
32436ION     NA49283   3.092   5.983   2.996  0.1713  0.2257  0.2252
32437ION     NA49284   1.094  17.176  10.825  0.0724 -0.0282 -0.0988
32438ION     NA49285   5.658  16.626  11.169  0.0393  0.0233  0.1632
32439ION     NA49286   1.902  16.378  10.785 -0.0995 -0.2813 -0.1636
32440ION     NA49287   2.243  17.490  10.556  0.0577  0.3617 -0.2015
32441ION     NA49288   7.833   3.193   2.544  0.1134  0.1224  0.1278
32442ION     NA49289  12.285   5.471   3.100  0.0025  0.0081  0.0523
32443ION     NA49290  12.364  17.451  10.579  0.1661 -0.0566 -0.5461
32444ION     NA49291   3.327  14.038  10.768  0.1962 -0.1401  0.2082
32445ION     NA49292   7.114  17.108  10.594  0.2344 -0.2507  0.0058
32446ION     NA49293   0.686   9.382  10.453 -0.0591 -0.0601  0.4005
32447ION     NA49294  17.315  12.684  10.768  0.1910 -0.2816  0.0010
32448ION     NA49295   1.632   0.697  10.274 -0.1471 -0.0511 -0.3632
32449ION     NA49296   5.720  16.048   1.193 -0.0121  0.1624 -0.5538
32450ION     NA49297   9.802   4.689   5.703  0.0711  0.2868  0.6157
32451ION     NA49298   2.274   8.688   5.728 -0.2809 -0.0095 -0.2136
32452ION     NA49299  14.214  18.239  10.476  0.2691  0.0689  0.1815
32453ION     NA49300   6.781  17.074   3.367 -0.2850  0.0945 -0.0048
32454ION     NA49301  16.777   1.182  10.353  0.3559 -0.0237 -0.2164
32455ION     NA49302  13.849   6.868   4.082 -0.0911  0.0007 -0.1338
32456ION     NA49303  10.756  13.748  10.911 -0.2264  0.0424 -0.1291
32457ION     NA49304   7.714   9.964  15.228  0.2525 -0.2541  0.1566
32458ION     NA49305   7.787  16.158   5.777 -0.3826 -0.0141 -0.1101
32459ION     NA49306  15.772   9.593  10.167  0.0790  0.2977  0.1013
32460ION     NA49307   6.651   5.646   5.567 -0.1635  0.1817 -0.1746
32461ION     NA49308  11.297  15.827   5.421 -0.1838 -0.1269 -0.1533
32462ION     NA49309  12.922  15.377   3.527 -0.3895 -0.0169 -0.0829
32463ION     NA49310   9.652  16.553  10.679 -0.0671  0.0845  0.2670
32464ION     NA49311  15.635  12.567  10.775  0.0962 -0.1332  0.0601
32465ION     NA49312   0.896   0.852   4.366  0.1648 -0.3601 -0.0438
32466ION     NA49313   1.469  14.002  10.885 -0.1606 -0.0349 -0.0192
32467ION     NA49314   2.276   6.789  15.168  0.2680 -0.2077  0.1549
32468ION     NA49315   0.522   5.627   5.213  0.2478 -0.1420 -0.0551
32469ION     NA49316   2.009  12.060  12.298 -0.0908  0.0835 -0.2245
32470ION     NA49317   6.424   7.784  13.959 -0.2244  0.0493 -0.0236
32471ION     NA49318   3.995   2.844  10.378  0.0512  0.2759 -0.3101
32472ION     NA49319  18.308   2.793   2.499  0.2212 -0.2283 -0.1489
32473ION     NA49320   6.589   1.004  10.499 -0.0951  0.2299  0.4054
32474ION     NA49321  12.718   4.667   1.295  0.0064  0.0908  0.0518
32475ION     NA49322   9.454   4.748  10.547 -0.4016 -0.1599 -0.0123
32476ION     NA49323   2.478   4.591   9.827  0.2309  0.0971  0.0043
32477ION     NA49324  13.705  18.418  10.433  0.1708 -0.0474  0.2967
32478ION     NA49325   5.034  13.648  10.977  0.1476  0.0032 -0.2406
32479ION     NA49326  10.726  18.000  13.778  0.1168 -0.1658 -0.1307
32480ION     NA49327  12.979   9.464  10.526 -0.0444 -0.1528 -0.0490
32481ION     NA49328   8.185   2.698  10.707 -0.1667 -0.0978 -0.1456
32482ION     NA49329  17.867  17.693  10.670 -0.0990  0.0188 -0.3084
32483ION     NA49330  17.511  17.336   5.809 -0.0668  0.0576  0.2204
32484ION     NA49331   8.714  17.125   0.382 -0.1594 -0.0154 -0.6025
32485ION     NA49332   8.500  15.125  10.627  0.0184  0.1103 -0.2428
32486ION     NA49333   6.252  14.606  10.827 -0.4909 -0.1572 -0.0109
32487ION     NA49334  18.235  10.636   5.835 -0.0506  0.1190  0.1221
32488ION     NA49335  14.794   7.988  10.058  0.0430  0.2962  0.0191
32489ION     NA49336  14.296   6.776  11.489  0.0397  0.1268  0.0818
32490ION     NA49337   9.021   9.608  10.652  0.5058 -0.1816 -0.0678
32491ION     NA49338  16.502  15.884  10.655 -0.1533 -0.1083 -0.1655
32492ION     NA49339  11.844  18.249   2.090  0.3917  0.1317 -0.0498
32493ION     NA49340   1.335  10.665  10.317  0.1677  0.1034 -0.0024
32494ION     NA49341   1.521   9.839  10.244  0.1702 -0.2053 -0.1441
32495ION     NA49342  13.449  12.699  14.821  0.1816  0.0985  0.0436
32496ION     NA49343   1.202   5.830  15.052  0.1512  0.1548  0.0580
32497ION     NA49344  12.209  13.540  12.861 -0.0252  0.3617  0.2704
32498ION     NA49345   9.401   5.720  14.249  0.0998  0.0922 -0.4730
32499ION     NA49346  14.512  10.956  10.660  0.1264  0.0684 -0.0182
32500ION     NA49347  11.915  16.731  12.734  0.0671  0.2397 -0.2235
32501ION     NA49348   5.682   9.019  10.819 -0.0075  0.0450  0.0996
32502ION     NA49349   3.724  11.841  15.335  0.3534  0.2050 -0.0134
32503ION     NA49350   9.836  12.165  11.037  0.2352 -0.4309  0.2567
32504ION     NA49351   3.074  12.414   3.312  0.0787 -0.1007  0.0413
32505ION     NA49352  12.184  17.861   4.142 -0.0837 -0.2068 -0.1740
32506ION     NA49353   2.424   7.413  10.292  0.0444  0.3136  0.2874
32507ION     NA49354   7.454  12.956   6.194 -0.0564  0.1073  0.0184
32508ION     NA49355   1.035  11.181  11.104 -0.1284 -0.2768 -0.0023
32509ION     NA49356  16.964   8.630  14.441 -0.0990 -0.1223 -0.1339
32510ION     NA49357   5.063  11.963  10.963  0.0268  0.1375 -0.2077
32511ION     NA49358  14.039   8.681  14.203  0.1188 -0.0260 -0.0749
32512ION     NA49359  10.668   6.601   0.895  0.1047  0.2374 -0.0262
32513ION     NA49360   9.032   2.776  10.771 -0.5572 -0.1196  0.0260
32514ION     NA49361  17.630   3.091   9.876 -0.1223  0.0626  0.1197
32515ION     NA49362   3.432  12.301  10.809 -0.1946  0.1192 -0.0207
32516ION     NA49363   1.273  10.519  11.976  0.0391  0.0061  0.3454
32517ION     NA49364  16.704   2.139  13.447  0.1240 -0.1316  0.0373
32518ION     NA49365   6.115   1.911  10.462 -0.1445 -0.3642 -0.0419
32519ION     NA49366   3.477  17.039   0.007 -0.4568 -0.0826  0.0111
32520ION     NA49367   7.804  16.004   2.337 -0.0809  0.2183 -0.2675
32521ION     NA49368   0.434   9.478   1.143 -0.3438  0.1792  0.0836
32522ION     NA49369   0.424  11.102  10.447 -0.0110 -0.0360 -0.0368
32523ION     NA49370  17.134  11.218  10.463 -0.1138 -0.4112 -0.0674
32524ION     NA49371   6.023   1.439   4.167  0.1415 -0.3461 -0.2137
32525ION     NA49372   8.946   0.787  11.063  0.0836 -0.2037  0.1598
32526ION     NA49373  14.889   3.613  10.111  0.3520 -0.0161  0.1268
32527ION     NA49374   4.960  10.255  10.790 -0.2907  0.2684 -0.1894
32528ION     NA49375   1.548   7.334  10.047  0.0317  0.1351  0.0984
32529ION     NA49376  13.665   1.743  10.309 -0.0591 -0.2370 -0.1210
32530ION     NA49377  10.263   7.251   5.967 -0.0475 -0.1663 -0.1535
32531ION     NA49378   9.328  11.993   3.561  0.1133 -0.0872  0.0320
32532ION     NA49379   3.016   9.325  10.660  0.1298  0.1837  0.0880
32533ION     NA49380  11.477   9.674   2.739  0.1539 -0.3278  0.0917
32534ION     NA49381   4.391   3.285   4.977  0.1056  0.2654 -0.0459
32535ION     NA49382   7.650  15.988  14.589  0.3304  0.0392  0.0907
32536ION     NA49383   3.608   1.544  10.773 -0.3593  0.1885 -0.0220
32537ION     NA49384  16.852   0.169  10.310  0.0337 -0.0831 -0.1672
32538ION     NA49385   2.450   4.082  10.649 -0.2452 -0.0415  0.4354
32539ION     NA49386   2.992  12.515   0.359 -0.1602 -0.0592 -0.0774
32540ION     NA49387   1.388  15.662  10.772 -0.0481 -0.0267 -0.2555
32541ION     NA49388   3.878  15.305  10.817 -0.1054  0.2082 -0.1929
32542ION     NA49389   4.094  12.417  12.096 -0.1180 -0.1407 -0.1315
32543ION     NA49390  16.443   4.775  10.241  0.1113  0.2443  0.3843
32544ION     NA49391   4.335   8.261  10.714  0.2170 -0.0589 -0.2624
32545ION     NA49392  14.881   5.578  14.806  0.0785 -0.3808  0.3358
32546ION     NA49393   2.974   6.497   0.281  0.0900 -0.0793 -0.3038
32547ION     NA49394  17.386  13.472  10.689  0.0167 -0.2629  0.1393
32548ION     NA49395  18.233  10.608   4.818 -0.0962  0.2184 -0.0568
32549ION     NA49396   3.295  10.284   4.570  0.0362  0.0586  0.1027
32550ION     NA49397   9.789   0.505   5.572 -0.1049  0.4552 -0.2845
32551ION     NA49398  13.714   9.351  10.519 -0.0853  0.1865 -0.4212
32552ION     NA49399  13.654  13.026   3.484  0.0139 -0.2595 -0.3483
32553ION     NA49400   7.868  16.617  10.906  0.0216 -0.1097 -0.2728
32554ION     NA49401   1.354   5.246   3.180 -0.1775 -0.2044 -0.0629
32555ION     NA49402   5.203   1.840  10.710  0.2619 -0.0454  0.2512
32556ION     NA49403  13.232   3.408  10.018 -0.2647 -0.3448 -0.0089
32557ION     NA49404  10.648   9.194   4.635 -0.2648  0.2155 -0.1974
32558ION     NA49405   8.365  14.096  10.653  0.2340 -0.2226 -0.2546
32559ION     NA49406   4.824   9.103  10.757 -0.2029 -0.0913  0.0108
32560ION     NA49407  14.017   2.831  10.102 -0.0366 -0.0757 -0.0665
32561ION     NA49408  11.183   9.513   5.933  0.1743 -0.0490  0.0100
32562ION     NA49409   3.095  15.776  10.914 -0.2840  0.1972 -0.2109
32563ION     NA49410   9.033  11.836  10.772  0.0152  0.1543  0.1119
32564ION     NA49411   0.141  17.832   5.932  0.2613 -0.1949 -0.3333
32565ION     NA49412  14.239   6.204   5.207  0.3559  0.2382 -0.3261
32566ION     NA49413   0.995  11.667  14.259  0.3188  0.0701 -0.1116
32567ION     NA49414  17.406   4.813   9.927 -0.0575  0.0323 -0.0896
32568ION     NA49415   9.346  17.270   1.708  0.0808 -0.1953 -0.3846
32569ION     NA49416   6.848  11.675  10.958 -0.0682 -0.2998  0.0847
32570ION     NA49417   3.549   6.660  14.659  0.2013 -0.0145 -0.1662
32571ION     NA49418  13.573   7.873  10.337  0.1267 -0.0657  0.1104
32572ION     NA49419   6.132   7.691   5.511  0.1316 -0.1737  0.0209
32573ION     NA49420   4.704  13.553   2.412  0.0561 -0.1999  0.0638
32574ION     NA49421  17.818   5.744  15.703  0.1877 -0.1136  0.2101
32575ION     NA49422  15.703   1.671   5.507  0.3037  0.1514  0.1041
32576ION     NA49423  17.189  13.576   5.665  0.1344 -0.0851 -0.1653
32577ION     NA49424  12.571   8.983  13.276  0.2178 -0.3126 -0.1692
32578ION     NA49425  13.089   2.971  10.246 -0.2514  0.0157  0.0934
32579ION     NA49426  13.106  13.621   6.281  0.1701 -0.1211 -0.0538
32580ION     NA49427   8.263  12.030  11.923 -0.1459 -0.2621 -0.0890
32581ION     NA49428   2.604   8.566  10.706  0.3564 -0.0126  0.0732
32582ION     NA49429   6.990   5.257   5.689  0.0539 -0.1736 -0.3926
32583ION     NA49430   3.269   3.481  10.529  0.0455 -0.2825  0.3075
32584ION     NA49431   7.124   8.833   2.798  0.2411  0.1641 -0.2831
32585ION     NA49432   0.478  12.779  10.528  0.3001  0.0161 -0.0414
32586ION     NA49433  12.002  16.764  10.533 -0.2055  0.1755 -0.1612
32587ION     NA49434  17.989   8.235   9.832  0.1242  0.1400  0.1279
32588ION     NA49435  15.278  17.347   5.877 -0.3808 -0.3933  0.2536
32589ION     NA49436   7.175   7.760  10.490 -0.3167  0.2058  0.3116
32590ION     NA49437   7.674  17.811  10.705 -0.0539  0.0671 -0.0206
32591ION     NA49438  13.094   7.102  10.466  0.0365 -0.0763 -0.1093
32592ION     NA49439   3.569   5.547  10.055 -0.3903 -0.3223  0.0815
32593ION     NA49440   3.977   2.372  10.618  0.0522  0.0865 -0.0938
32594ION     NA49441  14.105  15.159  10.641 -0.1131  0.1629  0.0169
32595ION     NA49442  12.447  11.982   3.018  0.2504  0.2301 -0.0486
32596ION     NA49443   7.095  17.392   6.210  0.2044  0.0345 -0.0861
32597ION     NA49444   6.098  16.428  15.700 -0.1043 -0.1246  0.2847
32598ION     NA49445  16.254  14.812  10.734 -0.1284 -0.0754 -0.0871
32599ION     NA49446   9.781   0.286  10.715 -0.0177 -0.2828 -0.0175
32600ION     NA49447  13.451  17.664  12.471 -0.3500 -0.0490 -0.2519
32601ION     NA49448  15.637  14.887  12.331  0.0453  0.2072  0.1844
32602ION     NA49449   3.120  16.600  10.876  0.6369  0.2542  0.1072
32603ION     NA49450  15.715   8.640   9.958 -0.0716 -0.1073 -0.2782
32604ION     NA49451   2.017   3.289   5.486 -0.0569  0.1508  0.1567
32605ION     NA49452   0.001   0.810  10.274 -0.1185 -0.0784  0.1159
32606ION     NA49453   3.783  12.960   0.757 -0.0873 -0.1102  0.0178
32607ION     NA49454  12.573   4.836  10.557  0.2730 -0.1726 -0.0961
32608ION     NA49455  15.515   4.583   0.611 -0.1332  0.1102 -0.0823
32609ION     NA49456   5.851  16.296   3.666 -0.0372  0.0729 -0.0528
32610ION     NA49457  11.255   9.087  10.675 -0.0239  0.1000 -0.3017
32611ION     NA49458   9.325  11.176   5.978 -0.0984 -0.1480 -0.1146
32612ION     NA49459  18.201  12.000  10.534  0.3810 -0.0477 -0.0435
32613ION     NA49460   8.030   5.116   0.639 -0.1054  0.1935  0.3538
32614ION     NA49461  10.070   2.079   5.629 -0.2260 -0.0112 -0.1399
32615ION     NA49462   5.889  11.487  11.044  0.0247 -0.0870 -0.1076
32616ION     NA49463   7.488   1.154  10.540 -0.0679  0.1688 -0.1175
32617ION     NA49464  15.873   0.094  10.394  0.0803  0.1041  0.0741
32618ION     NA49465   2.480  18.197   3.187 -0.2286  0.2710 -0.0890
32619ION     NA49466  10.535  12.586   0.337  0.2003  0.1009  0.1439
32620ION     NA49467  11.381   0.759  10.506 -0.2467  0.1090  0.1564
32621ION     NA49468   4.464  17.676  10.527  0.1469  0.2872 -0.1434
32622ION     NA49469  14.414   1.039  10.474  0.1210  0.3137  0.1281
32623ION     NA49470   4.661   8.084   1.754 -0.1321  0.1148 -0.1342
32624ION     NA49471  15.912   6.204   9.936  0.1572  0.1109 -0.0411
32625ION     NA49472   7.294  16.443  10.938  0.0399 -0.1699 -0.3145
32626ION     NA49473  13.177   0.558  10.245  0.3128  0.0859 -0.3077
32627ION     NA49474  18.361   3.537  10.282 -0.3425  0.1169  0.2968
32628ION     NA49475   7.780   4.967  10.701  0.4302  0.1607 -0.0073
32629ION     NA49476   1.439   4.097   3.290  0.4170 -0.0159 -0.1002
32630ION     NA49477   3.108   0.162  11.791  0.2403 -0.0305  0.0432
32631ION     NA49478  13.812   3.752   5.730 -0.4051  0.3142 -0.0641
32632ION     NA49479   7.076   8.115  13.454  0.0182  0.2638  0.0129
32633ION     NA49480   6.406  13.983   0.483  0.1554  0.0217 -0.1109
32634ION     NA49481  12.820  16.519  10.740 -0.0071 -0.0466 -0.0226
32635ION     NA49482  17.957  10.659  10.404 -0.0001  0.2177 -0.2655
32636ION     NA49483   7.132   3.665  15.959  0.1782  0.1679 -0.1563
32637ION     NA49484   3.864  11.480  10.787  0.0410  0.1201 -0.0679
32638ION     NA49485  13.735  16.519  10.458 -0.2292 -0.0736  0.0569
32639ION     NA49486   9.401  14.396  10.939 -0.0722  0.0666  0.3721
32640ION     NA49487  10.140   1.694  10.630  0.2339  0.0748 -0.1552
32641ION     NA49488  17.995  13.260  10.603  0.0642 -0.0692 -0.0278
32642ION     NA49489  18.158  14.192  10.774  0.2591  0.0243  0.2176
32643ION     NA49490   1.955   1.510   5.384  0.2054  0.0883 -0.0139
32644ION     NA49491   4.458   5.643   0.397 -0.1228  0.1229  0.1109
32645ION     NA49492  17.085  17.258  10.853 -0.1230  0.1806  0.2943
32646ION     NA49493  15.312   8.651  14.285 -0.2026 -0.2481  0.2539
32647ION     NA49494  10.135   5.953   5.736 -0.1310  0.0338  0.1537
32648ION     NA49495   9.918   5.355  10.615  0.4669  0.3136  0.0643
32649ION     NA49496   2.418   1.273  13.101  0.0780 -0.1071  0.4053
32650ION     NA49497   1.335  14.828  11.015 -0.2539 -0.0917  0.0437
32651ION     NA49498  15.902   4.865   5.407 -0.0031  0.1872  0.1737
32652ION     NA49499  17.258  17.800  10.686  0.0960  0.1175 -0.1307
32653ION     NA49500  14.145   6.924  15.658  0.0405 -0.0649 -0.0215
32654ION     NA49501  10.267  14.793  10.905 -0.2781 -0.2170 -0.1254
32655ION     NA49502   8.233   0.365  10.543  0.0602  0.2027  0.1361
32656ION     NA49503  17.799   6.824  16.357  0.0965  0.1574 -0.0566
32657ION     NA49504  17.983   0.062   5.617  0.2430  0.2414  0.3563
32658ION     NA49505   6.170  17.596  10.615  0.3168 -0.1708 -0.0648
32659ION     NA49506  10.911  10.710   5.941 -0.0852  0.1858 -0.0276
32660ION     NA49507  10.901  18.033   2.064 -0.0132 -0.2574  0.1629
32661ION     NA49508  10.383   9.552  10.577 -0.1259 -0.1238  0.1394
32662ION     NA49509  17.634  11.930  10.603  0.0055 -0.1581  0.0396
32663ION     NA49510   7.223  11.979   4.537  0.0328  0.1644  0.0303
32664ION     NA49511   3.379  14.250  11.228 -0.1794 -0.0531 -0.1551
32665ION     NA49512  15.845  18.255  12.785  0.2294 -0.3123 -0.2037
32666ION     NA49513  13.629   6.619  14.872  0.0622  0.0270 -0.3095
32667ION     NA49514   7.217   9.415  10.588 -0.0457  0.0151 -0.0472
32668ION     NA49515  18.028   4.375  12.878  0.4288 -0.1680 -0.3153
32669ION     NA49516  12.271  14.289   3.791  0.3385  0.0742  0.2232
32670ION     NA49517   9.683  17.958  10.839 -0.4385 -0.2624  0.0507
32671ION     NA49518   4.578   1.154  10.634 -0.3923  0.2232  0.3029
32672ION     NA49519  15.673  12.828  12.129  0.0773 -0.0616  0.2206
32673ION     NA49520  14.453   5.108  10.228  0.3645 -0.1929  0.1685
32674ION     NA49521  11.928   1.511  10.668  0.2511 -0.0713 -0.0913
32675ION     NA49522   6.911  17.500  12.261 -0.1112  0.0089 -0.0043
32676ION     NA49523  15.368  14.438  10.635  0.2137 -0.3172 -0.0596
32677ION     NA49524   5.615   3.429   5.715 -0.1099 -0.1671 -0.2022
32678ION     NA49525   0.498   3.480   9.633 -0.0729  0.1560 -0.0317
32679ION     NA49526   0.911  13.256  10.901 -0.0277 -0.0861  0.2868
32680ION     NA49527   8.539  14.152  11.087  0.1428 -0.0788 -0.0470
32681ION     NA49528  16.439   0.870  14.241 -0.3149 -0.2002  0.2588
32682ION     NA49529  14.518   2.053  10.387  0.3268  0.3560  0.0606
32683ION     NA49530   3.145   1.024  10.470 -0.1407  0.1839  0.3073
32684ION     NA49531   3.732  14.857   6.058 -0.0181 -0.2744 -0.0206
32685ION     NA49532   3.534  10.443   5.752  0.2840  0.1390 -0.0515
32686ION     NA49533  10.427   3.497  10.497 -0.1905  0.1817 -0.0829
32687ION     NA49534   4.487   0.095  10.627 -0.3223  0.2488 -0.0602
32688ION     NA49535   7.114  12.042  11.258 -0.0965 -0.1674  0.0451
32689ION     NA49536   0.572   4.585   9.445 -0.0357  0.0000  0.0818
32690ION     NA49537  11.985   5.666   1.995  0.0921  0.2230  0.1265
32691ION     NA49538  11.837   9.776  10.534 -0.0924 -0.2657 -0.2776
32692ION     NA49539  14.372  11.964  10.865  0.2754  0.0394 -0.1656
32693ION     NA49540   3.905   7.990   5.558  0.0065 -0.0541  0.0242
32694ION     NA49541   0.697  11.959  10.511  0.3092 -0.1212  0.1857
32695ION     NA49542   9.149   2.396   5.858  0.0267 -0.2590 -0.1584
32696ION     NA49543   6.418   6.829  10.299 -0.2343  0.0890 -0.0496
32697ION     NA49544   3.748  17.824  10.526  0.3513 -0.1790 -0.2656
32698ION     NA49545  10.043  13.968  10.886 -0.1335  0.4751  0.1873
32699ION     NA49546   7.225  14.909  11.051 -0.0893 -0.0202 -0.1259
32700ION     NA49547   6.068  18.003  15.897 -0.1809 -0.0503 -0.1256
32701ION     NA49548   0.489   6.416  10.226  0.0466  0.1383  0.1401
32702ION     NA49549  16.358  11.770  12.253 -0.0584 -0.1098 -0.3037
32703ION     NA49550   2.377  13.748  10.937  0.0498  0.2767 -0.2930
32704ION     NA49551   8.846  14.003   2.582  0.1156 -0.1606 -0.2119
32705ION     NA49552   7.316  13.995  11.134 -0.0028 -0.0976  0.1936
32706ION     NA49553   8.099   8.792  15.361  0.1271  0.1278  0.0172
32707ION     NA49554  17.707   0.211  10.587  0.1363 -0.1453 -0.1063
32708ION     NA49555  11.326   1.023  12.773 -0.1696 -0.1402 -0.1388
32709ION     NA49556   6.490  15.949  13.233 -0.1884 -0.0289  0.0752
32710ION     NA49557   7.542  15.552   5.829  0.3081  0.0560 -0.0386
32711ION     NA49558  17.844   1.331  10.453  0.0733 -0.2166 -0.1640
32712ION     NA49559  14.831   8.125   0.620  0.0147 -0.2116  0.2644
32713ION     NA49560   4.180   9.633  11.057 -0.3593  0.1707 -0.1952
32714ION     NA49561  12.907   4.203  10.104  0.0479  0.0468 -0.1225
32715ION     NA49562   3.322  14.346   1.320  0.2359  0.1254  0.0487
32716ION     NA49563   5.350   8.237  10.566 -0.0684 -0.0386  0.1936
32717ION     NA49564  15.585   7.056  10.009 -0.2030  0.0013 -0.0694
32718ION     NA49565  13.030   2.286  13.331  0.0084 -0.2565  0.0752
32719ION     NA49566  17.219   8.746  10.058  0.0615  0.1258 -0.1942
32720ION     NA49567   3.088  14.850  10.711 -0.0600 -0.2176  0.2376
32721ION     NA49568  17.640   1.017   5.683  0.2210 -0.1682 -0.3704
32722ION     NA49569  15.010  15.123  10.749 -0.2581 -0.0578  0.4037
32723ION     NA49570   1.783  10.592  14.793  0.1379 -0.1204 -0.3178
32724ION     NA49571  14.032   6.076  10.199 -0.0592 -0.1126  0.1004
32725ION     NA49572   4.454   9.395  15.861  0.3008  0.0405  0.0338
32726ION     NA49573   9.874   6.962  10.649 -0.2266  0.0595 -0.2954
32727ION     NA49574   5.217   7.578   5.120  0.4457 -0.0875  0.2538
32728ION     NA49575   5.529   6.820   5.628  0.2754 -0.2869  0.1887
32729ION     NA49576   3.019   7.514  10.274 -0.1198  0.1194  0.1513
32730ION     NA49577   4.394   9.870   5.923 -0.0051  0.4470  0.0689
32731ION     NA49578  13.532   5.406  10.192  0.4363 -0.0311 -0.1239
32732ION     NA49579   3.540   0.179  10.236 -0.2244  0.1552 -0.2987
32733ION     NA49580   7.638  13.101  10.876 -0.2499 -0.0473 -0.0885
32734ION     NA49581  16.679   7.438   5.569  0.1413  0.1073 -0.1757
32735ION     NA49582   5.506   6.776  10.213 -0.0892  0.0230  0.1031
32736ION     NA49583   5.243  17.570  10.776 -0.0247 -0.2456  0.0483
32737ION     NA49584   5.699   9.884   4.394 -0.0089 -0.2491 -0.2224
32738ION     NA49585  17.102  11.589  12.245  0.2813 -0.1692 -0.1142
32739ION     NA49586  14.975   5.948  10.252  0.2534  0.3099 -0.1188
32740ION     NA49587   5.322   2.165   0.723  0.2693  0.0177  0.1247
32741ION     NA49588   2.943   5.999   9.944  0.0568  0.1524  0.3433
32742ION     NA49589  12.655  16.537   5.529  0.0826 -0.0167  0.4456
32743ION     NA49590  14.109  13.762  15.184 -0.0379 -0.0760 -0.1803
32744ION     NA49591  17.049  10.592  10.150  0.1006  0.1108 -0.3493
32745ION     NA49592  14.126  13.643  10.432  0.0156  0.2429 -0.3842
32746ION     NA49593   4.371   4.900   5.217 -0.0014 -0.0189  0.1625
32747ION     NA49594   6.844   4.621  10.605 -0.1325  0.1920  0.0200
32748ION     NA49595  16.266   3.742  10.192 -0.1090 -0.1318  0.3175
32749ION     NA49596  12.525   6.705   0.017  0.0192 -0.4367 -0.1095
32750ION     NA49597   8.406  13.117   6.128 -0.2775 -0.0572  0.0890
32751ION     NA49598   4.921   4.988   3.018  0.1358  0.0863  0.4843
32752ION     NA49599  18.032   4.290   3.412 -0.2058 -0.2183  0.4467
32753ION     NA49600   9.071  15.479   6.293  0.1809  0.2079  0.0473
32754ION     NA49601   4.367   5.835   5.220  0.1565 -0.1542  0.0907
32755ION     NA49602   0.348   3.509  13.693  0.0621  0.0333  0.3731
32756ION     NA49603  18.355   8.006  10.031 -0.2453  0.4626  0.0439
32757ION     NA49604   9.871  10.942  10.545 -0.0911 -0.2090  0.2097
32758ION     NA49605   4.738   2.999  14.734  0.0632  0.0068 -0.3455
32759ION     NA49606  17.671   3.940  10.042  0.0295  0.2206  0.3977
32760ION     NA49607   6.592   2.891  10.434 -0.0646  0.2043 -0.1464
32761ION     NA49608  15.042  10.234   4.967  0.0316  0.2905 -0.0627
32762ION     NA49609   4.094   6.327  10.278 -0.1596  0.0481 -0.1431
32763ION     NA49610  12.944   5.088  13.493 -0.1585 -0.4306 -0.1363
32764ION     NA49611   9.479   0.734   3.355  0.1843  0.0567 -0.0310
32765ION     NA49612   0.066   2.791   9.827  0.1714 -0.0562  0.2180
32766ION     NA49613  10.606  16.899  10.703  0.4148 -0.1281 -0.1894
32767ION     NA49614   3.924  16.167  10.983 -0.2989 -0.1683 -0.1791
32768ION     NA49615  16.945  14.239  10.651  0.0666  0.0135 -0.2507
32769ION     NA49616  11.386  11.424   0.202 -0.1514 -0.0625  0.2739
32770ION     NA49617  12.041   5.012  10.637 -0.2000  0.3671  0.3041
32771ION     NA49618  13.411   3.135  13.171 -0.1949 -0.1485 -0.0379
32772ION     NA49619  11.564   6.705  10.434 -0.0606 -0.0471  0.0714
32773ION     NA49620   9.433  14.519  16.236 -0.1246  0.0442 -0.0578
32774ION     NA49621   6.995   2.174  10.714  0.1171 -0.1703  0.1175
32775ION     NA49622  10.997  13.083   5.219  0.0619 -0.1058  0.0216
32776ION     NA49623   7.747   5.935  10.415 -0.0336 -0.1128 -0.4255
32777ION     NA49624  15.584  14.075   3.684  0.1686  0.2578  0.2507
32778ION     NA49625   0.669  15.529  10.976 -0.2141  0.1764  0.1056
32779ION     NA49626   1.155  10.359   0.133  0.0109 -0.1219 -0.2407
32780ION     NA49627  12.538  10.927  10.616  0.0791 -0.0131 -0.2076
32781ION     NA49628  10.300   7.998   1.372 -0.2982  0.0686  0.1459
32782ION     NA49629  14.426   9.520  10.462  0.0113 -0.0993 -0.2903
32783ION     NA49630   6.280  17.985  10.427  0.1821  0.2698  0.2624
32784ION     NA49631  14.513   9.762  15.525  0.0943 -0.0578 -0.0843
32785ION     NA49632   3.014  13.402   0.698  0.3420  0.1519 -0.0862
32786ION     NA49633  15.062  17.871  10.413 -0.0843 -0.1229 -0.0993
32787ION     NA49634  13.442  15.559  10.600  0.2745  0.1986  0.0715
32788ION     NA49635   5.704  13.305  10.851  0.0541 -0.3935 -0.0708
32789ION     NA49636   3.656  10.431  14.770  0.2754 -0.0442  0.0476
32790ION     NA49637   0.551   5.523   9.634 -0.0401  0.2978 -0.4752
32791ION     NA49638   8.588  18.320  13.466 -0.2292  0.1110 -0.3428
32792ION     NA49639  15.660   7.775  10.048 -0.1345 -0.0629  0.0593
32793ION     NA49640  14.742  12.929  11.036  0.3085  0.5521  0.2793
32794ION     NA49641   0.486   3.846   4.523 -0.0726  0.2076 -0.2866
32795ION     NA49642  14.785   7.324  10.099 -0.0420 -0.3452 -0.2603
32796ION     NA49643   6.655   6.185  15.874 -0.2920  0.2269  0.0464
32797ION     NA49644  17.240   3.484   5.188  0.0847 -0.1195 -0.0933
32798ION     NA49645  15.864  10.923  10.680 -0.1744  0.0428 -0.0424
32799ION     NA49646   3.767   6.842   9.990 -0.0444  0.0635 -0.0703
32800ION     NA49647   0.638  10.109   5.362  0.1730 -0.0985 -0.1848
32801ION     NA49648   8.044   4.355  15.186 -0.1797 -0.0422  0.0591
32802ION     NA49649  18.290   9.753  10.571 -0.2325  0.1257 -0.1365
32803ION     NA49650  11.116  14.794  10.684 -0.2468  0.2630 -0.0477
32804ION     NA49651   5.715   2.555  10.320 -0.4358 -0.0667 -0.1932
32805ION     NA49652   7.824   3.894  10.512 -0.0182 -0.0998  0.3500
32806ION     NA49653   8.552  16.162  15.202 -0.1127 -0.0073  0.0098
32807ION     NA49654  16.388  10.840   5.965  0.2040  0.1263 -0.2340
32808ION     NA49655  17.418  10.091  11.401  0.1229  0.2407  0.1169
32809ION     NA49656   9.090   6.316  14.842  0.2700 -0.0814 -0.2723
32810ION     NA49657   4.340  13.848  16.116 -0.1280  0.0660 -0.0686
32811ION     NA49658  15.345  13.476  10.794 -0.1132  0.4410 -0.0534
32812ION     NA49659   4.255  10.703   6.191 -0.0811 -0.0830  0.0887
32813ION     NA49660  17.725   6.659  15.204  0.0850  0.0546 -0.0875
32814ION     NA49661  14.195  10.421  12.671  0.2721 -0.2134 -0.0353
32815ION     NA49662  10.293  13.285   2.476 -0.0665 -0.1286  0.0321
32816ION     NA49663   8.601  14.436  13.580  0.1431  0.0057  0.3427
32817ION     NA49664  12.809   4.926   5.732  0.3390 -0.2161  0.2542
32818ION     NA49665  14.813  12.534   1.275 -0.2027  0.4254  0.0821
32819ION     NA49666  14.610  17.420  10.192 -0.2500 -0.4093 -0.0448
32820ION     NA49667   3.346  15.242   2.853  0.0779  0.0028 -0.3335
32821ION     NA49668  15.609  16.258  16.067 -0.0593 -0.0775 -0.0108
32822ION     NA49669  15.954   3.613   2.350  0.0751 -0.2287  0.2666
32823ION     NA49670  14.918  16.498  12.776 -0.1091  0.0847  0.2799
32824ION     NA49671  14.185   0.707  10.217  0.5139  0.0299 -0.0039
32825ION     NA49672  17.004  10.855  15.527  0.1102 -0.1222  0.0673
32826ION     NA49673   1.572  15.691  14.855 -0.2851  0.0436  0.2330
32827ION     NA49674  14.895   5.287  13.265 -0.1614 -0.1550 -0.1481
32828ION     NA49675   5.615   2.086  12.853  0.2195 -0.0213 -0.1045
32829ION     NA49676   1.259   6.786  13.856  0.0498  0.0316 -0.0365
32830ION     NA49677  12.757   1.441  10.240 -0.2075  0.1724  0.0366
32831ION     NA49678  12.288   6.491  10.286 -0.0283 -0.0612  0.2024
32832ION     NA49679   7.246   6.649  10.448 -0.2611  0.0770 -0.0735
32833ION     NA49680   9.879   2.642  10.542 -0.1301  0.0886  0.0210
32834ION     NA49681   2.147  10.659  11.624 -0.0190 -0.2294  0.1369
32835ION     NA49682   9.026   6.533  11.446 -0.6321  0.1471 -0.0166
32836ION     NA49683  17.914  15.947   6.020 -0.0056 -0.0587 -0.0252
32837ION     NA49684  10.606   6.540  10.733  0.0341 -0.0166 -0.2780
32838ION     NA49685  10.779   2.230  10.260 -0.0943  0.2253  0.1968
32839ION     NA49686   7.166  12.839  10.958  0.2081 -0.0393  0.2697
32840ION     NA49687  16.002  12.077  10.823  0.0726 -0.0113  0.0403
32841ION     NA49688   7.731   0.308  10.446 -0.1861  0.1507  0.0822
32842ION     NA49689   2.889  16.324  15.374 -0.1409  0.3343 -0.0527
32843ION     NA49690   0.105   0.862  10.724 -0.0451  0.0972  0.2908
32844ION     NA49691   5.910   2.912   1.955 -0.1529 -0.0192 -0.0932
32845ION     NA49692  14.097  16.396  10.791 -0.0110  0.0593  0.1853
32846ION     NA49693  14.241  12.373   6.205 -0.1875  0.0232 -0.0236
32847ION     NA49694  13.327  15.236   5.475 -0.1497  0.2730 -0.1074
32848ION     NA49695  10.745   4.075   5.387 -0.0446  0.0443 -0.1737
32849ION     NA49696  11.429   2.624  10.282 -0.1435 -0.1968 -0.4116
32850ION     NA49697   6.205  13.167  10.859  0.2363  0.0832  0.0051
32851ION     NA49698   4.440  14.137   6.047 -0.0404  0.0008 -0.2084
32852ION     NA49699  10.364   0.857  10.517 -0.0625 -0.2954 -0.0160
32853ION     NA49700   0.430   1.602  10.356 -0.3122 -0.1484  0.1541
32854ION     NA49701  16.385  17.930  10.635 -0.2214  0.0822 -0.2148
32855ION     NA49702  17.883  17.215  10.735 -0.2289  0.4045 -0.1722
32856ION     NA49703   8.686  11.521  10.701  0.0222 -0.0825  0.1036
32857ION     NA49704   3.086   2.583  10.339  0.2241 -0.0601 -0.2980
32858ION     NA49705  13.028  17.972  10.526 -0.1110 -0.0825  0.0375
32859ION     NA49706   0.258   8.379  13.659  0.0335 -0.0073 -0.0399
32860ION     NA49707  11.732   8.081  11.613 -0.2946  0.1586  0.0142
32861ION     NA49708  14.565  14.291  10.614  0.1616  0.0089 -0.1866
32862ION     NA49709   7.475  10.469  10.736  0.2706  0.1804  0.0258
32863ION     NA49710  13.947  12.106   2.531  0.1690 -0.1932  0.0171
32864ION     NA49711   0.904  17.584   5.397 -0.0175  0.0297  0.3838
32865ION     NA49712  17.102   3.084   0.688 -0.0264 -0.2978 -0.0845
32866ION     NA49713   9.930   4.397  11.514 -0.2327  0.0104 -0.0365
32867ION     NA49714   1.121   2.281  10.167  0.0785  0.0172 -0.1950
32868ION     NA49715   8.755  18.010  10.773  0.0745 -0.1639  0.1412
32869ION     NA49716  15.784  14.265  13.782 -0.3010 -0.0123  0.1799
32870ION     NA49717   9.608   9.020   0.790 -0.0129  0.4632  0.5289
32871ION     NA49718  18.063  11.820   1.043 -0.1758 -0.0416  0.0939
32872ION     NA49719  17.666   7.843   1.053 -0.2444 -0.0224  0.2977
32873ION     NA49720  17.408  12.607  13.941  0.1099 -0.1512 -0.5242
32874ION     NA49721  15.755  17.108  10.669  0.1536  0.1795 -0.0221
32875ION     NA49722  12.162  16.015  10.615 -0.3352  0.0509  0.1220
32876ION     NA49723  10.514   5.535   4.565 -0.2507  0.2174  0.0429
32877ION     NA49724   0.809  13.026  14.456 -0.1274 -0.3038  0.0053
32878ION     NA49725   6.600   1.937   5.707  0.2179  0.0363  0.0190
32879ION     NA49726  11.149   1.324   5.062 -0.0251 -0.1499 -0.0222
32880ION     NA49727   2.830   9.085   5.837 -0.0821 -0.0618 -0.1817
32881ION     NA49728   8.035   6.628  10.483 -0.1256  0.1710 -0.4283
32882ION     NA49729   8.767  16.176  11.054 -0.0863 -0.2581 -0.2350
32883ION     NA49730   3.081   8.858   1.251  0.0443  0.0654 -0.2349
32884ION     NA49731  16.912   4.355  10.227 -0.0982  0.0784  0.2808
32885ION     NA49732   8.956   0.155  10.774 -0.0688 -0.2084 -0.1153
32886ION     NA49733   2.814   5.068  10.126  0.1383 -0.2412 -0.0229
32887ION     NA49734   5.443   3.362  12.441  0.1798 -0.2290 -0.1086
32888ION     NA49735   1.887  10.281   2.982 -0.0817  0.0932  0.1620
32889ION     NA49736  15.447   5.048  10.098 -0.2235  0.0983  0.0023
32890ION     NA49737   9.040  17.233  10.654  0.0110 -0.1502  0.2213
32891ION     NA49738   0.773   0.069   5.502  0.3718  0.0434 -0.3733
32892ION     NA49739   8.614   7.121   5.155 -0.2515 -0.1914 -0.3153
32893ION     NA49740  11.660  12.256  10.889  0.1460 -0.1863 -0.1479
32894ION     NA49741   5.811   8.277  13.518  0.1873  0.2648 -0.1258
32895ION     NA49742   2.479  10.125  10.575 -0.1555 -0.3372  0.1024
32896ION     NA49743   3.868  16.881  10.850  0.0104  0.0873  0.1763
32897ION     NA49744  17.358  15.880  10.799 -0.1441 -0.0534  0.2733
32898ION     NA49745   4.263  14.357  11.357 -0.1802 -0.0002 -0.1856
32899ION     NA49746   6.515  13.607  10.911 -0.1965 -0.2340 -0.0292
32900ION     NA49747   5.290   9.619   5.541  0.1388 -0.0226 -0.0139
32901ION     NA49748   2.133  14.566  11.037 -0.2281  0.1391  0.1865
32902ION     NA49749   8.939   8.708  10.668  0.2946  0.2683  0.0067
32903ION     NA49750  11.421   0.548  14.712  0.2665  0.2743 -0.1926
32904ION     NA49751   8.966   5.816   3.684 -0.0179 -0.1810  0.2520
32905ION     NA49752  16.777   2.793  10.111  0.1757  0.4335  0.4479
32906ION     NA49753   7.675   6.429   5.098 -0.1198  0.2124  0.2038
32907ION     NA49754  14.004  11.515   6.306  0.0379 -0.4455  0.1469
32908ION     NA49755  11.712  13.984   5.851 -0.1132  0.1817  0.1394
32909ION     NA49756  11.999  13.346  11.133 -0.1904 -0.2338 -0.2884
32910ION     NA49757  12.117   7.929   5.699  0.2750 -0.0698 -0.1292
32911ION     NA49758   1.234   8.998  10.100  0.1341 -0.0085  0.0624
32912ION     NA49759  10.899   5.063  10.843 -0.1348  0.2771 -0.2389
32913ION     NA49760  16.192  14.922   5.931 -0.1023 -0.1236 -0.2398
32914ION     NA49761  12.552   8.234  11.902  0.1204  0.2055  0.0440
32915ION     NA49762   3.067   6.172  12.924 -0.0959  0.1381 -0.2516
32916ION     NA49763   3.436  10.076  10.540 -0.3597  0.0955  0.4428
32917ION     NA49764  17.004  16.696  12.501  0.2567 -0.4206  0.0267
32918ION     NA49765   9.416  14.186   5.929  0.0003  0.0071  0.1519
32919ION     NA49766  11.018   8.140  13.639  0.0408 -0.1720  0.1330
32920ION     NA49767  15.228  11.614  10.952 -0.0834  0.0588  0.2584
32921ION     NA49768  10.920   8.271   3.733  0.2589  0.1716 -0.2331
32922ION     NA49769   5.617  16.790  10.652 -0.1519  0.0817  0.0351
32923ION     NA49770   0.343  13.317   3.507 -0.0163  0.2550  0.0541
32924ION     NA49771   8.773   7.020  10.538  0.2784 -0.2737  0.1757
32925ION     NA49772   6.577  15.413  11.140 -0.1882  0.1881 -0.2010
32926ION     NA49773   7.510   3.764   5.386 -0.4663  0.0281  0.1637
32927ION     NA49774  11.335   3.568  10.402  0.3889 -0.3504 -0.2478
32928ION     NA49775   8.182   5.094   3.676 -0.0201  0.4730 -0.1493
32929ION     NA49776   0.090   0.055  10.547  0.0150  0.1044  0.0839
32930ION     NA49777   5.403   9.848  10.919  0.2180 -0.2231  0.1065
32931ION     NA49778   0.462  14.554  11.091 -0.0840  0.2172 -0.0858
32932ION     NA49779  10.943  12.441   3.612  0.0788 -0.0953 -0.0949
32933ION     NA49780   2.238  15.486  11.006 -0.0871 -0.1149  0.0963
32934ION     NA49781  10.719   1.029   5.915 -0.0240  0.1773 -0.2537
32935ION     NA49782   4.244  13.063  15.638 -0.1675  0.2038  0.0836
32936ION     NA49783  11.247   8.169   2.655 -0.0293 -0.1229  0.0696
32937ION     NA49784   6.545   3.685  10.348  0.3930  0.2473  0.0500
32938ION     NA49785  13.564   9.852  13.961  0.0649  0.0645  0.3587
32939ION     NA49786   5.901  12.371  11.168 -0.1306  0.1595 -0.2866
32940ION     NA49787   0.355   7.860   4.767 -0.0178 -0.0719 -0.0281
32941ION     NA49788   4.085   5.579   1.270  0.0528 -0.1156 -0.1265
32942ION     NA49789   4.099   0.720  10.326  0.3125 -0.1112 -0.1264
32943ION     NA49790  13.376  11.032  10.808 -0.2095 -0.1878  0.3634
32944ION     NA49791   3.712   7.590  10.667 -0.1365  0.0659  0.3951
32945ION     NA49792   6.831  10.148  10.697  0.0237 -0.0744  0.3532
32946ION     NA49793   2.023   2.413  10.239 -0.1092  0.3004 -0.0537
32947ION     NA49794   5.869  15.887  10.765  0.0914  0.3087 -0.1498
32948ION     NA49795  13.667  10.844  14.506 -0.0299 -0.0827  0.0539
32949ION     NA49796   3.490   3.613  10.112  0.1051 -0.0449  0.3074
32950ION     NA49797  13.850  17.533  10.401 -0.0777  0.1300 -0.0941
32951ION     NA49798   4.318  13.144  13.388  0.2526 -0.0541  0.0530
32952ION     NA49799  10.923  11.770  11.375 -0.1007 -0.0957  0.3536
32953ION     NA49800   0.226  17.183  11.046  0.0556  0.0230  0.1310
32954ION     NA49801   1.020  16.309  10.682  0.3028 -0.2060  0.0142
32955ION     NA49802   2.739   9.966   5.870  0.0819 -0.0948  0.0522
32956ION     NA49803   5.794   3.375  10.291 -0.2673 -0.1168 -0.1914
32957ION     NA49804  13.578   8.637   0.237 -0.1988  0.5625  0.0835
32958ION     NA49805   3.946  13.957   2.243  0.2618 -0.3400  0.3082
32959ION     NA49806   9.881  13.469   5.918 -0.1063  0.0881 -0.0675
32960ION     NA49807  12.654  15.163  10.586  0.2453  0.1427  0.2545
32961ION     NA49808   7.753   9.717  10.792 -0.0236  0.2454  0.1086
32962ION     NA49809  16.093  14.057  10.721 -0.4348  0.1919 -0.1267
32963ION     NA49810  15.592   3.133  10.109 -0.1285 -0.4211 -0.0050
32964ION     NA49811   4.546   4.869  11.464  0.1667 -0.0015  0.2008
32965ION     NA49812   0.776  11.127  13.012  0.1277 -0.1003  0.1655
32966ION     NA49813  13.611  12.597  10.902  0.0603 -0.2375 -0.0157
32967ION     NA49814  17.471   6.736   2.807  0.0262 -0.0823 -0.3088
32968ION     NA49815  13.915   6.910  10.597 -0.0808 -0.0073 -0.0360
32969ION     NA49816   4.938   4.453  10.201  0.1861  0.1644 -0.1036
32970ION     NA49817   8.800   5.357  10.601  0.2263  0.3846 -0.0977
32971ION     NA49818  17.032   9.205  11.057  0.0907 -0.0705  0.0831
32972ION     NA49819  17.375  18.379   1.363  0.1046 -0.1383  0.0268
32973ION     NA49820  14.360   1.225   5.714  0.2736  0.1514  0.0221
32974ION     NA49821  10.744  15.494  10.819  0.0007 -0.2691  0.0507
32975ION     NA49822  16.302   0.481  12.046 -0.0870 -0.0947  0.0781
32976ION     NA49823   5.479   9.542  14.328  0.1902 -0.0287 -0.0750
32977ION     NA49824  17.707  14.467  14.018 -0.0186 -0.1571  0.2020
32978ION     NA49825   1.363   4.319   1.461  0.0271 -0.0734 -0.2975
32979ION     NA49826   3.035  10.370   2.727  0.0210  0.3155 -0.1528
32980ION     NA49827  13.265  13.744  10.728 -0.0097  0.0014 -0.0129
32981ION     NA49828  17.436   5.327   5.168  0.1876 -0.0752 -0.0269
32982ION     NA49829   3.822   5.149  10.401 -0.0562  0.0566 -0.0139
32983ION     NA49830  13.057  11.035   6.260  0.2226  0.0192 -0.0093
32984ION     NA49831   2.273  13.566  15.138 -0.1680  0.3529  0.0596
32985ION     NA49832   9.958  11.760  10.753 -0.1864  0.0637 -0.2663
32986ION     NA49833  11.320  13.152  10.732  0.0253  0.0193 -0.3323
32987ION     NA49834   6.310  15.476   5.938 -0.1425 -0.2969 -0.3393
32988ION     NA49835  12.371   8.743  10.400  0.3265 -0.2640 -0.0624
32989ION     NA49836   3.314   8.518  10.837 -0.0887 -0.3316  0.2672
32990ION     NA49837   1.252   3.038   9.576 -0.2640  0.2783 -0.0992
32991ION     NA49838   7.156  12.534  15.088 -0.0965 -0.0965  0.0165
32992ION     NA49839   3.582   9.755   5.882  0.1909  0.1456  0.1425
32993ION     NA49840  16.348   4.715  14.858 -0.2198 -0.3821  0.0774
32994ION     NA49841  16.530  13.134   5.161  0.0217 -0.2156 -0.2116
32995ION     NA49842   1.065  13.067   6.182 -0.3813 -0.2273  0.1670
32996ION     NA49843  16.377  17.488   5.703  0.0822  0.0388 -0.0376
32997ION     NA49844  10.627   0.076  10.791  0.0856 -0.0226  0.2943
32998ION     NA49845  12.433   9.493   6.083  0.0949  0.0094  0.1462
32999ION     NA49846   9.160  13.682  10.891  0.1052  0.0859 -0.3732
33000ION     NA49847   8.338  10.749  10.706  0.1096  0.0312 -0.1709
33001ION     NA49848   7.512   8.703  10.768  0.1114 -0.2375 -0.0361
33002ION     NA49849   0.765  14.065  10.915 -0.0616  0.1969  0.1651
33003ION     NA49850   4.311  11.696  10.648 -0.3904 -0.0336  0.0666
33004ION     NA49851   9.553  12.975  10.906 -0.3871 -0.1513 -0.1661
33005ION     NA49852   1.318  12.369  10.524  0.4867 -0.0232 -0.1742
33006ION     NA49853   2.051   3.728   9.937  0.0260 -0.2026  0.0672
33007ION     NA49854   0.129  10.173  10.632 -0.1097 -0.3220 -0.1823
33008ION     NA49855  15.669  16.345  13.391 -0.0713 -0.0203 -0.2757
33009ION     NA49856  14.997   9.796  10.541 -0.0964  0.1905  0.0430
33010ION     NA49857   3.554  12.149   6.096 -0.0848  0.0769 -0.0991
33011ION     NA49858   5.506  15.238  10.702 -0.0737  0.1091 -0.0459
33012ION     NA49859   1.292   5.282   9.378  0.1615  0.1783 -0.0710
33013ION     NA49860  12.195  10.607  10.698 -0.1234  0.1108 -0.0282
33014ION     NA49861  10.558  12.615  10.929 -0.0437 -0.0413  0.0464
33015ION     NA49862  14.594   4.319   9.898 -0.1021 -0.0731 -0.2191
33016ION     NA49863  13.792  11.701  10.745 -0.0594  0.0394 -0.0623
33017ION     NA49864  14.914  16.558  10.542  0.2468 -0.0707  0.1613
33018ION     NA49865  15.870   2.213  10.073  0.1723  0.1003  0.1292
33019ION     NA49866  17.584  15.110   6.343 -0.1471 -0.0592 -0.2240
33020ION     NA49867   2.028   2.874  10.010  0.1187 -0.1611 -0.1238
33021ION     NA49868   8.338  11.688   0.024 -0.4438 -0.1215 -0.0627
33022ION     NA49869   6.002   5.776  10.107 -0.0274 -0.0111  0.3981
33023ION     NA49870   6.395  16.541  10.636 -0.0934 -0.2751  0.0488
33024ION     NA49871  11.398   9.732  12.829 -0.1594  0.2175  0.0785
33025ION     NA49872   8.280   8.180  10.676  0.0719 -0.2732  0.0090
33026ION     NA49873  16.110   2.110  10.962 -0.2540  0.0904 -0.2392
33027ION     NA49874   5.860  13.205   5.956 -0.0080  0.0581 -0.5063
33028ION     NA49875  14.772  15.716  14.286  0.1862  0.0029 -0.2724
33029ION     NA49876  17.449  17.941   5.134 -0.0555 -0.1248 -0.1397
33030ION     NA49877   6.117   7.824  10.390  0.0048 -0.2522 -0.0973
  18.41963  18.41963  16.37757
