INSANE! Membrane UpperLeaflet>loPI=1.0 LowerLeaflet>PSPI:POPI:POPS:YOPS:POPE:YOPE:POPC:YOPC:ERGO=6.0:14.0:21.0:9.0:9.0:21.0:12.0:48.0:60.0
49877
    1loPI    C1    1  16.080   7.521  10.693  0.1136 -0.0930  0.1350
    1loPI    C2    2  16.350   7.720  10.911  0.0241  0.0472  0.1196
    1loPI    C3    3  16.078   7.488  11.092  0.0308  0.0614  0.1483
    1loPI   PO4    4  16.267   7.442  10.459 -0.2788 -0.1484  0.0185
    1loPI   GL1    5  16.348   7.263  10.102 -0.0518  0.3165 -0.0255
    1loPI   GL2    6  16.262   6.978  10.082 -0.1389  0.3985 -0.3910
    1loPI   C1A    7  16.251   7.217   9.660 -0.0607  0.1566  0.0210
    1loPI   C2A    8  16.331   7.276   9.295 -0.2279 -0.2654 -0.1575
    1loPI   C3A    9  16.398   7.160   8.867 -0.0805  0.1665  0.2153
    1loPI   C4A   10  16.505   7.370   8.562 -0.1619  0.0598  0.0596
    1loPI   C5A   11  16.647   7.403   8.094 -0.1012 -0.3582  0.0465
    1loPI   C6A   12  16.789   7.296   7.794 -0.0709  0.3813  0.0199
    1loPI   C1B   13  16.546   6.832   9.732  0.0145 -0.1578  0.2533
    1loPI   C2B   14  16.610   6.805   9.253 -0.0504 -0.0331 -0.3444
    1loPI   C3B   15  16.633   6.690   8.861  0.5296  0.0030  0.2018
    1loPI   C4B   16  16.430   6.578   8.471  0.0871  0.0592 -0.3289
    2loPI    C1   17   7.700   7.618  10.099 -0.1427 -0.0680 -0.1400
    2loPI    C2   18   7.610   7.342  10.374  0.1075 -0.0169 -0.0036
    2loPI    C3   19   7.670   7.722  10.484 -0.0245  0.0510 -0.1621
    2loPI   PO4   20   7.549   7.436   9.876 -0.0413  0.0871 -0.1287
    2loPI   GL1   21   7.717   7.359   9.466  0.0451  0.2292  0.1415
    2loPI   GL2   22   7.708   7.047   9.688 -0.0568  0.0274  0.0900
    2loPI   C1A   23   7.618   7.269   9.050 -0.0086 -0.4202  0.2752
    2loPI   C2A   24   7.730   7.364   8.563  0.1620 -0.2087  0.2324
    2loPI   C3A   25   7.728   7.310   8.113  0.0726 -0.4280  0.0014
    2loPI   C4A   26   7.517   7.225   7.713 -0.0696 -0.0036  0.0585
    2loPI   C5A   27   7.188   7.230   7.420 -0.1329 -0.0389 -0.3567
    2loPI   C6A   28   6.899   7.467   7.339  0.0577  0.0467  0.0038
    2loPI   C1B   29   7.474   6.877   9.447 -0.1989 -0.1805  0.3369
    2loPI   C2B   30   7.344   6.829   8.957  0.1439 -0.2388 -0.0894
    2loPI   C3B   31   7.411   6.962   8.568  0.0572  0.3105  0.0156
    2loPI   C4B   32   7.472   6.924   8.196 -0.0188 -0.3247  0.0544
    3loPI    C1   33   2.802   6.389  11.013 -0.0713 -0.1311  0.0244
    3loPI    C2   34   3.118   6.312  11.246  0.0315  0.0233 -0.0622
    3loPI    C3   35   2.920   6.011  11.072  0.0575 -0.0817  0.0879
    3loPI   PO4   36   2.895   6.605  10.897  0.0789 -0.2313  0.1352
    3loPI   GL1   37   2.716   6.726  10.451 -0.2393 -0.3194 -0.2275
    3loPI   GL2   38   2.495   6.533  10.251 -0.2909 -0.1079 -0.0933
    3loPI   C1A   39   2.950   6.918  10.091 -0.1500  0.0374  0.1447
    3loPI   C2A   40   2.924   7.145   9.685 -0.1377 -0.0133  0.1576
    3loPI   C3A   41   3.125   7.042   9.366  0.0267 -0.2397 -0.3731
    3loPI   C4A   42   3.034   7.002   8.906 -0.1910 -0.0239  0.0665
    3loPI   C5A   43   2.954   7.074   8.399  0.2611 -0.1577  0.0091
    3loPI   C6A   44   2.921   6.784   8.033  0.1783  0.0248 -0.0240
    3loPI   C1B   45   2.372   6.508   9.834  0.0417 -0.0896 -0.2145
    3loPI   C2B   46   2.234   6.520   9.387  0.0932  0.0823 -0.2640
    3loPI   C3B   47   2.293   6.522   8.870  0.1559 -0.1796 -0.1943
    3loPI   C4B   48   2.273   6.529   8.445  0.0110 -0.2624 -0.0607
    4loPI    C1   49  18.415  15.793  10.456 -0.1412 -0.0596 -0.0801
    4loPI    C2   50  18.437  16.133  10.666 -0.1294 -0.0504 -0.0963
    4loPI    C3   51  18.082  15.999  10.538 -0.1582 -0.1513  0.0861
    4loPI   PO4   52  18.633  15.852  10.226 -0.2341  0.0137  0.1582
    4loPI   GL1   53  18.516  15.851   9.786  0.4374 -0.2057  0.1047
    4loPI   GL2   54  18.572  15.555   9.545  0.0878  0.1935 -0.1420
    4loPI   C1A   55  18.250  16.072   9.514  0.1442  0.2542  0.0562
    4loPI   C2A   56  18.317  16.052   9.045 -0.2007 -0.1011  0.0523
    4loPI   C3A   57  18.315  16.012   8.634 -0.1289 -0.2352 -0.1829
    4loPI   C4A   58  18.287  15.999   8.251 -0.2121  0.2883  0.1823
    4loPI   C5A   59  18.300  16.082   7.811 -0.3759 -0.1328  0.0511
    4loPI   C6A   60  18.405  15.848   7.405  0.0247  0.3162  0.0340
    4loPI   C1B   61  18.573  15.610   9.105 -0.3344  0.5394 -0.1460
    4loPI   C2B   62  18.601  15.672   8.717 -0.0727 -0.1625 -0.1820
    4loPI   C3B   63  18.669  15.675   8.311  0.0192  0.2599 -0.1512
    4loPI   C4B   64  18.553  15.658   7.843 -0.2388  0.2179 -0.2188
    5loPI    C1   65   1.954  17.695  10.012 -0.2266 -0.0576 -0.0956
    5loPI    C2   66   1.678  17.443  10.156 -0.1785  0.1620  0.3997
    5loPI    C3   67   1.786  17.765  10.368  0.0286  0.4044 -0.0583
    5loPI   PO4   68   1.900  17.611   9.738  0.0841  0.0134  0.0253
    5loPI   GL1   69   1.743  17.496   9.321 -0.3940 -0.0849 -0.2072
    5loPI   GL2   70   1.443  17.567   9.443  0.0374 -0.2113 -0.0784
    5loPI   C1A   71   1.760  17.547   8.797  0.0127 -0.2503 -0.1529
    5loPI   C2A   72   1.793  17.612   8.374  0.2706 -0.0636  0.0885
    5loPI   C3A   73   1.703  17.554   7.972  0.1005 -0.0512  0.1212
    5loPI   C4A   74   1.529  17.594   7.476 -0.0864 -0.1931  0.0103
    5loPI   C5A   75   1.439  17.238   7.167  0.0327  0.0568  0.3883
    5loPI   C6A   76   1.235  17.009   6.767  0.2726 -0.0594  0.2141
    5loPI   C1B   77   1.362  17.679   9.025 -0.3570  0.3177  0.2148
    5loPI   C2B   78   1.284  17.708   8.664 -0.3274 -0.1627  0.2158
    5loPI   C3B   79   1.262  17.523   8.217  0.0577 -0.1333 -0.0041
    5loPI   C4B   80   1.152  17.535   7.865  0.3398 -0.0456  0.2257
    6loPI    C1   81   3.315  14.983  10.177  0.0956 -0.3246  0.1107
    6loPI    C2   82   3.541  15.148  10.463  0.0315  0.0386 -0.0427
    6loPI    C3   83   3.151  15.234  10.441 -0.0675 -0.3654  0.0493
    6loPI   PO4   84   3.513  14.944   9.965  0.0131 -0.1189 -0.1936
    6loPI   GL1   85   3.839  15.116   9.711  0.0737 -0.0694 -0.0575
    6loPI   GL2   86   4.130  14.964   9.694 -0.3702  0.0364 -0.0236
    6loPI   C1A   87   3.730  15.310   9.317  0.0563 -0.0262  0.1056
    6loPI   C2A   88   3.671  15.504   8.911 -0.2493 -0.1235  0.0667
    6loPI   C3A   89   3.725  15.393   8.524 -0.2513  0.0768 -0.2008
    6loPI   C4A   90   3.629  15.384   8.063  0.1730  0.1445  0.1354
    6loPI   C5A   91   3.579  15.431   7.656 -0.0741  0.2129 -0.1101
    6loPI   C6A   92   3.306  15.656   7.403 -0.1795 -0.2640  0.0736
    6loPI   C1B   93   4.123  14.982   9.259  0.2808 -0.0650  0.3463
    6loPI   C2B   94   3.971  15.013   8.837 -0.3293 -0.1290 -0.0754
    6loPI   C3B   95   4.055  15.015   8.402 -0.1381 -0.1152 -0.0146
    6loPI   C4B   96   3.973  15.095   7.963  0.1222 -0.3658 -0.4593
    7loPI    C1   97  12.677   4.352  10.492  0.0915  0.1455 -0.1684
    7loPI    C2   98  12.563   4.733  10.536  0.1130  0.1082  0.2576
    7loPI    C3   99  12.899   4.604  10.711  0.2606 -0.0397 -0.1239
    7loPI   PO4  100  12.642   4.370  10.194 -0.0905 -0.0856  0.0358
    7loPI   GL1  101  12.659   4.502   9.806 -0.0831  0.1727 -0.1055
    7loPI   GL2  102  12.933   4.164   9.748  0.1995  0.0707 -0.0784
    7loPI   C1A  103  12.638   4.606   9.391 -0.2610  0.1001 -0.0576
    7loPI   C2A  104  12.587   4.575   8.985 -0.1833 -0.0719  0.0489
    7loPI   C3A  105  12.509   4.672   8.522  0.1203 -0.3817 -0.0797
    7loPI   C4A  106  12.482   4.651   8.129 -0.0492  0.0983  0.0661
    7loPI   C5A  107  12.356   4.807   7.859  0.1982  0.2653 -0.0458
    7loPI   C6A  108  12.391   5.081   7.532 -0.3729  0.1459  0.4950
    7loPI   C1B  109  12.839   4.162   9.290  0.3352 -0.0601 -0.0152
    7loPI   C2B  110  12.852   4.167   8.841  0.0256  0.5088  0.1535
    7loPI   C3B  111  12.763   4.280   8.435 -0.0752 -0.1381 -0.1572
    7loPI   C4B  112  12.849   4.341   7.989  0.1549  0.2125  0.5318
    8loPI    C1  113  11.803   3.293  10.095  0.0299  0.0604 -0.2429
    8loPI    C2  114  12.138   3.485  10.201 -0.0636  0.0284  0.1244
    8loPI    C3  115  12.115   3.087  10.237 -0.0903  0.0142 -0.0414
    8loPI   PO4  116  11.774   3.407   9.905  0.0609  0.1342 -0.1883
    8loPI   GL1  117  11.415   3.653   9.661 -0.1142 -0.2364  0.2462
    8loPI   GL2  118  11.178   3.731   9.512 -0.1753 -0.2011 -0.0566
    8loPI   C1A  119  11.617   3.699   9.200 -0.1620 -0.0892  0.3004
    8loPI   C2A  120  11.473   3.709   8.752  0.3259 -0.1278 -0.0542
    8loPI   C3A  121  11.450   3.819   8.298  0.0056  0.3637  0.1782
    8loPI   C4A  122  11.396   3.790   7.907  0.0184 -0.0549  0.1238
    8loPI   C5A  123  11.555   4.011   7.553 -0.0647  0.0336  0.0323
    8loPI   C6A  124  11.490   4.243   7.194 -0.0284 -0.1575  0.2836
    8loPI   C1B  125  11.084   3.669   9.076  0.0859  0.4092 -0.1563
    8loPI   C2B  126  10.975   3.818   8.711  0.2331 -0.0792  0.1167
    8loPI   C3B  127  10.967   3.747   8.220 -0.0063 -0.1024  0.4239
    8loPI   C4B  128  10.921   3.662   7.752 -0.1960  0.0793  0.3177
    9loPI    C1  129   8.394   3.240  10.552 -0.0241 -0.1057  0.1854
    9loPI    C2  130   8.434   2.930  10.802 -0.0768 -0.2485  0.0190
    9loPI    C3  131   8.086   2.991  10.614 -0.1195  0.0093  0.1771
    9loPI   PO4  132   8.509   3.241  10.427 -0.0020  0.0599 -0.0663
    9loPI   GL1  133   8.544   3.334  10.012  0.3079 -0.2850  0.0972
    9loPI   GL2  134   8.837   3.184   9.804 -0.0045 -0.2594 -0.2008
    9loPI   C1A  135   8.399   3.504   9.672  0.0540 -0.3086 -0.1119
    9loPI   C2A  136   8.339   3.552   9.247 -0.0454  0.1828 -0.0672
    9loPI   C3A  137   8.439   3.646   8.812 -0.0623  0.0642 -0.0630
    9loPI   C4A  138   8.409   3.575   8.357 -0.3190 -0.2874  0.0673
    9loPI   C5A  139   8.525   3.509   7.891  0.1618 -0.1210  0.2288
    9loPI   C6A  140   8.424   3.728   7.533 -0.0549 -0.3317  0.0087
    9loPI   C1B  141   8.679   3.092   9.484  0.4573  0.0522  0.0588
    9loPI   C2B  142   8.667   3.126   8.998  0.2622 -0.0747  0.1502
    9loPI   C3B  143   8.665   3.154   8.615 -0.2315  0.3741 -0.1082
    9loPI   C4B  144   8.754   3.186   8.138  0.1740 -0.5085 -0.2494
   10loPI    C1  145  13.907   6.552  10.671 -0.0367 -0.2961  0.1624
   10loPI    C2  146  13.981   6.628  11.057 -0.0490 -0.1094  0.1295
   10loPI    C3  147  13.618   6.501  10.944 -0.1798  0.2565  0.1267
   10loPI   PO4  148  14.097   6.434  10.573  0.1364  0.0655 -0.1458
   10loPI   GL1  149  14.096   6.413  10.131 -0.4085 -0.2690  0.1032
   10loPI   GL2  150  14.350   6.354   9.979  0.2179 -0.1878 -0.0749
   10loPI   C1A  151  13.991   6.655   9.843 -0.1733 -0.0733 -0.2241
   10loPI   C2A  152  13.884   6.585   9.462 -0.1910  0.1036  0.0376
   10loPI   C3A  153  13.903   6.616   9.048 -0.0912  0.3570 -0.1047
   10loPI   C4A  154  13.974   6.779   8.651  0.0147  0.1300  0.3255
   10loPI   C5A  155  14.110   6.672   8.213 -0.1253 -0.2603  0.0921
   10loPI   C6A  156  13.895   6.671   7.769  0.0760 -0.2468  0.2128
   10loPI   C1B  157  14.241   6.223   9.558  0.1710 -0.0359 -0.2980
   10loPI   C2B  158  14.302   6.101   9.213 -0.2256 -0.1844  0.1175
   10loPI   C3B  159  14.215   6.306   8.787  0.0482 -0.0331  0.0477
   10loPI   C4B  160  14.450   6.297   8.323  0.0665 -0.1209 -0.1368
   11loPI    C1  161   0.256  10.012  10.512 -0.1214  0.0701  0.0503
   11loPI    C2  162   0.019   9.839  10.784 -0.0472 -0.1653 -0.0323
   11loPI    C3  163   0.186  10.194  10.861 -0.0613 -0.2097  0.2117
   11loPI   PO4  164   0.096   9.912  10.278  0.0866 -0.1266 -0.4108
   11loPI   GL1  165  -0.078   9.921   9.886  0.1150  0.3979  0.2116
   11loPI   GL2  166  -0.312   9.691   9.785 -0.0865 -0.0858  0.0660
   11loPI   C1A  167  -0.013  10.074   9.502 -0.1085  0.1098 -0.2096
   11loPI   C2A  168  -0.153  10.183   9.042 -0.1306 -0.1203  0.2720
   11loPI   C3A  169  -0.152  10.114   8.529  0.0470  0.2140 -0.0113
   11loPI   C4A  170  -0.190  10.049   8.174 -0.0321  0.2239  0.0854
   11loPI   C5A  171  -0.628   9.936   8.129  0.1954 -0.1273  0.1243
   11loPI   C6A  172  -1.054   9.936   7.759  0.1364 -0.2650  0.0370
   11loPI   C1B  173  -0.368   9.719   9.362  0.0321 -0.0323  0.0219
   11loPI   C2B  174  -0.367   9.709   8.872  0.0943 -0.0095 -0.1089
   11loPI   C3B  175  -0.449   9.661   8.495  0.0659 -0.2907 -0.0660
   11loPI   C4B  176  -0.223   9.519   8.116  0.0640 -0.1093 -0.0591
   12loPI    C1  177   2.640  17.152  10.433  0.1224  0.1807  0.0678
   12loPI    C2  178   2.981  16.983  10.556  0.0942  0.1559  0.1117
   12loPI    C3  179   2.631  16.865  10.711  0.0074 -0.2460 -0.3633
   12loPI   PO4  180   2.639  17.242  10.176 -0.0670 -0.1814  0.0632
   12loPI   GL1  181   2.635  17.190   9.683 -0.0382 -0.0084 -0.1457
   12loPI   GL2  182   2.637  16.807   9.668 -0.2864  0.3097 -0.3567
   12loPI   C1A  183   2.569  17.144   9.163 -0.1199 -0.3701  0.3586
   12loPI   C2A  184   2.526  17.225   8.791  0.0682 -0.1421  0.0214
   12loPI   C3A  185   2.555  17.266   8.355 -0.0695 -0.3465  0.4687
   12loPI   C4A  186   2.561  17.120   7.936 -0.0319 -0.0635  0.1350
   12loPI   C5A  187   2.651  17.110   7.476  0.1029 -0.0542 -0.2941
   12loPI   C6A  188   2.546  17.158   7.014 -0.5137  0.3064 -0.0521
   12loPI   C1B  189   2.881  16.695   9.250  0.2822 -0.0128  0.1230
   12loPI   C2B  190   2.796  16.813   8.839 -0.1621 -0.1499  0.1344
   12loPI   C3B  191   2.837  16.680   8.299  0.0802  0.1792 -0.0194
   12loPI   C4B  192   2.689  16.621   7.844  0.0565  0.1936  0.1724
   13loPI    C1  193  10.902   7.923  10.183 -0.1735 -0.0049  0.0685
   13loPI    C2  194  10.948   8.247  10.412 -0.1237  0.0659 -0.0413
   13loPI    C3  195  11.027   7.885  10.561 -0.4505  0.0777  0.1713
   13loPI   PO4  196  10.995   7.993   9.951  0.0108  0.0759 -0.1944
   13loPI   GL1  197  10.903   7.835   9.545 -0.0632  0.0291 -0.3092
   13loPI   GL2  198  11.000   7.572   9.610  0.2197  0.0544  0.1638
   13loPI   C1A  199  11.043   7.965   9.121  0.1702 -0.0300  0.3791
   13loPI   C2A  200  11.036   7.999   8.669 -0.2455  0.0309  0.0548
   13loPI   C3A  201  11.147   8.019   8.185  0.1077  0.0064  0.0734
   13loPI   C4A  202  11.181   7.967   7.789 -0.1070 -0.2502  0.1950
   13loPI   C5A  203  11.162   7.754   7.403 -0.1502  0.2683  0.0784
   13loPI   C6A  204  11.176   7.532   6.938  0.2354 -0.2564 -0.3498
   13loPI   C1B  205  10.871   7.448   9.147  0.2156  0.2152 -0.4297
   13loPI   C2B  206  10.864   7.517   8.617  0.0053 -0.0047 -0.0927
   13loPI   C3B  207  10.902   7.539   8.208 -0.0669 -0.1421 -0.1469
   13loPI   C4B  208  10.867   7.579   7.726 -0.0103  0.1139  0.3505
   14loPI    C1  209  14.725   8.177  10.457 -0.2853  0.1512 -0.0906
   14loPI    C2  210  14.512   8.445  10.664 -0.1324  0.0459  0.2082
   14loPI    C3  211  14.856   8.304  10.813  0.0686  0.0944 -0.1967
   14loPI   PO4  212  14.698   8.290  10.223 -0.1042  0.2628 -0.1729
   14loPI   GL1  213  14.858   8.451   9.781  0.1078 -0.0224 -0.4435
   14loPI   GL2  214  14.552   8.520   9.718  0.0490  0.0025 -0.1028
   14loPI   C1A  215  14.872   8.511   9.336 -0.1654 -0.1798  0.0663
   14loPI   C2A  216  14.967   8.717   8.864  0.3862  0.1719  0.2421
   14loPI   C3A  217  15.012   8.636   8.426 -0.3539 -0.0829 -0.0610
   14loPI   C4A  218  15.157   8.698   7.926  0.0571 -0.0820  0.0398
   14loPI   C5A  219  15.120   8.634   7.535  0.0698 -0.2036  0.0673
   14loPI   C6A  220  15.134   8.520   7.107  0.0677 -0.0100 -0.1793
   14loPI   C1B  221  14.335   8.587   9.362 -0.0747 -0.2261  0.0463
   14loPI   C2B  222  14.300   8.679   8.949  0.0923 -0.2532  0.0736
   14loPI   C3B  223  14.434   8.589   8.617 -0.1251  0.0750 -0.1477
   14loPI   C4B  224  14.542   8.622   8.243 -0.1289  0.1393  0.1189
   15loPI    C1  225   1.313   8.662  10.453 -0.0994  0.1263 -0.0058
   15loPI    C2  226   1.595   8.710  10.732  0.0764 -0.1213 -0.1376
   15loPI    C3  227   1.218   8.818  10.809  0.1688  0.0354  0.1081
   15loPI   PO4  228   1.384   8.484  10.257  0.2684  0.1433  0.2414
   15loPI   GL1  229   1.356   8.693   9.907  0.2405  0.0690  0.0007
   15loPI   GL2  230   1.264   9.113   9.905 -0.0339 -0.1218 -0.3430
   15loPI   C1A  231   1.339   8.825   9.477 -0.0158 -0.1049 -0.0554
   15loPI   C2A  232   1.261   8.858   9.054 -0.0547  0.1460  0.0626
   15loPI   C3A  233   1.189   8.877   8.580 -0.0877  0.3704  0.0010
   15loPI   C4A  234   1.228   8.928   8.137  0.3481  0.1058  0.0194
   15loPI   C5A  235   1.154   9.140   7.788 -0.4649 -0.1154  0.2759
   15loPI   C6A  236   1.046   9.396   7.475 -0.1459  0.3576  0.2161
   15loPI   C1B  237   1.067   9.222   9.588 -0.4210 -0.0598  0.0239
   15loPI   C2B  238   0.972   9.306   9.199  0.1240  0.0198 -0.4438
   15loPI   C3B  239   0.919   9.321   8.831 -0.2334 -0.1125 -0.1515
   15loPI   C4B  240   0.866   9.288   8.369  0.0882  0.2506 -0.1413
   16loPI    C1  241  13.000  15.891  10.566  0.2439  0.0029 -0.0896
   16loPI    C2  242  13.304  15.774  10.798  0.1496  0.0271  0.0475
   16loPI    C3  243  12.944  15.842  10.959  0.0967  0.0955 -0.0982
   16loPI   PO4  244  13.132  15.663  10.294 -0.0559 -0.1141  0.3013
   16loPI   GL1  245  13.127  15.551   9.796 -0.0051  0.1217  0.3196
   16loPI   GL2  246  12.894  15.418   9.647 -0.0318 -0.1550  0.3457
   16loPI   C1A  247  13.411  15.470   9.447 -0.2078 -0.2802 -0.0687
   16loPI   C2A  248  13.375  15.420   8.914  0.0494 -0.0817  0.1053
   16loPI   C3A  249  13.206  15.395   8.543 -0.2371  0.1214 -0.1322
   16loPI   C4A  250  13.317  15.441   8.085 -0.2587 -0.0465  0.0227
   16loPI   C5A  251  13.681  15.628   7.723  0.0741 -0.4256  0.1385
   16loPI   C6A  252  13.978  15.964   7.576 -0.2149 -0.2968  0.1101
   16loPI   C1B  253  12.878  15.298   9.272  0.0482  0.3024  0.4686
   16loPI   C2B  254  12.809  15.392   8.823 -0.1480  0.0968 -0.1608
   16loPI   C3B  255  12.723  15.353   8.374  0.3068  0.2155 -0.1077
   16loPI   C4B  256  12.837  15.427   8.018  0.2714 -0.1514 -0.1330
   17loPI    C1  257  10.919  17.758  10.323 -0.2087  0.2315 -0.0296
   17loPI    C2  258  11.101  17.801  10.676  0.2004 -0.2264 -0.1739
   17loPI    C3  259  10.753  17.604  10.653  0.0205  0.0623  0.0087
   17loPI   PO4  260  11.174  17.722  10.147  0.2672 -0.1306 -0.2954
   17loPI   GL1  261  11.230  17.879   9.770  0.0750  0.0222  0.0351
   17loPI   GL2  262  11.459  17.617   9.591 -0.4261  0.4261  0.0510
   17loPI   C1A  263  11.285  17.975   9.321  0.2064 -0.1123  0.0666
   17loPI   C2A  264  11.130  17.985   8.835  0.0172  0.0736  0.1543
   17loPI   C3A  265  11.154  18.038   8.472  0.2643 -0.1630  0.1747
   17loPI   C4A  266  11.110  18.124   8.036 -0.2314  0.0296 -0.0548
   17loPI   C5A  267  11.050  18.119   7.593 -0.5689 -0.1311 -0.1985
   17loPI   C6A  268  10.989  18.483   7.344 -0.0872 -0.0961  0.3950
   17loPI   C1B  269  11.502  17.510   9.226 -0.2711  0.0119 -0.1978
   17loPI   C2B  270  11.503  17.601   8.769 -0.1042  0.0069 -0.1764
   17loPI   C3B  271  11.448  17.613   8.224 -0.0377 -0.2291 -0.0779
   17loPI   C4B  272  11.181  17.672   7.882  0.1752  0.1333 -0.1270
   18loPI    C1  273  17.072   1.526  10.819  0.0416  0.3810 -0.1716
   18loPI    C2  274  17.357   1.326  10.623 -0.2159 -0.3120  0.1278
   18loPI    C3  275  17.373   1.357  11.021 -0.2612  0.1524  0.0990
   18loPI   PO4  276  16.924   1.620  10.512  0.1065  0.2684 -0.0835
   18loPI   GL1  277  17.158   1.677  10.135  0.5407 -0.4086  0.0788
   18loPI   GL2  278  17.066   1.966  10.176 -0.0900  0.0271  0.0544
   18loPI   C1A  279  17.108   1.717   9.631 -0.4314 -0.1294  0.1901
   18loPI   C2A  280  17.110   1.857   9.166  0.1357  0.2377  0.0040
   18loPI   C3A  281  17.134   1.799   8.699 -0.0411 -0.1200 -0.2913
   18loPI   C4A  282  17.240   1.779   8.306 -0.0619 -0.0582  0.1032
   18loPI   C5A  283  17.388   1.475   8.070 -0.5953 -0.0852  0.0540
   18loPI   C6A  284  17.293   1.089   7.750 -0.3274 -0.0554  0.0074
   18loPI   C1B  285  16.851   2.193   9.756 -0.3311 -0.1299 -0.1626
   18loPI   C2B  286  16.850   2.316   9.277  0.0926 -0.0023 -0.0381
   18loPI   C3B  287  16.887   2.205   8.915 -0.0864 -0.0702 -0.0776
   18loPI   C4B  288  17.033   2.271   8.445 -0.0969 -0.1174 -0.0396
   19loPI    C1  289  16.002   0.318  10.818 -0.0335  0.1145  0.2274
   19loPI    C2  290  16.136   0.627  10.602 -0.1339 -0.1119 -0.1674
   19loPI    C3  291  16.193   0.620  10.998 -0.2077  0.4513 -0.1393
   19loPI   PO4  292  16.034   0.074  10.580  0.0512  0.2199  0.3501
   19loPI   GL1  293  16.136   0.218  10.157  0.1255 -0.0823  0.0217
   19loPI   GL2  294  16.420   0.202  10.069  0.0275  0.1080 -0.1247
   19loPI   C1A  295  16.094   0.675  10.023 -0.1370  0.2461 -0.0656
   19loPI   C2A  296  16.170   0.884   9.680  0.1406 -0.0470  0.2337
   19loPI   C3A  297  16.171   0.848   9.247  0.1735 -0.1605 -0.0866
   19loPI   C4A  298  16.056   0.726   8.808  0.3769  0.3830  0.1853
   19loPI   C5A  299  16.211   0.617   8.462  0.0528  0.0635  0.2401
   19loPI   C6A  300  16.470   0.694   8.162  0.1437  0.2237 -0.0840
   19loPI   C1B  301  16.456   0.344   9.695 -0.0655 -0.0603  0.2060
   19loPI   C2B  302  16.405   0.381   9.331  0.2224 -0.3341  0.2137
   19loPI   C3B  303  16.446   0.372   8.845  0.5997 -0.0399 -0.0321
   19loPI   C4B  304  16.488   0.161   8.461  0.0042  0.1231  0.0766
   20loPI    C1  305  15.507   9.042  10.755  0.0497 -0.0397 -0.0003
   20loPI    C2  306  15.726   8.780  10.963  0.0399 -0.1467 -0.1229
   20loPI    C3  307  15.864   9.151  10.900  0.0533 -0.1207  0.0524
   20loPI   PO4  308  15.436   8.885  10.554 -0.1746 -0.0486  0.3963
   20loPI   GL1  309  15.478   8.861  10.193 -0.3708  0.0056  0.1247
   20loPI   GL2  310  15.522   8.526  10.060 -0.0361  0.0776  0.1047
   20loPI   C1A  311  15.589   9.046   9.842  0.0985  0.0707  0.2718
   20loPI   C2A  312  15.701   9.049   9.413 -0.3794 -0.0517 -0.3803
   20loPI   C3A  313  15.709   9.025   8.972  0.0368  0.1440  0.2513
   20loPI   C4A  314  15.793   9.203   8.533 -0.1924  0.1050  0.1415
   20loPI   C5A  315  15.731   9.362   8.059 -0.1701  0.5621  0.0357
   20loPI   C6A  316  15.838   9.430   7.623  0.1381  0.3799  0.0669
   20loPI   C1B  317  15.385   8.569   9.577  0.1332  0.1046  0.0663
   20loPI   C2B  318  15.437   8.674   9.166  0.2617  0.1017 -0.1908
   20loPI   C3B  319  15.511   8.572   8.666 -0.1426  0.0064 -0.0248
   20loPI   C4B  320  15.557   8.801   8.338 -0.1662  0.5482 -0.1049
   21loPI    C1  321  16.674  17.392  10.461 -0.0624 -0.0876  0.0280
   21loPI    C2  322  16.348  17.253  10.645  0.0275 -0.0609  0.2100
   21loPI    C3  323  16.670  17.354  10.859  0.0943  0.0767  0.0467
   21loPI   PO4  324  16.687  17.345  10.266  0.1701  0.1528 -0.1871
   21loPI   GL1  325  16.995  17.320   9.937 -0.3240  0.3637 -0.1121
   21loPI   GL2  326  16.753  17.018   9.837 -0.3029  0.0738 -0.1864
   21loPI   C1A  327  16.965  17.432   9.553 -0.2633 -0.1559  0.0699
   21loPI   C2A  328  16.927  17.450   9.167  0.2357  0.2326 -0.0942
   21loPI   C3A  329  17.025  17.315   8.797 -0.0810 -0.1219  0.2507
   21loPI   C4A  330  17.098  17.393   8.308 -0.3670  0.0687  0.2854
   21loPI   C5A  331  16.939  17.334   7.916  0.2425  0.1699 -0.1637
   21loPI   C6A  332  16.763  17.190   7.600 -0.1812 -0.3874  0.1185
   21loPI   C1B  333  16.837  16.900   9.378 -0.0082  0.0629  0.3029
   21loPI   C2B  334  16.753  16.860   8.838 -0.0365 -0.2342  0.1925
   21loPI   C3B  335  16.825  16.893   8.354  0.0864  0.1160  0.0759
   21loPI   C4B  336  16.819  16.773   8.006 -0.0921  0.1118 -0.1454
   22loPI    C1  337   6.329  14.380   9.835 -0.0168 -0.0705 -0.1394
   22loPI    C2  338   6.388  14.224  10.199  0.5393  0.3077 -0.0543
   22loPI    C3  339   6.647  14.147   9.903  0.0655 -0.0358 -0.3940
   22loPI   PO4  340   6.073  14.368   9.812 -0.1502 -0.0200  0.3388
   22loPI   GL1  341   5.975  14.395   9.420 -0.2961  0.0832 -0.1073
   22loPI   GL2  342   6.302  14.537   9.329 -0.1912  0.2445  0.0797
   22loPI   C1A  343   5.987  14.506   8.927  0.3677 -0.3610  0.0177
   22loPI   C2A  344   5.973  14.506   8.478  0.0907 -0.1051  0.2558
   22loPI   C3A  345   5.779  14.524   8.133  0.4313  0.1881 -0.2999
   22loPI   C4A  346   5.779  14.509   7.726 -0.0105 -0.0401  0.1787
   22loPI   C5A  347   6.042  14.642   7.368  0.0674  0.0731  0.0355
   22loPI   C6A  348   5.810  14.433   7.077 -0.4369  0.1242  0.0039
   22loPI   C1B  349   6.497  14.455   8.914  0.1042  0.0970  0.1681
   22loPI   C2B  350   6.507  14.488   8.465 -0.0269  0.0528 -0.0525
   22loPI   C3B  351   6.354  14.502   8.083  0.1175  0.0837  0.1332
   22loPI   C4B  352   6.324  14.434   7.763 -0.1401  0.2103 -0.3106
   23loPI    C1  353  12.651  13.336  10.469 -0.4057 -0.0153  0.1179
   23loPI    C2  354  12.668  13.063  10.760  0.2387  0.0119  0.1188
   23loPI    C3  355  12.594  13.446  10.849 -0.0991 -0.0653  0.1810
   23loPI   PO4  356  12.718  13.155  10.273  0.1304  0.5404 -0.1591
   23loPI   GL1  357  12.827  13.179   9.886  0.1989 -0.2144  0.2228
   23loPI   GL2  358  12.929  13.476   9.822 -0.0007  0.2295  0.3909
   23loPI   C1A  359  12.771  13.130   9.424  0.2103  0.2455  0.1854
   23loPI   C2A  360  12.754  13.154   9.016 -0.4445 -0.0265  0.2487
   23loPI   C3A  361  12.713  13.118   8.563  0.4874  0.0582  0.3029
   23loPI   C4A  362  12.686  13.237   8.248  0.2550  0.0952  0.3351
   23loPI   C5A  363  12.347  13.064   7.973  0.1156 -0.2706 -0.2417
   23loPI   C6A  364  12.108  13.311   7.617 -0.0534  0.0865  0.0116
   23loPI   C1B  365  13.209  13.180   9.574 -0.1506 -0.1277 -0.3039
   23loPI   C2B  366  13.232  13.137   9.137  0.3203  0.1918  0.1542
   23loPI   C3B  367  13.238  13.068   8.747  0.2727  0.1633 -0.4885
   23loPI   C4B  368  13.267  13.133   8.356 -0.1396 -0.1830 -0.0537
   24loPI    C1  369   6.267  16.082   9.940 -0.0056 -0.1152 -0.0746
   24loPI    C2  370   6.149  16.194  10.306 -0.1050 -0.0902 -0.1139
   24loPI    C3  371   6.428  15.910  10.264  0.1040  0.0973 -0.0150
   24loPI   PO4  372   6.042  16.335   9.804  0.2598 -0.0356  0.2562
   24loPI   GL1  373   5.767  16.321   9.483  0.1203 -0.2059  0.0133
   24loPI   GL2  374   5.777  16.055   9.437  0.0288 -0.1758 -0.0512
   24loPI   C1A  375   5.770  16.492   9.110 -0.1191  0.1527 -0.4834
   24loPI   C2A  376   5.730  16.405   8.703 -0.2809 -0.0417  0.0864
   24loPI   C3A  377   5.780  16.302   8.256  0.2797 -0.0873  0.1395
   24loPI   C4A  378   5.781  16.343   7.845  0.0736  0.1723  0.1133
   24loPI   C5A  379   5.715  16.507   7.338  0.1107 -0.1970 -0.3886
   24loPI   C6A  380   5.627  16.437   6.942  0.4310  0.1894 -0.1315
   24loPI   C1B  381   5.760  15.871   8.992  0.3762  0.2330  0.0949
   24loPI   C2B  382   5.611  15.884   8.525  0.0474  0.1051 -0.0151
   24loPI   C3B  383   5.541  15.807   8.062  0.2336  0.2813 -0.0734
   24loPI   C4B  384   5.516  15.981   7.639 -0.2369  0.1090 -0.2777
   25loPI    C1  385   0.388   1.735  10.682  0.0366 -0.3182  0.1010
   25loPI    C2  386   0.149   1.456  10.840 -0.1946 -0.1337  0.0816
   25loPI    C3  387   0.015   1.830  10.792 -0.0065 -0.1023 -0.2202
   25loPI   PO4  388   0.481   1.721  10.424  0.0316  0.2427  0.3928
   25loPI   GL1  389   0.476   1.822  10.064  0.3798 -0.1655 -0.2697
   25loPI   GL2  390   0.271   1.593   9.946 -0.0664 -0.0402 -0.3931
   25loPI   C1A  391   0.390   1.967   9.677  0.1669  0.0859  0.2156
   25loPI   C2A  392   0.363   1.919   9.261 -0.2422  0.3297  0.2419
   25loPI   C3A  393   0.376   1.939   8.811  0.2289 -0.0508 -0.0699
   25loPI   C4A  394   0.434   1.901   8.364  0.0678  0.0546  0.3929
   25loPI   C5A  395   0.638   1.930   7.855 -0.0633 -0.1529  0.3200
   25loPI   C6A  396   0.434   1.961   7.431 -0.1163 -0.0288  0.0501
   25loPI   C1B  397   0.195   1.473   9.523 -0.3616 -0.3138  0.0318
   25loPI   C2B  398   0.165   1.432   9.096 -0.1709  0.0563 -0.2997
   25loPI   C3B  399   0.056   1.387   8.613  0.0110 -0.3028  0.0315
   25loPI   C4B  400   0.146   1.428   8.106 -0.0014  0.0963  0.1041
   26loPI    C1  401  10.030  14.498   9.843 -0.1574  0.0060  0.1461
   26loPI    C2  402  10.419  14.537   9.925 -0.1334 -0.3965  0.2400
   26loPI    C3  403  10.147  14.709  10.163 -0.0157 -0.1141  0.1742
   26loPI   PO4  404   9.996  14.471   9.631 -0.2964 -0.0978  0.0362
   26loPI   GL1  405   9.937  14.318   9.301  0.0826 -0.1698 -0.0347
   26loPI   GL2  406   9.987  14.437   9.010 -0.1418 -0.2056  0.2477
   26loPI   C1A  407   9.573  14.152   8.905  0.1357  0.1786  0.0794
   26loPI   C2A  408   9.588  14.269   8.499  0.0878 -0.1448 -0.2560
   26loPI   C3A  409   9.786  14.557   8.148 -0.2024 -0.5016 -0.2872
   26loPI   C4A  410   9.641  14.594   7.715  0.0762 -0.0350  0.1132
   26loPI   C5A  411   9.352  14.607   7.449 -0.1081 -0.0805  0.0482
   26loPI   C6A  412   9.079  14.652   7.051 -0.0267 -0.0970  0.4183
   26loPI   C1B  413  10.076  14.555   8.605  0.0034  0.1075 -0.2265
   26loPI   C2B  414  10.381  14.460   8.408  0.3377  0.4593 -0.2987
   26loPI   C3B  415  10.532  14.329   8.063  0.2128  0.0814 -0.2155
   26loPI   C4B  416  10.566  14.446   7.605 -0.3606 -0.0130  0.2460
   27loPI    C1  417   3.170  15.728  10.231  0.0465 -0.2574  0.1117
   27loPI    C2  418   3.437  15.668  10.523 -0.0911 -0.1188  0.2690
   27loPI    C3  419   3.050  15.715  10.613 -0.0996  0.1844  0.0871
   27loPI   PO4  420   3.396  16.010  10.085  0.1311  0.2327  0.2253
   27loPI   GL1  421   3.417  16.275   9.695 -0.3735  0.1194  0.2036
   27loPI   GL2  422   3.116  16.279   9.473 -0.1236 -0.1682 -0.2064
   27loPI   C1A  423   3.735  16.306   9.376  0.3008  0.4676  0.0297
   27loPI   C2A  424   3.628  16.290   8.908  0.1013  0.1642 -0.0126
   27loPI   C3A  425   3.625  16.284   8.516  0.0109  0.2334  0.0571
   27loPI   C4A  426   3.658  16.300   8.133  0.0658  0.0291  0.2273
   27loPI   C5A  427   3.658  16.267   7.737 -0.0177  0.3955  0.1191
   27loPI   C6A  428   3.775  16.103   7.314 -0.2203 -0.1340 -0.2739
   27loPI   C1B  429   3.064  16.220   9.070 -0.3217 -0.2469 -0.2822
   27loPI   C2B  430   3.010  16.321   8.700 -0.0829 -0.0766  0.1921
   27loPI   C3B  431   3.167  16.234   8.270  0.0596 -0.0964 -0.1311
   27loPI   C4B  432   3.037  16.172   7.825  0.2148 -0.2333 -0.3899
   28loPI    C1  433  15.093   5.866  10.452  0.3211  0.1667 -0.1802
   28loPI    C2  434  14.944   6.049  10.776 -0.0769 -0.2310 -0.1283
   28loPI    C3  435  15.313   5.894  10.785  0.1397  0.2695 -0.0673
   28loPI   PO4  436  15.138   6.129  10.192  0.2955  0.1272 -0.1784
   28loPI   GL1  437  15.311   6.065   9.896  0.1508  0.0811 -0.0891
   28loPI   GL2  438  15.467   5.785   9.890  0.2559  0.0073  0.1680
   28loPI   C1A  439  15.236   6.241   9.419 -0.5539  0.1203  0.3433
   28loPI   C2A  440  15.448   6.256   9.035 -0.3462 -0.0149  0.3502
   28loPI   C3A  441  15.443   6.245   8.562  0.1528  0.1558 -0.0610
   28loPI   C4A  442  15.376   6.140   8.034 -0.0693  0.0749 -0.2763
   28loPI   C5A  443  15.489   6.422   7.755 -0.1186  0.2805 -0.4450
   28loPI   C6A  444  15.923   6.718   7.668  0.0044  0.0039 -0.2961
   28loPI   C1B  445  15.555   5.892   9.492  0.1597  0.0160  0.1812
   28loPI   C2B  446  15.677   5.828   9.033 -0.3317 -0.3841 -0.5082
   28loPI   C3B  447  15.641   5.752   8.598 -0.2264 -0.0108 -0.1171
   28loPI   C4B  448  15.668   5.802   8.191  0.0874 -0.1640 -0.1455
   29loPI    C1  449   2.353  15.968  10.255  0.0480  0.1964  0.1392
   29loPI    C2  450   2.533  15.909  10.607  0.0993  0.0005  0.0816
   29loPI    C3  451   2.367  16.264  10.524  0.0898  0.0491  0.3009
   29loPI   PO4  452   2.605  15.904  10.081 -0.1971 -0.5356  0.0214
   29loPI   GL1  453   2.922  15.661   9.762 -0.3206 -0.0622 -0.1445
   29loPI   GL2  454   3.213  15.742   9.671 -0.0673  0.3187 -0.0734
   29loPI   C1A  455   2.882  15.820   9.275 -0.1329 -0.0361  0.0463
   29loPI   C2A  456   2.806  15.891   8.789 -0.0966 -0.1684  0.3113
   29loPI   C3A  457   2.858  15.861   8.341  0.0542 -0.0510 -0.2590
   29loPI   C4A  458   2.801  15.774   7.863  0.1179  0.2855 -0.3986
   29loPI   C5A  459   2.672  15.567   7.437 -0.2286  0.3847 -0.0100
   29loPI   C6A  460   2.603  15.217   7.242 -0.3013 -0.0201  0.0071
   29loPI   C1B  461   3.416  15.895   9.302 -0.0079  0.0911 -0.2664
   29loPI   C2B  462   3.359  15.881   8.823  0.2123 -0.2368  0.3942
   29loPI   C3B  463   3.523  15.836   8.323  0.0278  0.0324  0.1574
   29loPI   C4B  464   3.341  15.812   7.940 -0.1863  0.1668  0.2526
   30loPI    C1  465   2.992   5.026  10.267  0.1983 -0.0555 -0.1361
   30loPI    C2  466   3.164   5.131  10.612  0.1112  0.0909 -0.1364
   30loPI    C3  467   3.052   4.752  10.552 -0.0105  0.0948  0.0556
   30loPI   PO4  468   3.104   5.158  10.098 -0.0706  0.0916 -0.1472
   30loPI   GL1  469   3.227   5.036   9.663 -0.1018 -0.2959  0.1424
   30loPI   GL2  470   3.027   5.211   9.512 -0.0440 -0.0594 -0.2225
   30loPI   C1A  471   3.423   4.890   9.274  0.2478 -0.1499  0.1066
   30loPI   C2A  472   3.450   4.780   8.886 -0.2564 -0.1210 -0.1982
   30loPI   C3A  473   3.418   4.708   8.474  0.0913  0.0458  0.4326
   30loPI   C4A  474   3.448   4.788   8.034  0.0043 -0.3504  0.0285
   30loPI   C5A  475   3.447   4.966   7.633  0.1348 -0.4449 -0.2528
   30loPI   C6A  476   3.580   5.166   7.166 -0.1326 -0.2992  0.2440
   30loPI   C1B  477   3.155   5.261   9.144 -0.0146  0.0115 -0.1119
   30loPI   C2B  478   3.141   5.151   8.714  0.0835 -0.0243 -0.0274
   30loPI   C3B  479   3.110   5.151   8.298 -0.6617  0.0971 -0.1150
   30loPI   C4B  480   3.043   5.229   7.899  0.0622  0.0415 -0.0872
   31loPI    C1  481   5.797  18.057   9.751 -0.2648  0.0148  0.2166
   31loPI    C2  482   6.020  18.338   9.927 -0.1292  0.1058 -0.0930
   31loPI    C3  483   6.008  17.969  10.079  0.2812  0.0835 -0.1033
   31loPI   PO4  484   5.651  18.245   9.553  0.0729  0.0252 -0.0268
   31loPI   GL1  485   5.645  18.336   9.152 -0.2181 -0.1955  0.3808
   31loPI   GL2  486   5.498  18.693   9.241 -0.0269  0.2583  0.0266
   31loPI   C1A  487   5.740  18.366   8.736  0.1437 -0.1878 -0.1940
   31loPI   C2A  488   5.685  18.303   8.216 -0.2262 -0.0488 -0.0182
   31loPI   C3A  489   5.596  18.327   7.750  0.1487  0.0133 -0.2481
   31loPI   C4A  490   5.668  18.455   7.310 -0.3020  0.2880  0.0711
   31loPI   C5A  491   5.609  18.418   6.895 -0.1973 -0.0448 -0.0134
   31loPI   C6A  492   5.626  18.298   6.514 -0.1813  0.1351 -0.1177
   31loPI   C1B  493   5.405  18.700   8.862 -0.1100 -0.1225  0.2983
   31loPI   C2B  494   5.488  18.695   8.459  0.1896 -0.3133  0.1922
   31loPI   C3B  495   5.378  18.716   8.015 -0.0066  0.3940 -0.1746
   31loPI   C4B  496   5.276  18.651   7.547  0.0050  0.0846  0.3172
   32loPI    C1  497   6.232  10.449   9.973 -0.0389  0.1454 -0.0300
   32loPI    C2  498   6.213  10.841   9.893  0.0822  0.1600  0.0098
   32loPI    C3  499   6.337  10.716  10.252  0.1167  0.0837 -0.0285
   32loPI   PO4  500   6.403  10.339   9.820 -0.4344  0.0388  0.1187
   32loPI   GL1  501   6.450  10.625   9.504 -0.2184 -0.0568  0.0101
   32loPI   GL2  502   6.460  10.941   9.470 -0.1588 -0.0448 -0.0408
   32loPI   C1A  503   6.147  10.470   9.167  0.2314 -0.0525  0.0855
   32loPI   C2A  504   6.200  10.528   8.813 -0.0544 -0.1037  0.1011
   32loPI   C3A  505   6.285  10.507   8.307 -0.0349 -0.4718 -0.1874
   32loPI   C4A  506   6.098  10.326   7.922  0.0097  0.0632 -0.2339
   32loPI   C5A  507   5.922  10.311   7.555 -0.3483  0.1570  0.0658
   32loPI   C6A  508   6.200  10.323   7.357  0.2495 -0.2569  0.0630
   32loPI   C1B  509   6.517  10.928   9.092  0.1371 -0.1598  0.1225
   32loPI   C2B  510   6.509  10.865   8.633 -0.3479 -0.3835  0.1610
   32loPI   C3B  511   6.565  10.870   8.186  0.0146 -0.2569 -0.2705
   32loPI   C4B  512   6.292  10.793   7.852  0.1924 -0.0271  0.1023
   33loPI    C1  513  14.425  12.188  10.886 -0.0936 -0.2172  0.0091
   33loPI    C2  514  14.526  11.980  11.212 -0.2483 -0.3051  0.0020
   33loPI    C3  515  14.673  12.348  11.156 -0.0592 -0.3690  0.0684
   33loPI   PO4  516  14.344  12.163  10.674 -0.1858  0.0408  0.2602
   33loPI   GL1  517  14.305  11.909  10.292  0.0410 -0.0998 -0.0653
   33loPI   GL2  518  14.206  11.683  10.126 -0.2674  0.0388 -0.0596
   33loPI   C1A  519  14.377  12.122   9.875  0.1364 -0.1717  0.0359
   33loPI   C2A  520  14.243  12.349   9.435 -0.0475  0.2601 -0.0377
   33loPI   C3A  521  14.411  12.320   9.093  0.0429  0.1277  0.3867
   33loPI   C4A  522  14.329  12.227   8.666  0.5058  0.4909  0.1513
   33loPI   C5A  523  14.388  12.273   8.214 -0.0893 -0.2281 -0.1582
   33loPI   C6A  524  14.586  12.015   7.907  0.0179 -0.0354 -0.0578
   33loPI   C1B  525  14.064  11.712   9.683  0.1704  0.3800  0.1878
   33loPI   C2B  526  14.044  11.888   9.355  0.0722 -0.0586  0.2467
   33loPI   C3B  527  14.079  11.827   9.009  0.2357  0.1122  0.0945
   33loPI   C4B  528  14.066  11.715   8.590  0.0751  0.2804  0.0656
   34loPI    C1  529  15.885  10.243  10.754  0.0293 -0.1200  0.1922
   34loPI    C2  530  15.585  10.506  10.785 -0.0711 -0.1923 -0.1273
   34loPI    C3  531  15.718  10.314  11.110 -0.0717  0.1675  0.0904
   34loPI   PO4  532  16.063  10.305  10.716  0.4420  0.1902  0.1311
   34loPI   GL1  533  16.316  10.272  10.375 -0.0885  0.1086  0.0412
   34loPI   GL2  534  16.460  10.510  10.368 -0.0620 -0.2392  0.1640
   34loPI   C1A  535  16.125  10.019   9.976 -0.3429 -0.2637 -0.0318
   34loPI   C2A  536  16.193  10.045   9.597 -0.0426  0.0186  0.4571
   34loPI   C3A  537  16.148  10.043   9.167 -0.0150 -0.1399  0.1286
   34loPI   C4A  538  16.150  10.140   8.617 -0.0306 -0.3132 -0.2504
   34loPI   C5A  539  16.390  10.082   8.253  0.0003  0.0304 -0.0196
   34loPI   C6A  540  16.600  10.335   8.020  0.1517  0.0615 -0.1115
   34loPI   C1B  541  16.816  10.614  10.106 -0.2004  0.1780 -0.0914
   34loPI   C2B  542  16.951  10.590   9.682  0.1008 -0.0910 -0.0272
   34loPI   C3B  543  16.963  10.583   9.227 -0.1761  0.1744  0.0884
   34loPI   C4B  544  16.940  10.495   8.842 -0.1332 -0.0136  0.1390
   35loPI    C1  545   9.427  11.806   9.659  0.2813 -0.2790 -0.1905
   35loPI    C2  546   9.749  11.667   9.851  0.1156 -0.3555  0.0361
   35loPI    C3  547   9.382  11.583   9.988  0.0057  0.1585  0.0804
   35loPI   PO4  548   9.527  11.781   9.308  0.1761 -0.0454  0.1047
   35loPI   GL1  549   9.508  11.594   8.981  0.0410  0.0052  0.0721
   35loPI   GL2  550   9.190  11.571   8.712  0.3245 -0.0476 -0.2736
   35loPI   C1A  551   9.795  11.344   8.670  0.2449 -0.1989 -0.1101
   35loPI   C2A  552   9.835  10.923   8.503  0.0206  0.3509  0.1456
   35loPI   C3A  553   9.933  10.450   8.442 -0.4251 -0.1302  0.1216
   35loPI   C4A  554   9.727  10.058   8.131 -0.0671 -0.3084  0.1622
   35loPI   C5A  555   9.575  10.098   7.684 -0.2006  0.3191 -0.0914
   35loPI   C6A  556   9.542   9.962   7.332  0.3080  0.0487  0.0862
   35loPI   C1B  557   9.470  11.741   8.457  0.2023 -0.1350 -0.0961
   35loPI   C2B  558   9.673  11.623   8.103 -0.0275 -0.0247  0.0966
   35loPI   C3B  559   9.792  11.574   7.715 -0.1211  0.0357  0.1710
   35loPI   C4B  560   9.678  11.575   7.359  0.1096  0.1676 -0.2755
   36loPI    C1  561   7.957  16.366   9.577  0.1528  0.1941  0.0133
   36loPI    C2  562   7.974  16.576   9.917  0.3857  0.0155  0.1152
   36loPI    C3  563   7.766  16.234   9.903  0.1054  0.1876 -0.0171
   36loPI   PO4  564   7.843  16.529   9.446  0.0602  0.0577 -0.1192
   36loPI   GL1  565   7.756  16.663   9.084 -0.3046 -0.2541 -0.1370
   36loPI   GL2  566   8.030  16.800   9.041 -0.0308 -0.4682 -0.0705
   36loPI   C1A  567   7.573  16.743   8.646 -0.0651 -0.1502  0.1828
   36loPI   C2A  568   7.671  16.710   8.211 -0.2405  0.0749  0.2406
   36loPI   C3A  569   7.620  16.900   7.839  0.2399  0.0959 -0.1468
   36loPI   C4A  570   7.351  17.010   7.429  0.0142 -0.2716 -0.0821
   36loPI   C5A  571   6.895  16.853   7.368 -0.0441  0.0213 -0.4549
   36loPI   C6A  572   6.670  16.720   6.999 -0.2548 -0.1057 -0.2082
   36loPI   C1B  573   8.129  16.809   8.667 -0.3001  0.0805 -0.1584
   36loPI   C2B  574   8.237  16.865   8.260 -0.2470  0.3038 -0.2989
   36loPI   C3B  575   8.121  16.784   7.864  0.1619 -0.0590  0.1495
   36loPI   C4B  576   7.919  17.020   7.497  0.1742 -0.2487 -0.1518
   37loPI    C1  577  17.524  16.990  10.497  0.2875  0.0436  0.0275
   37loPI    C2  578  17.706  16.681  10.674  0.1718 -0.0423 -0.0028
   37loPI    C3  579  17.730  17.046  10.836  0.0851 -0.1161  0.1796
   37loPI   PO4  580  17.540  16.920  10.265  0.0211 -0.0784  0.2564
   37loPI   GL1  581  17.338  16.757   9.868  0.3090 -0.4497  0.0132
   37loPI   GL2  582  17.514  16.559   9.855  0.2041  0.2665 -0.6167
   37loPI   C1A  583  17.370  16.740   9.396 -0.2014  0.3024 -0.1442
   37loPI   C2A  584  17.237  16.897   9.024  0.2062  0.0956 -0.2085
   37loPI   C3A  585  17.256  16.904   8.643 -0.0990 -0.0418 -0.0556
   37loPI   C4A  586  17.329  16.944   8.208  0.0051 -0.0853 -0.0159
   37loPI   C5A  587  17.713  16.879   7.892 -0.3753 -0.1306  0.3581
   37loPI   C6A  588  17.656  16.775   7.446  0.0399 -0.1293  0.0205
   37loPI   C1B  589  17.653  16.391   9.428  0.3915 -0.0382 -0.1123
   37loPI   C2B  590  17.523  16.421   8.981 -0.3168  0.1455 -0.0050
   37loPI   C3B  591  17.471  16.453   8.602 -0.2334  0.1734  0.1379
   37loPI   C4B  592  17.502  16.429   8.212 -0.0474  0.1053  0.0624
   38loPI    C1  593  10.238  11.309   9.863  0.1549  0.1175 -0.0276
   38loPI    C2  594  10.177  11.028  10.141  0.0581  0.1542 -0.0111
   38loPI    C3  595  10.083  11.409  10.218 -0.0391  0.1530 -0.1206
   38loPI   PO4  596  10.215  11.214   9.542  0.2088  0.0523  0.2388
   38loPI   GL1  597   9.972  11.155   9.098  0.0377  0.0782  0.2151
   38loPI   GL2  598  10.307  11.367   9.047  0.2156  0.0471  0.1322
   38loPI   C1A  599  10.166  10.966   8.843  0.1837 -0.0760 -0.1749
   38loPI   C2A  600  10.307  10.921   8.296  0.2050  0.2947  0.0198
   38loPI   C3A  601  10.631  10.971   8.007 -0.1318 -0.0357 -0.2171
   38loPI   C4A  602  10.610  11.067   7.635 -0.2608  0.0312  0.3062
   38loPI   C5A  603  10.638  11.184   7.315 -0.1102 -0.2006 -0.0666
   38loPI   C6A  604  10.442  11.425   7.044 -0.0096  0.2808 -0.0878
   38loPI   C1B  605  10.386  11.557   8.748 -0.0094 -0.2137  0.1219
   38loPI   C2B  606  10.391  11.607   8.385 -0.1257  0.1852 -0.1662
   38loPI   C3B  607  10.292  11.354   7.984 -0.0565 -0.0830 -0.2305
   38loPI   C4B  608  10.195  11.351   7.509 -0.2595 -0.0017  0.1773
   39loPI    C1  609   9.609   8.548  10.144  0.0011 -0.2125 -0.0856
   39loPI    C2  610   9.260   8.411  10.283 -0.0498  0.0096  0.0096
   39loPI    C3  611   9.403   8.762  10.412  0.1449 -0.0174 -0.1283
   39loPI   PO4  612   9.534   8.466   9.857 -0.0618 -0.4654  0.0817
   39loPI   GL1  613   9.270   8.261   9.602 -0.0951 -0.1835 -0.0506
   39loPI   GL2  614   8.982   8.251   9.665  0.1593  0.1020 -0.1787
   39loPI   C1A  615   9.189   8.404   9.161  0.0163  0.1484 -0.0560
   39loPI   C2A  616   9.174   8.382   8.799 -0.0485  0.0105 -0.3861
   39loPI   C3A  617   9.286   8.310   8.330  0.1476 -0.2200  0.0662
   39loPI   C4A  618   9.170   8.306   7.916  0.5570 -0.1312  0.1248
   39loPI   C5A  619   8.999   8.184   7.539 -0.0910  0.0435 -0.0145
   39loPI   C6A  620   8.978   7.897   7.172  0.1068  0.3319 -0.0524
   39loPI   C1B  621   8.665   8.264   9.311  0.1502 -0.0298  0.0497
   39loPI   C2B  622   8.679   8.306   8.877  0.1919  0.1051  0.1877
   39loPI   C3B  623   8.732   8.208   8.346 -0.1097 -0.2640 -0.1194
   39loPI   C4B  624   8.692   8.168   7.933 -0.2451  0.0824  0.0058
   40loPI    C1  625  13.249   8.693  10.454 -0.1791  0.0192 -0.1979
   40loPI    C2  626  13.520   8.588  10.729 -0.1054  0.1001 -0.2393
   40loPI    C3  627  13.267   8.889  10.802 -0.0226  0.1843 -0.2973
   40loPI   PO4  628  13.361   8.709  10.265  0.0816  0.0583  0.0634
   40loPI   GL1  629  13.517   8.576   9.839 -0.2914  0.1503 -0.1434
   40loPI   GL2  630  13.841   8.663   9.929  0.2341 -0.0372  0.2231
   40loPI   C1A  631  13.790   8.539   9.475 -0.2248 -0.0917  0.1273
   40loPI   C2A  632  13.830   8.563   8.996  0.4432 -0.1269 -0.1167
   40loPI   C3A  633  13.976   8.537   8.580 -0.0758 -0.3903  0.0124
   40loPI   C4A  634  14.011   8.758   8.210  0.2640  0.1855 -0.0509
   40loPI   C5A  635  13.658   8.802   7.982 -0.0238 -0.0334  0.1471
   40loPI   C6A  636  13.640   8.850   7.483 -0.0552 -0.0589 -0.1287
   40loPI   C1B  637  14.153   8.925   9.716 -0.0660 -0.0169  0.1291
   40loPI   C2B  638  14.158   9.049   9.353 -0.1813  0.0953  0.5075
   40loPI   C3B  639  14.129   9.152   8.987  0.0382  0.4204  0.0756
   40loPI   C4B  640  14.129   9.027   8.616 -0.2115  0.0318 -0.1799
   41loPI    C1  641   1.670   5.906  10.952 -0.0848 -0.2821  0.0419
   41loPI    C2  642   1.368   5.872  11.212 -0.0423 -0.0755  0.1204
   41loPI    C3  643   1.701   5.656  11.262 -0.1543 -0.2636  0.0641
   41loPI   PO4  644   1.523   5.871  10.744 -0.2321  0.0685 -0.1178
   41loPI   GL1  645   1.554   6.074  10.281 -0.2409  0.2337 -0.1734
   41loPI   GL2  646   1.151   6.208  10.365 -0.1639 -0.3486  0.0547
   41loPI   C1A  647   1.500   6.105   9.834 -0.2120  0.0746  0.0533
   41loPI   C2A  648   1.511   5.972   9.521  0.1332 -0.0415  0.0500
   41loPI   C3A  649   1.497   6.070   9.022 -0.2573 -0.0681  0.0229
   41loPI   C4A  650   1.534   6.041   8.510  0.1670  0.1713 -0.3274
   41loPI   C5A  651   1.528   5.933   8.079  0.1773 -0.0945  0.2338
   41loPI   C6A  652   1.842   5.828   7.866 -0.0445 -0.0101 -0.3840
   41loPI   C1B  653   0.969   6.096   9.953 -0.3097  0.0099 -0.2994
   41loPI   C2B  654   1.010   5.971   9.595  0.4301  0.2108 -0.3589
   41loPI   C3B  655   1.024   6.023   9.156  0.2442 -0.1905 -0.2383
   41loPI   C4B  656   1.056   6.105   8.744  0.0814 -0.0873 -0.1669
   42loPI    C1  657   8.064  14.918  10.015 -0.0440  0.1341 -0.1123
   42loPI    C2  658   8.355  14.780  10.253 -0.1461 -0.0819 -0.1104
   42loPI    C3  659   8.067  15.014  10.404  0.1016  0.2502 -0.1412
   42loPI   PO4  660   8.192  14.943   9.798  0.1846  0.0184  0.1743
   42loPI   GL1  661   8.070  14.984   9.365 -0.2593  0.0383 -0.2298
   42loPI   GL2  662   8.404  14.896   9.365  0.0010  0.3179  0.1680
   42loPI   C1A  663   7.989  14.929   9.046 -0.1033 -0.2256  0.0804
   42loPI   C2A  664   8.050  14.916   8.620  0.2902  0.2594 -0.0066
   42loPI   C3A  665   7.902  14.889   8.233 -0.3640 -0.0689 -0.0159
   42loPI   C4A  666   7.774  14.978   7.745 -0.3554  0.1903 -0.0943
   42loPI   C5A  667   7.550  15.251   7.498 -0.0417 -0.1290  0.1353
   42loPI   C6A  668   7.480  15.663   7.403  0.3357 -0.0317  0.3532
   42loPI   C1B  669   8.769  14.802   9.349 -0.3593 -0.1723  0.1351
   42loPI   C2B  670   8.794  14.635   9.033  0.1347  0.1995  0.4155
   42loPI   C3B  671   8.642  14.595   8.741  0.0141 -0.0736 -0.0877
   42loPI   C4B  672   8.578  14.538   8.345 -0.2528  0.1961 -0.1089
   43loPI    C1  673  10.346   2.007  10.247  0.1341  0.0727 -0.1573
   43loPI    C2  674  10.162   2.317  10.419 -0.0491 -0.0082 -0.2057
   43loPI    C3  675  10.543   2.237  10.509 -0.2029 -0.1758  0.3287
   43loPI   PO4  676  10.332   1.999   9.983  0.3849 -0.0694 -0.3398
   43loPI   GL1  677  10.482   2.227   9.629 -0.1415 -0.1068 -0.2112
   43loPI   GL2  678  10.811   2.283   9.636 -0.2950 -0.2603 -0.1165
   43loPI   C1A  679  10.258   2.300   9.237 -0.2022  0.2140  0.1503
   43loPI   C2A  680  10.245   2.374   8.795 -0.0284 -0.1007 -0.2409
   43loPI   C3A  681  10.343   2.340   8.374 -0.0109 -0.0247 -0.0259
   43loPI   C4A  682  10.325   2.413   7.957  0.2048  0.1664 -0.0091
   43loPI   C5A  683  10.433   2.542   7.535 -0.1929  0.0307 -0.1536
   43loPI   C6A  684  10.689   2.343   7.304 -0.1054 -0.0470  0.2298
   43loPI   C1B  685  10.827   2.290   9.170 -0.1344 -0.5186 -0.0265
   43loPI   C2B  686  10.851   2.310   8.682 -0.1747 -0.2714  0.0481
   43loPI   C3B  687  10.837   2.381   8.212  0.1698  0.0672  0.2174
   43loPI   C4B  688  10.927   2.455   7.751  0.2211 -0.0840 -0.0776
   44loPI    C1  689   8.801  12.034   9.522 -0.1783 -0.1557  0.3096
   44loPI    C2  690   9.044  12.098   9.833 -0.0515  0.0700  0.1669
   44loPI    C3  691   8.649  12.077   9.889 -0.0229  0.0185  0.3554
   44loPI   PO4  692   8.844  12.184   9.308 -0.2290  0.1871 -0.0656
   44loPI   GL1  693   8.672  12.294   9.025 -0.3008 -0.0243  0.3539
   44loPI   GL2  694   8.385  12.094   9.133 -0.1025  0.0000  0.0138
   44loPI   C1A  695   8.428  12.241   8.631 -0.3608  0.0182  0.0603
   44loPI   C2A  696   8.225  12.322   8.191  0.1071 -0.1701 -0.1663
   44loPI   C3A  697   8.191  12.415   7.740  0.1168  0.1477 -0.1885
   44loPI   C4A  698   8.157  12.663   7.360 -0.0063  0.0632 -0.0523
   44loPI   C5A  699   8.158  12.761   6.911  0.0739  0.2044 -0.0112
   44loPI   C6A  700   7.855  13.030   6.795  0.1225  0.1321 -0.0392
   44loPI   C1B  701   8.234  11.784   8.732 -0.0746 -0.1468 -0.0831
   44loPI   C2B  702   8.171  11.832   8.302  0.1060  0.0435  0.0636
   44loPI   C3B  703   8.501  11.900   8.081 -0.0450 -0.0095  0.0231
   44loPI   C4B  704   8.737  11.999   7.745 -0.1635  0.1262 -0.0073
   45loPI    C1  705  11.047  10.827  10.062  0.2680  0.0008  0.0626
   45loPI    C2  706  10.990  11.173   9.870  0.1337  0.0041  0.1072
   45loPI    C3  707  11.027  11.169  10.268  0.2736 -0.0181  0.0946
   45loPI   PO4  708  11.387  10.689   9.942 -0.4177  0.0622  0.1830
   45loPI   GL1  709  11.521  10.611   9.547 -0.2297 -0.1993  0.1565
   45loPI   GL2  710  11.818  10.710   9.489 -0.3649  0.0701  0.2586
   45loPI   C1A  711  11.508  10.772   9.111  0.3630  0.0851 -0.2868
   45loPI   C2A  712  11.550  10.727   8.819 -0.1021  0.1058 -0.1168
   45loPI   C3A  713  11.549  10.770   8.428 -0.1056 -0.2991 -0.2714
   45loPI   C4A  714  11.688  10.647   7.999 -0.2161  0.0793 -0.1361
   45loPI   C5A  715  11.740  10.810   7.572  0.0645 -0.2151  0.2115
   45loPI   C6A  716  11.440  10.969   7.175  0.0488  0.3394  0.3030
   45loPI   C1B  717  12.015  10.729   9.132 -0.1847 -0.0453  0.2273
   45loPI   C2B  718  12.107  10.760   8.738  0.0851  0.1985 -0.2480
   45loPI   C3B  719  12.065  10.715   8.264 -0.1804  0.0552 -0.0422
   45loPI   C4B  720  12.176  10.889   7.870  0.1190  0.0271  0.2646
   46loPI    C1  721   3.906   5.753  10.656  0.0402  0.2868  0.0529
   46loPI    C2  722   3.804   6.112  10.801  0.0289  0.1220  0.4682
   46loPI    C3  723   3.818   5.795  11.044  0.1804 -0.1333  0.1352
   46loPI   PO4  724   3.792   5.776  10.425 -0.2179 -0.0598  0.1362
   46loPI   GL1  725   3.693   5.791   9.989 -0.1885 -0.0793 -0.1486
   46loPI   GL2  726   3.698   6.201   9.949  0.2573 -0.0734  0.2535
   46loPI   C1A  727   3.930   5.723   9.591 -0.0983  0.1895 -0.2980
   46loPI   C2A  728   3.867   5.821   9.097 -0.2674  0.0901 -0.1834
   46loPI   C3A  729   3.887   5.753   8.587 -0.1926  0.0829 -0.0703
   46loPI   C4A  730   3.928   5.668   8.206  0.1209 -0.2687 -0.2517
   46loPI   C5A  731   3.975   5.771   7.714  0.2685 -0.1969 -0.0067
   46loPI   C6A  732   4.169   5.647   7.437  0.0708  0.2341  0.1773
   46loPI   C1B  733   3.636   6.149   9.541  0.2062  0.2231  0.0214
   46loPI   C2B  734   3.547   6.196   9.212 -0.0339  0.1965 -0.0656
   46loPI   C3B  735   3.628   6.154   8.827 -0.0983  0.0608 -0.2018
   46loPI   C4B  736   3.456   6.109   8.428  0.4590  0.1671  0.0662
   47loPI    C1  737   9.465   0.173  10.343  0.0466  0.0744 -0.1215
   47loPI    C2  738   9.661   0.286  10.673  0.0280 -0.1013 -0.0490
   47loPI    C3  739   9.273   0.192  10.694  0.0159 -0.0704 -0.1299
   47loPI   PO4  740   9.536   0.243  10.087  0.2478 -0.0105  0.2946
   47loPI   GL1  741   9.449   0.551   9.659  0.0204  0.0971  0.2147
   47loPI   GL2  742   9.204   0.479   9.768 -0.4357  0.2821  0.1112
   47loPI   C1A  743   9.463   0.814   9.253  0.2605 -0.2876 -0.4636
   47loPI   C2A  744   9.484   0.965   8.910  0.0781 -0.1308  0.0091
   47loPI   C3A  745   9.521   0.883   8.449 -0.1288 -0.0442  0.2083
   47loPI   C4A  746   9.571   1.039   8.066  0.2798 -0.1686 -0.0591
   47loPI   C5A  747   9.680   0.989   7.667  0.2231  0.1224  0.0764
   47loPI   C6A  748   9.413   0.759   7.436 -0.1389 -0.1258  0.0022
   47loPI   C1B  749   9.234   0.389   9.231  0.1605  0.2008 -0.0052
   47loPI   C2B  750   9.255   0.437   8.801  0.2410 -0.3166 -0.0607
   47loPI   C3B  751   9.332   0.402   8.369  0.1967 -0.0239 -0.2200
   47loPI   C4B  752   9.337   0.604   7.944  0.3584  0.2019 -0.1592
   48loPI    C1  753  11.894  11.320  10.147 -0.1011 -0.0140 -0.1544
   48loPI    C2  754  11.535  11.143  10.143 -0.0553 -0.1330  0.3535
   48loPI    C3  755  11.578  11.506  10.307  0.0021  0.0154  0.0181
   48loPI   PO4  756  11.988  11.346   9.910  0.2461 -0.3974 -0.1979
   48loPI   GL1  757  12.052  11.140   9.547  0.0342 -0.1903  0.1583
   48loPI   GL2  758  12.372  11.345   9.570 -0.0329 -0.0964 -0.4034
   48loPI   C1A  759  12.257  11.251   9.127 -0.1525 -0.2398  0.5116
   48loPI   C2A  760  12.405  11.174   8.578 -0.1618  0.2880  0.1362
   48loPI   C3A  761  12.334  11.325   8.142  0.2634 -0.2301 -0.1148
   48loPI   C4A  762  12.442  11.290   7.727  0.3065 -0.0303 -0.0318
   48loPI   C5A  763  12.628  11.343   7.356 -0.2005 -0.1941  0.0685
   48loPI   C6A  764  12.457  11.345   6.983  0.2107 -0.4772 -0.0378
   48loPI   C1B  765  12.738  11.342   9.269  0.0578 -0.0838 -0.2398
   48loPI   C2B  766  12.790  11.255   8.791 -0.5100  0.2749  0.1287
   48loPI   C3B  767  12.850  11.339   8.283  0.0329 -0.0431  0.1985
   48loPI   C4B  768  12.769  11.677   7.824 -0.0770 -0.1394  0.0513
   49loPI    C1  769  13.851   7.974  10.300  0.0692  0.1222  0.1041
   49loPI    C2  770  13.745   8.359  10.322 -0.1523  0.0519  0.3104
   49loPI    C3  771  14.013   8.211  10.579 -0.0003  0.0877  0.1741
   49loPI   PO4  772  13.608   7.778  10.267 -0.1522  0.0082  0.1584
   49loPI   GL1  773  13.814   7.602   9.904 -0.1111  0.2067  0.0965
   49loPI   GL2  774  14.138   7.615   9.993  0.0545 -0.1883 -0.0063
   49loPI   C1A  775  13.887   7.519   9.436 -0.1130  0.0538 -0.1181
   49loPI   C2A  776  13.925   7.675   9.053 -0.2916 -0.1433 -0.2231
   49loPI   C3A  777  14.061   7.610   8.712 -0.2042 -0.3594  0.4998
   49loPI   C4A  778  13.963   7.718   8.369  0.0572 -0.3204  0.2507
   49loPI   C5A  779  14.054   7.442   8.032 -0.0573 -0.0295  0.1953
   49loPI   C6A  780  13.869   7.149   7.773  0.0692  0.1804  0.2415
   49loPI   C1B  781  14.301   7.587   9.625 -0.2377 -0.1715  0.2812
   49loPI   C2B  782  14.351   7.768   9.225 -0.0865  0.1314 -0.0256
   49loPI   C3B  783  14.518   7.735   8.799 -0.0841 -0.3349  0.2397
   49loPI   C4B  784  14.476   7.695   8.400  0.1288  0.0309 -0.1065
   50loPI    C1  785   0.378  13.776  10.520 -0.1003 -0.2575 -0.0313
   50loPI    C2  786   0.154  13.635  10.820 -0.0605 -0.0916  0.0782
   50loPI    C3  787   0.274  14.016  10.822  0.1549 -0.1566 -0.0207
   50loPI   PO4  788   0.159  13.635  10.316  0.1387 -0.0681  0.0130
   50loPI   GL1  789   0.159  13.551   9.962 -0.0262 -0.0476  0.0689
   50loPI   GL2  790   0.056  13.285   9.742 -0.0679  0.1053 -0.0879
   50loPI   C1A  791  -0.156  13.779   9.587 -0.1019 -0.1890 -0.1697
   50loPI   C2A  792  -0.160  13.784   9.231  0.0864  0.1246  0.2421
   50loPI   C3A  793  -0.211  13.914   8.875 -0.2437 -0.0558 -0.0444
   50loPI   C4A  794  -0.188  13.886   8.362 -0.0095  0.0792 -0.1462
   50loPI   C5A  795   0.074  14.166   8.059 -0.1482 -0.0522  0.1137
   50loPI   C6A  796   0.033  13.961   7.672 -0.0942  0.0465  0.0670
   50loPI   C1B  797   0.098  13.324   9.336  0.2115  0.0491 -0.2461
   50loPI   C2B  798   0.037  13.427   8.888  0.0908  0.0130  0.1297
   50loPI   C3B  799  -0.002  13.433   8.361 -0.3058 -0.0357 -0.2088
   50loPI   C4B  800  -0.105  13.559   7.959  0.3315  0.1068 -0.3855
   51loPI    C1  801  18.783   2.435  10.675  0.1670  0.0019 -0.2056
   51loPI    C2  802  18.511   2.576  10.932 -0.0799 -0.2765 -0.3089
   51loPI    C3  803  18.875   2.471  11.063  0.0052  0.1575 -0.1804
   51loPI   PO4  804  18.803   2.527  10.498 -0.2653 -0.5012 -0.0180
   51loPI   GL1  805  18.692   2.587  10.098  0.0682 -0.0512 -0.0215
   51loPI   GL2  806  19.016   2.456   9.991 -0.0158  0.0756  0.4277
   51loPI   C1A  807  18.665   2.840   9.740  0.0266 -0.0429 -0.1178
   51loPI   C2A  808  18.645   2.763   9.289  0.3016 -0.0347 -0.1220
   51loPI   C3A  809  18.738   2.811   8.909 -0.1610  0.0409  0.2111
   51loPI   C4A  810  18.743   2.767   8.509  0.0367 -0.3964  0.1823
   51loPI   C5A  811  18.420   2.999   8.117  0.3720  0.2356  0.2064
   51loPI   C6A  812  18.046   2.761   7.792 -0.0550 -0.0380  0.5125
   51loPI   C1B  813  18.886   2.392   9.506  0.0046 -0.1030  0.1094
   51loPI   C2B  814  18.888   2.229   9.036 -0.0482 -0.1434 -0.1779
   51loPI   C3B  815  19.011   2.365   8.652  0.1376  0.1269  0.2261
   51loPI   C4B  816  19.054   2.292   8.231 -0.1987 -0.0669  0.3850
   52loPI    C1  817  11.278   8.769  10.320 -0.0796  0.0444 -0.2782
   52loPI    C2  818  11.508   8.933  10.603 -0.0294  0.0653 -0.3309
   52loPI    C3  819  11.123   9.036  10.574 -0.1364 -0.2262 -0.0222
   52loPI   PO4  820  11.431   8.836  10.108  0.0977 -0.0919  0.1324
   52loPI   GL1  821  11.402   8.719   9.707  0.1031 -0.2203 -0.2388
   52loPI   GL2  822  11.541   8.977   9.419  0.1056 -0.0573  0.2317
   52loPI   C1A  823  11.165   8.468   9.374 -0.4573 -0.2005  0.3046
   52loPI   C2A  824  11.298   8.434   8.923  0.0721 -0.0813 -0.1394
   52loPI   C3A  825  11.324   8.455   8.549 -0.2089  0.1458  0.0452
   52loPI   C4A  826  11.351   8.523   8.164  0.1191  0.0918 -0.0591
   52loPI   C5A  827  11.338   8.522   7.754 -0.2704  0.0345  0.0312
   52loPI   C6A  828  11.255   8.336   7.420  0.0769 -0.1041  0.0426
   52loPI   C1B  829  11.543   8.948   8.935 -0.1380 -0.0509 -0.1171
   52loPI   C2B  830  11.669   8.872   8.445 -0.0493  0.2877 -0.0326
   52loPI   C3B  831  11.543   8.936   8.048 -0.1034 -0.1976 -0.3954
   52loPI   C4B  832  11.662   9.009   7.550  0.2263  0.5200 -0.1494
   53loPI    C1  833   9.303  18.548  10.605  0.0380  0.3422 -0.5104
   53loPI    C2  834   9.685  18.664  10.592  0.2440 -0.2205  0.0223
   53loPI    C3  835   9.485  18.674  10.938 -0.1707 -0.1174 -0.2130
   53loPI   PO4  836   9.261  18.588  10.278  0.1705 -0.1366 -0.5396
   53loPI   GL1  837   9.040  18.720   9.885 -0.2040  0.1968  0.0420
   53loPI   GL2  838   9.322  18.737   9.791 -0.0120  0.2352  0.1157
   53loPI   C1A  839   8.842  18.607   9.501 -0.0512 -0.2876 -0.0718
   53loPI   C2A  840   8.964  18.807   9.135 -0.3879  0.0628 -0.2824
   53loPI   C3A  841   8.966  18.835   8.780 -0.3324 -0.0734 -0.2906
   53loPI   C4A  842   9.078  18.841   8.348 -0.0607 -0.0317  0.1705
   53loPI   C5A  843   9.048  18.955   7.868  0.3883 -0.0760  0.2486
   53loPI   C6A  844   9.405  19.119   7.606  0.2352 -0.0528  0.1736
   53loPI   C1B  845   9.519  18.824   9.359  0.0123 -0.4002  0.2804
   53loPI   C2B  846   9.481  18.828   8.919  0.0767  0.1843 -0.2338
   53loPI   C3B  847   9.558  18.849   8.511 -0.1483 -0.0827 -0.1679
   53loPI   C4B  848   9.552  18.950   8.065  0.1597  0.0308 -0.0623
   54loPI    C1  849   5.046  11.625  10.567 -0.0882 -0.0716 -0.1965
   54loPI    C2  850   5.015  11.248  10.698  0.1585 -0.0588 -0.0952
   54loPI    C3  851   4.854  11.547  10.910  0.1957 -0.0804 -0.0364
   54loPI   PO4  852   4.958  11.517  10.255 -0.1611  0.1191  0.1223
   54loPI   GL1  853   5.065  11.377   9.816 -0.0714 -0.2584 -0.1423
   54loPI   GL2  854   4.706  11.348   9.770 -0.1031  0.1900  0.0515
   54loPI   C1A  855   5.265  11.417   9.419  0.1423  0.3492  0.1027
   54loPI   C2A  856   5.140  11.316   9.020  0.0391 -0.3117 -0.2603
   54loPI   C3A  857   5.147  11.363   8.629  0.0050 -0.0650  0.2398
   54loPI   C4A  858   5.121  11.249   8.247  0.3278  0.0385  0.0167
   54loPI   C5A  859   5.275  11.368   7.840 -0.0435 -0.3535 -0.1758
   54loPI   C6A  860   5.037  11.144   7.534 -0.4541  0.0018  0.0913
   54loPI   C1B  861   4.721  11.266   9.388 -0.1909  0.2538 -0.0522
   54loPI   C2B  862   4.659  11.323   8.941 -0.0074  0.1819  0.0102
   54loPI   C3B  863   4.656  11.371   8.461 -0.2799 -0.0429 -0.0285
   54loPI   C4B  864   4.525  11.217   7.983 -0.1336  0.2639 -0.1793
   55loPI    C1  865  12.673   8.730  10.153 -0.2097 -0.1396  0.0697
   55loPI    C2  866  12.653   8.631  10.540 -0.0496 -0.0248  0.1082
   55loPI    C3  867  12.321   8.736  10.343 -0.1416 -0.1459  0.1971
   55loPI   PO4  868  12.906   8.594  10.089 -0.0481 -0.2957  0.2191
   55loPI   GL1  869  13.039   8.475   9.770  0.2602 -0.4831 -0.2307
   55loPI   GL2  870  12.776   8.524   9.577  0.0452 -0.2175 -0.0060
   55loPI   C1A  871  13.282   8.498   9.426 -0.1085  0.0814 -0.1978
   55loPI   C2A  872  13.283   8.485   8.975  0.0095  0.1787  0.3280
   55loPI   C3A  873  13.432   8.577   8.631 -0.2006 -0.1672  0.0888
   55loPI   C4A  874  13.426   8.483   8.271  0.2159 -0.0065 -0.1058
   55loPI   C5A  875  13.382   8.463   7.842  0.2492 -0.1979 -0.1679
   55loPI   C6A  876  13.207   8.542   7.325 -0.0796 -0.2749  0.0443
   55loPI   C1B  877  12.830   8.486   9.132  0.1140 -0.0379 -0.0012
   55loPI   C2B  878  12.838   8.553   8.765  0.1120  0.0449 -0.0283
   55loPI   C3B  879  12.966   8.425   8.426  0.0430 -0.0475 -0.1148
   55loPI   C4B  880  12.958   8.479   8.068  0.3444 -0.0764  0.3110
   56loPI    C1  881   3.346  14.365  10.046 -0.2730 -0.2578 -0.0376
   56loPI    C2  882   3.095  14.156  10.278 -0.1855 -0.1506  0.1561
   56loPI    C3  883   3.122  14.553  10.319 -0.1398 -0.1356 -0.0112
   56loPI   PO4  884   3.321  14.420   9.716  0.0944  0.1310 -0.1306
   56loPI   GL1  885   3.283  14.564   9.303 -0.1074 -0.2088  0.0271
   56loPI   GL2  886   3.503  14.874   9.451  0.1641 -0.0327  0.1000
   56loPI   C1A  887   3.266  14.481   8.941 -0.2688  0.4284  0.1243
   56loPI   C2A  888   3.204  14.596   8.476  0.1849  0.1660 -0.1799
   56loPI   C3A  889   3.117  14.331   8.179 -0.1648  0.1352 -0.2192
   56loPI   C4A  890   2.956  14.179   7.728 -0.0854 -0.2228 -0.0217
   56loPI   C5A  891   2.869  14.240   7.290 -0.2926 -0.0889 -0.3573
   56loPI   C6A  892   2.488  14.285   7.029  0.1968 -0.1089 -0.0795
   56loPI   C1B  893   3.452  15.010   9.043  0.0154  0.2476 -0.1408
   56loPI   C2B  894   3.433  15.024   8.620  0.1367 -0.0876  0.3302
   56loPI   C3B  895   3.396  14.966   8.201 -0.2408 -0.1786  0.0531
   56loPI   C4B  896   3.426  14.955   7.761 -0.4198  0.2052  0.1969
   57loPI    C1  897   8.495   0.019  10.457  0.0206 -0.1047  0.2368
   57loPI    C2  898   8.814   0.059  10.696  0.1736  0.0221  0.0150
   57loPI    C3  899   8.475   0.254  10.780  0.2506  0.1252  0.0879
   57loPI   PO4  900   8.600  -0.066  10.174  0.3315 -0.0141 -0.0804
   57loPI   GL1  901   8.448   0.076   9.806 -0.4553  0.2326 -0.5600
   57loPI   GL2  902   8.210   0.293   9.796  0.3711 -0.0525 -0.1212
   57loPI   C1A  903   8.721   0.200   9.470 -0.0799  0.1447 -0.0828
   57loPI   C2A  904   8.766   0.375   8.998 -0.2094  0.0522 -0.0489
   57loPI   C3A  905   8.799   0.395   8.582 -0.0068 -0.2048 -0.0963
   57loPI   C4A  906   8.871   0.478   8.183  0.1032  0.0123 -0.0553
   57loPI   C5A  907   8.643   0.638   7.902 -0.2694  0.2214  0.1279
   57loPI   C6A  908   8.379   1.038   7.812  0.2869  0.1749  0.1107
   57loPI   C1B  909   8.247   0.309   9.406  0.1290  0.1044 -0.2957
   57loPI   C2B  910   8.233   0.369   9.018  0.1576 -0.0727  0.0866
   57loPI   C3B  911   8.224   0.391   8.584  0.0292  0.0603 -0.1500
   57loPI   C4B  912   8.186   0.482   8.098  0.1711 -0.1430  0.3056
   58loPI    C1  913   8.832   8.900  10.034  0.0022  0.0887 -0.2335
   58loPI    C2  914   9.082   9.213  10.023 -0.0428  0.1357  0.0231
   58loPI    C3  915   8.953   9.072  10.375 -0.3060  0.0536 -0.1037
   58loPI   PO4  916   9.111   8.699   9.862 -0.1207  0.0350  0.0870
   58loPI   GL1  917   9.364   8.761   9.477  0.0078  0.3783  0.2445
   58loPI   GL2  918   9.027   8.828   9.362 -0.2029 -0.1403 -0.0397
   58loPI   C1A  919   9.629   8.961   9.230  0.2827  0.2625 -0.1634
   58loPI   C2A  920   9.546   8.972   8.839  0.1665  0.1753  0.1616
   58loPI   C3A  921   9.540   8.827   8.315  0.0127  0.0154 -0.0346
   58loPI   C4A  922   9.470   8.766   7.823 -0.0909  0.1167  0.4287
   58loPI   C5A  923   9.488   8.465   7.531  0.0019 -0.2104  0.3032
   58loPI   C6A  924   9.511   8.154   7.145  0.1774  0.1240  0.1527
   58loPI   C1B  925   8.980   8.871   8.875 -0.0318 -0.0234  0.2439
   58loPI   C2B  926   9.041   8.750   8.443 -0.0018 -0.1159 -0.1310
   58loPI   C3B  927   8.833   8.692   8.042 -0.2040 -0.0420  0.2591
   58loPI   C4B  928   8.535   8.516   7.595  0.2466  0.0057  0.1650
   59loPI    C1  929  13.081   1.217  10.411  0.0434 -0.0298  0.1078
   59loPI    C2  930  13.469   1.244  10.505  0.0001  0.2994  0.2033
   59loPI    C3  931  13.195   1.216  10.795 -0.0334 -0.2095  0.1313
   59loPI   PO4  932  13.075   1.412  10.228 -0.2715  0.0821  0.3155
   59loPI   GL1  933  12.962   1.457   9.777  0.0972  0.1555 -0.1478
   59loPI   GL2  934  13.075   1.175   9.795 -0.2150 -0.0308  0.0272
   59loPI   C1A  935  12.873   1.436   9.268  0.0625 -0.1248 -0.3477
   59loPI   C2A  936  12.867   1.560   8.880  0.4049  0.3904  0.0879
   59loPI   C3A  937  12.894   1.479   8.458 -0.0236 -0.1096  0.1493
   59loPI   C4A  938  12.951   1.542   7.981 -0.1404  0.0932 -0.0633
   59loPI   C5A  939  13.175   1.891   7.717 -0.0923 -0.0148  0.3752
   59loPI   C6A  940  13.387   2.278   7.777 -0.0262 -0.0078 -0.1639
   59loPI   C1B  941  13.139   1.061   9.405  0.1529 -0.1395 -0.0995
   59loPI   C2B  942  13.178   1.105   8.982 -0.2185 -0.2577  0.1904
   59loPI   C3B  943  13.314   1.083   8.430  0.2373 -0.3007  0.2868
   59loPI   C4B  944  13.215   1.099   8.048  0.5571 -0.1380 -0.1033
   60loPI    C1  945  18.306  11.073  10.750  0.0930 -0.1112  0.2379
   60loPI    C2  946  17.998  10.982  10.988 -0.0936  0.0612  0.0662
   60loPI    C3  947  18.275  11.243  11.111 -0.1421  0.0835  0.1292
   60loPI   PO4  948  18.101  11.054  10.475  0.1803  0.2540  0.0522
   60loPI   GL1  949  17.954  11.013  10.092 -0.1732 -0.0070  0.2451
   60loPI   GL2  950  18.051  10.684  10.074  0.2329 -0.3018 -0.1358
   60loPI   C1A  951  17.777  10.990   9.709  0.0213 -0.5244  0.0176
   60loPI   C2A  952  17.715  11.078   9.365 -0.1486  0.0656 -0.1649
   60loPI   C3A  953  17.685  11.009   8.917  0.1724 -0.2147  0.3255
   60loPI   C4A  954  17.728  10.929   8.466  0.1309  0.0346 -0.1228
   60loPI   C5A  955  17.871  10.558   8.326 -0.0328 -0.0969  0.0387
   60loPI   C6A  956  17.960  10.374   8.046 -0.0824 -0.1851  0.3729
   60loPI   C1B  957  18.028  10.539   9.677  0.0267 -0.3739  0.1152
   60loPI   C2B  958  17.949  10.600   9.301 -0.2683 -0.1695 -0.0956
   60loPI   C3B  959  17.851  10.550   8.887  0.1330  0.0109  0.1064
   60loPI   C4B  960  17.441  10.460   8.725  0.1794 -0.1843 -0.1197
   61loPI    C1  961  14.697   0.567  10.573 -0.0085 -0.3615  0.0615
   61loPI    C2  962  14.596   0.291  10.844 -0.0965 -0.0463  0.3571
   61loPI    C3  963  14.899   0.542  10.917 -0.0293 -0.0496  0.0991
   61loPI   PO4  964  14.660   0.532  10.330  0.3005 -0.1163 -0.0901
   61loPI   GL1  965  14.898   0.537   9.887  0.0503  0.1242  0.1080
   61loPI   GL2  966  14.726   0.313   9.928  0.1545 -0.3958 -0.0724
   61loPI   C1A  967  15.110   0.707   9.508 -0.1076 -0.2404  0.2306
   61loPI   C2A  968  15.100   0.617   9.100 -0.4267  0.0603  0.1732
   61loPI   C3A  969  15.243   0.706   8.682  0.3634  0.1128  0.1169
   61loPI   C4A  970  15.130   0.566   8.300  0.3434 -0.0414  0.1131
   61loPI   C5A  971  15.362   0.576   7.880  0.1416 -0.1213 -0.1082
   61loPI   C6A  972  15.514   0.852   7.680  0.0248  0.0936  0.1234
   61loPI   C1B  973  14.720   0.278   9.460 -0.3421 -0.0177  0.0481
   61loPI   C2B  974  14.767   0.236   8.995 -0.2383 -0.1954 -0.0331
   61loPI   C3B  975  14.935   0.319   8.662 -0.1819 -0.0582 -0.1606
   61loPI   C4B  976  14.827   0.123   8.212 -0.0852 -0.0237  0.1685
   62loPI    C1  977   4.686   2.610  10.579  0.0001  0.0921 -0.0655
   62loPI    C2  978   4.318   2.480  10.489  0.0552  0.1257 -0.3474
   62loPI    C3  979   4.456   2.447  10.863 -0.2115  0.0592 -0.2530
   62loPI   PO4  980   4.819   2.625  10.293  0.0804 -0.0849  0.1099
   62loPI   GL1  981   4.742   2.927   9.969  0.0327  0.1401 -0.0126
   62loPI   GL2  982   4.854   3.164   9.955  0.0993 -0.4806  0.1327
   62loPI   C1A  983   4.624   2.995   9.482  0.1761  0.2352 -0.1830
   62loPI   C2A  984   4.549   3.038   9.006  0.2948 -0.3263 -0.0153
   62loPI   C3A  985   4.495   3.065   8.553  0.0910 -0.0332 -0.0587
   62loPI   C4A  986   4.501   3.042   8.099 -0.0533  0.5245  0.3427
   62loPI   C5A  987   4.573   3.400   7.721  0.2546  0.0409 -0.0026
   62loPI   C6A  988   4.897   3.484   7.389 -0.1824 -0.4844 -0.0484
   62loPI   C1B  989   4.894   3.465   9.509  0.4357 -0.3162  0.0653
   62loPI   C2B  990   4.810   3.457   9.066 -0.0251 -0.0131  0.1266
   62loPI   C3B  991   4.728   3.486   8.687 -0.1781 -0.1132 -0.0340
   62loPI   C4B  992   4.730   3.535   8.236 -0.0832  0.0895 -0.3416
   63loPI    C1  993   8.197  14.395   9.981  0.1915  0.1062  0.2375
   63loPI    C2  994   7.919  14.508  10.246  0.0524  0.0446  0.1194
   63loPI    C3  995   8.215  14.263  10.358 -0.1001 -0.1147  0.1775
   63loPI   PO4  996   8.057  14.484   9.752 -0.1875 -0.0656 -0.3322
   63loPI   GL1  997   7.925  14.524   9.395  0.1057  0.0680  0.1565
   63loPI   GL2  998   7.756  14.464   9.054  0.0934 -0.1298 -0.1087
   63loPI   C1A  999   8.273  14.542   9.049  0.0384 -0.0439 -0.1290
   63loPI   C2A 1000   8.205  14.433   8.604  0.0637 -0.1336 -0.0721
   63loPI   C3A 1001   8.159  14.464   8.111  0.0498  0.1460  0.1051
   63loPI   C4A 1002   7.993  14.550   7.835 -0.1178 -0.1624 -0.0432
   63loPI   C5A 1003   7.839  14.531   7.439  0.1708  0.0558  0.1637
   63loPI   C6A 1004   8.011  14.514   6.944  0.2895  0.1717  0.0155
   63loPI   C1B 1005   7.649  14.584   8.579 -0.0463  0.0245  0.3235
   63loPI   C2B 1006   7.444  14.506   8.138  0.0583 -0.0987 -0.1619
   63loPI   C3B 1007   7.448  14.645   7.774 -0.1213  0.3515  0.1306
   63loPI   C4B 1008   7.357  14.690   7.387 -0.0743  0.0561 -0.2390
   64loPI    C1 1009  10.155  18.499  10.441  0.0508 -0.3277 -0.0577
   64loPI    C2 1010  10.028  18.270  10.743 -0.0222  0.0288  0.1885
   64loPI    C3 1011  10.170  18.636  10.817  0.0440  0.0857 -0.2034
   64loPI   PO4 1012  10.122  18.352  10.212 -0.0645 -0.3599  0.0708
   64loPI   GL1 1013  10.156  18.561   9.803 -0.2485  0.1162  0.0710
   64loPI   GL2 1014  10.379  18.394   9.807  0.0747 -0.2292 -0.1870
   64loPI   C1A 1015  10.043  18.718   9.414  0.3470 -0.4457  0.1343
   64loPI   C2A 1016   9.994  18.836   8.911  0.1020 -0.0611 -0.1021
   64loPI   C3A 1017  10.134  18.878   8.471  0.0740 -0.1934 -0.1102
   64loPI   C4A 1018   9.979  18.964   8.168 -0.1367  0.3400 -0.3611
   64loPI   C5A 1019   9.953  18.824   7.702 -0.0943 -0.3245 -0.1075
   64loPI   C6A 1020   9.909  18.770   7.195  0.1742  0.1509 -0.4389
   64loPI   C1B 1021  10.372  18.366   9.239 -0.2335  0.0184  0.0513
   64loPI   C2B 1022  10.254  18.399   8.847  0.1247  0.1794  0.1225
   64loPI   C3B 1023  10.427  18.474   8.514  0.1058 -0.0411 -0.1523
   64loPI   C4B 1024  10.364  18.603   8.060  0.1089  0.2833 -0.1703
   65loPI    C1 1025  14.920  11.673  11.151  0.0197 -0.0387 -0.0503
   65loPI    C2 1026  15.177  11.482  11.391  0.0625  0.1808  0.0820
   65loPI    C3 1027  14.799  11.541  11.509  0.0247  0.0989  0.0031
   65loPI   PO4 1028  15.146  11.733  10.918  0.0309 -0.0391  0.1789
   65loPI   GL1 1029  15.147  11.841  10.405 -0.1561 -0.0627  0.1482
   65loPI   GL2 1030  15.267  12.185  10.310 -0.0554  0.1494 -0.1050
   65loPI   C1A 1031  15.173  11.774   9.972 -0.0547  0.1215 -0.0690
   65loPI   C2A 1032  15.145  11.782   9.540  0.0919 -0.1133  0.0634
   65loPI   C3A 1033  15.116  11.838   9.055 -0.1008  0.0004 -0.0103
   65loPI   C4A 1034  15.128  11.909   8.667  0.0622  0.2780  0.2743
   65loPI   C5A 1035  15.154  12.015   8.232  0.2739 -0.0254  0.0521
   65loPI   C6A 1036  14.955  12.495   8.247  0.0686  0.1475  0.3971
   65loPI   C1B 1037  15.326  12.289   9.829 -0.0247  0.0637  0.0442
   65loPI   C2B 1038  15.311  12.250   9.392 -0.6137  0.2861  0.0479
   65loPI   C3B 1039  15.362  12.309   9.043 -0.1601 -0.4595 -0.0678
   65loPI   C4B 1040  15.376  12.378   8.622  0.2675 -0.2177  0.1255
   66loPI    C1 1041  14.448   4.380  10.711  0.0993  0.2559 -0.0329
   66loPI    C2 1042  14.170   4.637  10.841 -0.3561 -0.1003 -0.2718
   66loPI    C3 1043  14.096   4.244  10.845  0.2390 -0.2203 -0.1319
   66loPI   PO4 1044  14.590   4.440  10.542 -0.4080 -0.0071  0.3213
   66loPI   GL1 1045  14.728   4.564  10.180 -0.0321  0.0765 -0.3419
   66loPI   GL2 1046  14.864   4.342   9.976 -0.1920 -0.1570  0.0823
   66loPI   C1A 1047  14.471   4.422   9.720  0.4686  0.0050 -0.0065
   66loPI   C2A 1048  14.491   4.313   9.254  0.1453  0.0241  0.2785
   66loPI   C3A 1049  14.516   4.294   8.859  0.0491 -0.1210  0.0936
   66loPI   C4A 1050  14.483   4.394   8.452 -0.0035  0.0498 -0.0313
   66loPI   C5A 1051  14.463   4.319   8.058 -0.1686 -0.2261  0.1311
   66loPI   C6A 1052  14.953   4.225   7.780 -0.0441  0.0509 -0.2259
   66loPI   C1B 1053  14.957   4.391   9.532 -0.0196  0.1327 -0.4254
   66loPI   C2B 1054  14.998   4.394   9.090  0.3256  0.0353  0.3010
   66loPI   C3B 1055  15.007   4.411   8.781  0.5148  0.3982  0.0524
   66loPI   C4B 1056  14.984   4.377   8.335  0.0428  0.0127 -0.3720
   67loPI    C1 1057   2.645   7.103  10.799 -0.0714  0.0427  0.1065
   67loPI    C2 1058   2.556   7.489  10.854  0.1357  0.1091 -0.0129
   67loPI    C3 1059   2.933   7.380  10.773  0.0246 -0.0859 -0.2839
   67loPI   PO4 1060   2.326   7.058  10.525  0.3335 -0.1044 -0.1271
   67loPI   GL1 1061   2.257   6.952  10.203  0.2027 -0.0635  0.1090
   67loPI   GL2 1062   1.933   7.021  10.119  0.3122 -0.0970 -0.0557
   67loPI   C1A 1063   2.430   7.076   9.838 -0.2483 -0.2164 -0.0125
   67loPI   C2A 1064   2.485   7.011   9.396  0.0336 -0.1804 -0.0446
   67loPI   C3A 1065   2.461   7.004   8.946  0.0349 -0.1552  0.1490
   67loPI   C4A 1066   2.438   7.012   8.567  0.0659  0.0503  0.1835
   67loPI   C5A 1067   2.484   7.023   8.015 -0.0133  0.1768 -0.0853
   67loPI   C6A 1068   2.625   7.072   7.660  0.3260 -0.0313  0.2291
   67loPI   C1B 1069   1.968   6.861   9.663 -0.1631 -0.0101 -0.2800
   67loPI   C2B 1070   1.935   6.934   9.222 -0.1905 -0.1592  0.0417
   67loPI   C3B 1071   1.919   7.067   8.789 -0.2546 -0.0423  0.1646
   67loPI   C4B 1072   1.938   7.007   8.313  0.0326  0.1638  0.0738
   68loPI    C1 1073   1.431   2.575  10.473  0.0125  0.0085  0.0227
   68loPI    C2 1074   1.519   2.411  10.827  0.1426 -0.1113 -0.0641
   68loPI    C3 1075   1.256   2.711  10.805  0.1412 -0.0971  0.1349
   68loPI   PO4 1076   1.548   2.472  10.283 -0.1698 -0.0528  0.1670
   68loPI   GL1 1077   1.480   2.756   9.918 -0.1574 -0.0592 -0.3460
   68loPI   GL2 1078   1.857   2.675   9.904 -0.2097  0.2111 -0.0727
   68loPI   C1A 1079   1.386   2.915   9.610  0.1790 -0.0097  0.1212
   68loPI   C2A 1080   1.422   2.910   9.158  0.0579  0.0242  0.1393
   68loPI   C3A 1081   1.387   2.828   8.749 -0.0767  0.3105 -0.0273
   68loPI   C4A 1082   1.436   2.875   8.319 -0.2801 -0.1380  0.0540
   68loPI   C5A 1083   1.486   3.230   7.994  0.0611 -0.2423 -0.1818
   68loPI   C6A 1084   1.262   3.421   7.620  0.2090  0.0741 -0.3531
   68loPI   C1B 1085   1.805   2.513   9.381 -0.1248 -0.2009  0.0713
   68loPI   C2B 1086   1.659   2.409   8.991 -0.0356 -0.2498 -0.3249
   68loPI   C3B 1087   1.662   2.377   8.498  0.0549 -0.2325  0.3004
   68loPI   C4B 1088   1.758   2.309   7.991 -0.2309 -0.1558  0.0708
   69loPI    C1 1089   6.492   0.839  10.190  0.0686  0.0828 -0.0871
   69loPI    C2 1090   6.135   0.748  10.345  0.0711 -0.0011 -0.1298
   69loPI    C3 1091   6.465   0.705  10.566  0.0970 -0.3358 -0.2290
   69loPI   PO4 1092   6.523   0.717   9.976 -0.0909  0.2660  0.0065
   69loPI   GL1 1093   6.663   0.763   9.579  0.0637  0.0326 -0.1422
   69loPI   GL2 1094   6.962   0.634   9.482 -0.1394 -0.2648  0.0581
   69loPI   C1A 1095   6.469   0.716   9.223 -0.4045  0.3207 -0.3147
   69loPI   C2A 1096   6.464   0.744   8.778 -0.1406  0.1789 -0.1818
   69loPI   C3A 1097   6.499   0.717   8.379  0.2688  0.5086 -0.1516
   69loPI   C4A 1098   6.298   0.979   8.067  0.0763 -0.2279  0.2942
   69loPI   C5A 1099   6.311   0.989   7.640 -0.1572  0.2074  0.0590
   69loPI   C6A 1100   6.392   0.682   7.327  0.4603 -0.1408  0.0987
   69loPI   C1B 1101   7.046   0.729   9.136  0.5005  0.0332 -0.0215
   69loPI   C2B 1102   6.992   0.837   8.674  0.2731  0.1037  0.2212
   69loPI   C3B 1103   6.957   0.890   8.155  0.0193 -0.0359  0.0789
   69loPI   C4B 1104   7.020   1.161   7.839  0.0593  0.0597 -0.0886
   70loPI    C1 1105  14.539   7.609  10.713 -0.0638 -0.1066  0.0647
   70loPI    C2 1106  14.432   7.977  10.826  0.2733  0.0505 -0.1114
   70loPI    C3 1107  14.152   7.709  10.726  0.0292  0.2947 -0.0961
   70loPI   PO4 1108  14.766   7.655  10.517 -0.2382 -0.3192  0.2892
   70loPI   GL1 1109  14.891   7.810  10.061 -0.1446  0.2110 -0.0383
   70loPI   GL2 1110  14.675   7.827   9.947 -0.2200  0.1735 -0.1287
   70loPI   C1A 1111  15.008   7.718   9.478 -0.0132 -0.0503 -0.2535
   70loPI   C2A 1112  14.955   7.846   9.043  0.2140  0.0217 -0.0720
   70loPI   C3A 1113  15.104   7.718   8.726 -0.2354  0.1003  0.2116
   70loPI   C4A 1114  15.109   7.757   8.328  0.0871  0.2222 -0.0557
   70loPI   C5A 1115  15.131   7.845   7.842 -0.0484 -0.0333  0.0609
   70loPI   C6A 1116  15.286   8.177   7.529 -0.1335 -0.0051  0.0227
   70loPI   C1B 1117  14.614   8.019   9.573 -0.0212  0.1715  0.0236
   70loPI   C2B 1118  14.581   8.200   9.200  0.4107  0.3883  0.1890
   70loPI   C3B 1119  14.749   8.229   8.799 -0.1260 -0.0993 -0.0051
   70loPI   C4B 1120  14.767   8.092   8.433  0.0589  0.2474  0.0450
   71loPI    C1 1121  17.180  16.614  10.749  0.2003  0.2023 -0.0263
   71loPI    C2 1122  17.396  16.389  10.998  0.0300 -0.0903 -0.1382
   71loPI    C3 1123  17.302  16.764  11.099 -0.1383 -0.2418  0.2939
   71loPI   PO4 1124  17.017  16.466  10.649  0.0144  0.3129  0.0055
   71loPI   GL1 1125  16.892  16.190  10.293 -0.1992  0.3227 -0.0997
   71loPI   GL2 1126  16.986  16.424  10.117 -0.0188 -0.0423  0.2064
   71loPI   C1A 1127  16.776  16.046   9.911 -0.0889  0.0141 -0.0543
   71loPI   C2A 1128  16.758  15.899   9.539  0.1325 -0.0360  0.1060
   71loPI   C3A 1129  16.868  15.965   9.132  0.1962 -0.0227 -0.0230
   71loPI   C4A 1130  16.801  15.883   8.628 -0.1113 -0.0240 -0.1496
   71loPI   C5A 1131  16.646  15.953   8.241 -0.0041  0.3266 -0.1435
   71loPI   C6A 1132  16.559  15.952   7.837 -0.0025  0.1524 -0.2070
   71loPI   C1B 1133  17.070  16.414   9.682 -0.2871 -0.1147 -0.3016
   71loPI   C2B 1134  17.043  16.426   9.242 -0.0208  0.0611  0.2163
   71loPI   C3B 1135  17.027  16.333   8.811  0.1473  0.4608  0.0139
   71loPI   C4B 1136  16.995  16.450   8.420  0.0985  0.1964  0.3854
   72loPI    C1 1137  13.516  16.155  10.566 -0.1220  0.0525  0.1395
   72loPI    C2 1138  13.219  16.284  10.801 -0.0472  0.0076  0.2596
   72loPI    C3 1139  13.593  16.270  10.942  0.0079  0.0375  0.1178
   72loPI   PO4 1140  13.381  16.154  10.308 -0.0354  0.0677 -0.2995
   72loPI   GL1 1141  13.101  16.075   9.965  0.0597 -0.1273  0.4307
   72loPI   GL2 1142  13.199  16.298   9.699  0.1723  0.3357 -0.6619
   72loPI   C1A 1143  12.965  15.948   9.503 -0.1745 -0.2696  0.0167
   72loPI   C2A 1144  12.996  15.760   9.094  0.0001  0.1740 -0.2815
   72loPI   C3A 1145  13.006  15.907   8.724  0.0260 -0.1190  0.0617
   72loPI   C4A 1146  13.044  15.871   8.383  0.0548 -0.3426  0.1893
   72loPI   C5A 1147  13.210  15.967   7.984 -0.0711  0.0678 -0.3384
   72loPI   C6A 1148  13.372  16.172   7.667  0.2578  0.2580  0.2153
   72loPI   C1B 1149  13.196  16.317   9.231  0.0489 -0.1171  0.0502
   72loPI   C2B 1150  13.256  16.346   8.750  0.2287 -0.2220  0.0887
   72loPI   C3B 1151  13.261  16.324   8.360  0.1402 -0.1038 -0.2030
   72loPI   C4B 1152  13.211  16.486   8.002  0.1351 -0.0469 -0.0282
   73loPI    C1 1153   2.894   5.547  10.521  0.1424 -0.0006 -0.0841
   73loPI    C2 1154   2.611   5.683  10.768 -0.2014 -0.3312 -0.2844
   73loPI    C3 1155   2.928   5.486  10.915  0.0434  0.2238 -0.0399
   73loPI   PO4 1156   2.993   5.754  10.346 -0.2309 -0.1882  0.1705
   73loPI   GL1 1157   3.122   5.657   9.970  0.0948  0.1795 -0.0938
   73loPI   GL2 1158   3.299   5.678   9.591 -0.0802  0.0106 -0.4091
   73loPI   C1A 1159   2.787   5.736   9.665  0.1163  0.0071 -0.0671
   73loPI   C2A 1160   2.857   5.667   9.295  0.2180  0.0454  0.0241
   73loPI   C3A 1161   2.854   5.673   8.921 -0.1582 -0.0887  0.3181
   73loPI   C4A 1162   2.894   5.571   8.486  0.1102  0.0748  0.0055
   73loPI   C5A 1163   2.810   5.624   8.101  0.0335  0.0137  0.1805
   73loPI   C6A 1164   3.058   5.724   7.681  0.1936  0.0128  0.2354
   73loPI   C1B 1165   3.360   5.734   9.179 -0.2004  0.0614 -0.1450
   73loPI   C2B 1166   3.346   5.684   8.704 -0.0717 -0.1764  0.0032
   73loPI   C3B 1167   3.340   5.693   8.267  0.4128  0.1768 -0.3718
   73loPI   C4B 1168   3.489   5.925   8.002  0.2020 -0.1758 -0.1874
   74loPI    C1 1169   5.505   1.887  10.531 -0.1982 -0.1895  0.0035
   74loPI    C2 1170   5.866   1.719  10.570 -0.1084 -0.0101 -0.0439
   74loPI    C3 1171   5.581   1.645  10.841  0.0834  0.1478  0.2056
   74loPI   PO4 1172   5.578   2.062  10.263 -0.3103 -0.1429  0.0036
   74loPI   GL1 1173   5.527   1.916   9.766 -0.3350 -0.1458 -0.0207
   74loPI   GL2 1174   5.983   2.050   9.649  0.2413 -0.1921  0.0858
   74loPI   C1A 1175   5.189   2.039   9.458 -0.0190 -0.3878 -0.1705
   74loPI   C2A 1176   5.062   2.083   9.079 -0.1103  0.1585 -0.0508
   74loPI   C3A 1177   5.135   2.186   8.656 -0.0086 -0.2222  0.0027
   74loPI   C4A 1178   5.093   2.222   8.130  0.2064 -0.1685 -0.0738
   74loPI   C5A 1179   5.236   2.476   7.813 -0.0586  0.1179 -0.0464
   74loPI   C6A 1180   5.560   2.717   7.594 -0.1542  0.1504 -0.2908
   74loPI   C1B 1181   5.731   2.146   9.386 -0.0414 -0.4648 -0.2959
   74loPI   C2B 1182   5.754   2.140   8.980  0.0693  0.4516 -0.3213
   74loPI   C3B 1183   5.633   2.202   8.478 -0.1375 -0.0565 -0.0783
   74loPI   C4B 1184   5.635   2.144   8.075  0.1507  0.2153  0.0093
   75loPI    C1 1185   5.844   8.118  10.636  0.2236 -0.1149  0.0552
   75loPI    C2 1186   5.778   8.507  10.571 -0.1306 -0.1631  0.1043
   75loPI    C3 1187   5.907   8.383  10.929  0.0106 -0.0896  0.0797
   75loPI   PO4 1188   5.985   7.975  10.431  0.1767  0.0829  0.0700
   75loPI   GL1 1189   5.802   7.880   9.934 -0.0231 -0.0497  0.2309
   75loPI   GL2 1190   5.999   8.109   9.706  0.0781  0.2414 -0.0143
   75loPI   C1A 1191   5.819   7.702   9.531 -0.0435  0.0700  0.0931
   75loPI   C2A 1192   5.845   7.738   9.099 -0.4730  0.1955  0.2798
   75loPI   C3A 1193   5.819   7.679   8.603  0.1954 -0.0441  0.2306
   75loPI   C4A 1194   5.677   7.668   8.157  0.2207 -0.1015  0.1296
   75loPI   C5A 1195   5.373   7.633   7.768 -0.1346  0.4614 -0.2796
   75loPI   C6A 1196   5.282   7.957   7.416  0.0804 -0.1276 -0.1738
   75loPI   C1B 1197   6.139   8.138   9.322  0.3171 -0.0548  0.1478
   75loPI   C2B 1198   6.107   8.154   8.826  0.1534  0.1254  0.0765
   75loPI   C3B 1199   6.053   8.192   8.439 -0.0499 -0.3370  0.1827
   75loPI   C4B 1200   6.005   8.011   8.044 -0.2009 -0.1258 -0.1323
   76loPI    C1 1201  11.298  14.168  10.059 -0.1560  0.0836  0.0054
   76loPI    C2 1202  11.312  14.244  10.452 -0.1451 -0.1854  0.0593
   76loPI    C3 1203  11.049  14.437  10.220  0.0564  0.2009  0.1430
   76loPI   PO4 1204  11.538  14.141   9.989  0.1311 -0.0769  0.4262
   76loPI   GL1 1205  11.729  14.055   9.543 -0.1074  0.0450 -0.1562
   76loPI   GL2 1206  11.667  14.388   9.530 -0.2126  0.1116 -0.1767
   76loPI   C1A 1207  11.691  14.129   9.088  0.1125 -0.0111  0.0778
   76loPI   C2A 1208  11.580  14.143   8.651 -0.0904 -0.1543 -0.0685
   76loPI   C3A 1209  11.523  14.102   8.179 -0.1499 -0.1421 -0.0740
   76loPI   C4A 1210  11.581  14.166   7.702 -0.0273  0.0561  0.3277
   76loPI   C5A 1211  11.840  14.023   7.403 -0.2241  0.3326  0.4077
   76loPI   C6A 1212  12.181  13.788   7.568  0.0024 -0.1354 -0.1622
   76loPI   C1B 1213  11.719  14.652   9.145 -0.0040 -0.0835 -0.0176
   76loPI   C2B 1214  11.621  14.878   8.735  0.0914 -0.2851  0.0279
   76loPI   C3B 1215  11.443  14.743   8.353 -0.1505  0.0701 -0.2510
   76loPI   C4B 1216  11.556  14.582   7.964 -0.1189 -0.2138 -0.1442
   77loPI    C1 1217  17.722  17.515  10.308 -0.0220 -0.1272  0.0232
   77loPI    C2 1218  17.330  17.440  10.290  0.0135 -0.3635  0.1988
   77loPI    C3 1219  17.503  17.515  10.643  0.0514  0.1701  0.0743
   77loPI   PO4 1220  17.885  17.371  10.084 -0.2197 -0.1053 -0.4119
   77loPI   GL1 1221  18.135  17.299   9.788 -0.0290 -0.1648  0.1121
   77loPI   GL2 1222  18.313  17.184  10.010 -0.0611  0.1199 -0.1039
   77loPI   C1A 1223  18.089  17.532   9.454  0.1081 -0.0842  0.1075
   77loPI   C2A 1224  18.168  17.535   9.058 -0.3249 -0.0324 -0.0580
   77loPI   C3A 1225  18.092  17.463   8.703  0.0059 -0.0000 -0.0438
   77loPI   C4A 1226  18.088  17.435   8.236  0.0261  0.4775 -0.0765
   77loPI   C5A 1227  17.992  17.396   7.859  0.2469 -0.2033  0.1277
   77loPI   C6A 1228  18.285  17.204   7.510  0.0100  0.2691  0.0195
   77loPI   C1B 1229  18.472  17.112   9.542 -0.0841  0.0220  0.1258
   77loPI   C2B 1230  18.369  17.090   9.099  0.0678  0.1151  0.1293
   77loPI   C3B 1231  18.296  16.995   8.705  0.3194 -0.2474 -0.0473
   77loPI   C4B 1232  18.311  16.887   8.256 -0.3428 -0.1636 -0.1836
   78loPI    C1 1233   0.431   7.578  10.409 -0.2959  0.1498 -0.0685
   78loPI    C2 1234   0.265   7.408  10.730  0.0006 -0.0661 -0.0250
   78loPI    C3 1235   0.229   7.802  10.671 -0.0107 -0.0147  0.3020
   78loPI   PO4 1236   0.462   7.318  10.193 -0.0672 -0.1336  0.3712
   78loPI   GL1 1237   0.637   7.272   9.836  0.0494 -0.0033 -0.1693
   78loPI   GL2 1238   0.898   7.126   9.995  0.0365 -0.1627 -0.2088
   78loPI   C1A 1239   0.669   7.422   9.414 -0.2459  0.2399 -0.0546
   78loPI   C2A 1240   0.645   7.463   8.959  0.3289  0.0814  0.0853
   78loPI   C3A 1241   0.655   7.324   8.587 -0.0320  0.0002  0.0165
   78loPI   C4A 1242   0.624   7.014   8.129 -0.0550 -0.0672 -0.0065
   78loPI   C5A 1243   0.687   7.026   7.649  0.2515  0.0772 -0.2621
   78loPI   C6A 1244   0.854   6.838   7.360  0.0383  0.1553 -0.3196
   78loPI   C1B 1245   0.937   6.934   9.650  0.2780  0.0886  0.0513
   78loPI   C2B 1246   0.901   6.915   9.191 -0.0532  0.0267 -0.1687
   78loPI   C3B 1247   0.933   6.889   8.714 -0.2433 -0.0939 -0.1073
   78loPI   C4B 1248   1.033   6.925   8.372  0.0483  0.1013 -0.0739
   79loPI    C1 1249   9.180  12.664   9.661 -0.0914  0.0107 -0.0658
   79loPI    C2 1250   8.795  12.700   9.560 -0.1618 -0.0226  0.1845
   79loPI    C3 1251   8.928  12.860   9.902  0.0952  0.1813 -0.0069
   79loPI   PO4 1252   9.290  12.771   9.396 -0.0400  0.0751  0.1305
   79loPI   GL1 1253   9.178  12.498   9.050  0.4622  0.1162  0.1068
   79loPI   GL2 1254   8.889  12.722   9.086 -0.0615  0.1708  0.0416
   79loPI   C1A 1255   9.234  12.654   8.657  0.2697  0.1848  0.1274
   79loPI   C2A 1256   9.097  12.768   8.268  0.1606 -0.1706 -0.0259
   79loPI   C3A 1257   9.173  12.842   7.908  0.1363  0.0180  0.0779
   79loPI   C4A 1258   9.379  12.732   7.485 -0.4095 -0.0742  0.0432
   79loPI   C5A 1259   9.757  12.792   7.111  0.3321 -0.0955 -0.0365
   79loPI   C6A 1260  10.137  12.980   6.988 -0.1284  0.0196  0.2688
   79loPI   C1B 1261   8.728  12.704   8.689  0.3053  0.5226  0.0529
   79loPI   C2B 1262   8.687  12.974   8.240  0.1904  0.1833  0.0128
   79loPI   C3B 1263   8.705  13.058   7.798  0.1845 -0.2281 -0.2020
   79loPI   C4B 1264   8.551  12.987   7.497  0.3250 -0.0424 -0.0442
   80loPI    C1 1265  12.050   5.345  10.092 -0.0810  0.0337 -0.0348
   80loPI    C2 1266  11.780   5.412  10.379 -0.0338  0.0351  0.0096
   80loPI    C3 1267  12.162   5.515  10.436 -0.0147 -0.0107 -0.0341
   80loPI   PO4 1268  12.047   5.429   9.899  0.1610  0.1758  0.0015
   80loPI   GL1 1269  12.052   5.607   9.502 -0.1022  0.0052 -0.0961
   80loPI   GL2 1270  12.389   5.709   9.485 -0.1300 -0.3592  0.1959
   80loPI   C1A 1271  11.918   5.644   9.025  0.3725 -0.5809  0.1865
   80loPI   C2A 1272  11.928   5.683   8.487 -0.1319 -0.1265  0.0094
   80loPI   C3A 1273  11.899   5.478   8.059  0.0930  0.0745  0.0683
   80loPI   C4A 1274  11.980   5.344   7.631  0.2983 -0.4240  0.2345
   80loPI   C5A 1275  11.868   5.125   7.344  0.0610  0.1129  0.2204
   80loPI   C6A 1276  12.098   4.841   7.117 -0.2211  0.2319 -0.1624
   80loPI   C1B 1277  12.408   5.826   9.135 -0.3519  0.2297 -0.0932
   80loPI   C2B 1278  12.430   5.708   8.740 -0.1849 -0.0301 -0.1546
   80loPI   C3B 1279  12.462   5.728   8.213 -0.2127  0.0060 -0.0220
   80loPI   C4B 1280  12.744   5.686   7.827 -0.0255  0.1473  0.1113
   81loPI    C1 1281  11.678   1.145  10.174  0.1772  0.1499  0.1175
   81loPI    C2 1282  11.922   1.064  10.480  0.1806  0.3728  0.1751
   81loPI    C3 1283  11.558   1.213  10.549  0.0030 -0.0101  0.0928
   81loPI   PO4 1284  11.754   0.923   9.979  0.2714  0.2232  0.3238
   81loPI   GL1 1285  11.577   0.992   9.550 -0.4174 -0.2220 -0.1801
   81loPI   GL2 1286  11.290   1.173   9.519 -0.6184  0.3171 -0.0384
   81loPI   C1A 1287  11.645   0.890   9.102  0.1371 -0.0733 -0.0637
   81loPI   C2A 1288  11.679   1.017   8.722 -0.2899  0.0616 -0.1195
   81loPI   C3A 1289  11.659   1.100   8.319  0.2688  0.0554 -0.1599
   81loPI   C4A 1290  11.769   0.939   7.910 -0.0107 -0.2829  0.0960
   81loPI   C5A 1291  11.585   0.566   7.639  0.2609 -0.0690 -0.0384
   81loPI   C6A 1292  11.211   0.574   7.689  0.2023 -0.0054 -0.4505
   81loPI   C1B 1293  11.354   1.350   9.092  0.1213  0.2797  0.0852
   81loPI   C2B 1294  11.400   1.468   8.613  0.1529  0.0603  0.1263
   81loPI   C3B 1295  11.430   1.499   8.169  0.0184 -0.1461 -0.1162
   81loPI   C4B 1296  11.526   1.381   7.765  0.3073 -0.3391 -0.0893
   82loPI    C1 1297   4.980  13.216  10.444 -0.2241 -0.2054  0.0707
   82loPI    C2 1298   4.843  12.944  10.704  0.0484 -0.1202  0.3086
   82loPI    C3 1299   5.157  13.173  10.800  0.1694 -0.1029 -0.1068
   82loPI   PO4 1300   4.762  13.239  10.247 -0.2672  0.0130 -0.3125
   82loPI   GL1 1301   4.774  13.089   9.838  0.2482  0.0213 -0.3684
   82loPI   GL2 1302   4.708  12.676   9.847 -0.1294  0.0760  0.1724
   82loPI   C1A 1303   4.662  13.066   9.373 -0.1154 -0.0783 -0.1835
   82loPI   C2A 1304   4.678  13.071   8.971  0.1967 -0.1609 -0.3563
   82loPI   C3A 1305   4.606  13.108   8.548 -0.3264 -0.3994 -0.1572
   82loPI   C4A 1306   4.588  13.124   8.047  0.2684  0.1444  0.1148
   82loPI   C5A 1307   4.623  13.085   7.589  0.2597  0.0874 -0.1424
   82loPI   C6A 1308   4.865  12.714   7.315 -0.0474 -0.4284 -0.2356
   82loPI   C1B 1309   4.384  12.632   9.484 -0.1928  0.1042 -0.4797
   82loPI   C2B 1310   4.413  12.637   9.029 -0.2082 -0.2668 -0.2091
   82loPI   C3B 1311   4.417  12.671   8.621  0.0242  0.0444  0.0436
   82loPI   C4B 1312   4.288  12.754   8.170  0.3210 -0.1536  0.0022
   83loPI    C1 1313   5.735  16.782   9.989  0.0421 -0.0120 -0.0509
   83loPI    C2 1314   5.519  16.474   9.854 -0.0484  0.0312 -0.0062
   83loPI    C3 1315   5.723  16.441  10.197 -0.0083  0.0006 -0.0330
   83loPI   PO4 1316   5.810  16.832   9.691  0.2397 -0.1342 -0.0817
   83loPI   GL1 1317   6.035  17.101   9.337  0.0245  0.0667 -0.1157
   83loPI   GL2 1318   5.940  17.415   9.162 -0.1290 -0.2863  0.1543
   83loPI   C1A 1319   5.975  16.913   8.941  0.1808  0.0119 -0.1757
   83loPI   C2A 1320   5.910  16.795   8.519  0.2893 -0.0138  0.2870
   83loPI   C3A 1321   5.969  16.740   8.088 -0.0865  0.0683 -0.1697
   83loPI   C4A 1322   6.031  16.813   7.684 -0.2784  0.2510  0.2213
   83loPI   C5A 1323   6.355  16.575   7.488 -0.1319 -0.2525 -0.0595
   83loPI   C6A 1324   6.523  16.227   7.251  0.1026  0.4631 -0.0306
   83loPI   C1B 1325   5.760  17.378   8.821 -0.1378  0.2008  0.0487
   83loPI   C2B 1326   5.759  17.362   8.442  0.1299 -0.0190  0.2817
   83loPI   C3B 1327   5.693  17.239   7.934 -0.0134  0.0036  0.0572
   83loPI   C4B 1328   5.494  17.222   7.637 -0.1651  0.0044 -0.1268
   84loPI    C1 1329   3.255   4.013  10.114 -0.1364 -0.1134  0.0937
   84loPI    C2 1330   3.171   4.281  10.399 -0.2931 -0.1146  0.0500
   84loPI    C3 1331   3.486   4.336  10.159 -0.1207 -0.1478  0.2653
   84loPI   PO4 1332   3.302   3.848  10.198 -0.0303  0.1285 -0.2869
   84loPI   GL1 1333   3.502   3.657   9.817 -0.2581 -0.3159 -0.0173
   84loPI   GL2 1334   3.558   4.074   9.772 -0.2234 -0.1785 -0.4221
   84loPI   C1A 1335   3.327   3.557   9.507  0.3645  0.2709  0.2499
   84loPI   C2A 1336   3.192   3.467   9.063 -0.0764 -0.1769  0.0590
   84loPI   C3A 1337   3.177   3.414   8.573 -0.4019 -0.0699 -0.2161
   84loPI   C4A 1338   3.160   3.434   8.171  0.3510  0.0789  0.1729
   84loPI   C5A 1339   2.995   3.420   7.726  0.0080 -0.1283  0.2135
   84loPI   C6A 1340   2.765   3.626   7.501 -0.0403  0.0915 -0.0113
   84loPI   C1B 1341   3.541   4.004   9.384 -0.0358 -0.1637  0.1465
   84loPI   C2B 1342   3.429   3.954   8.960  0.1889  0.2491  0.3942
   84loPI   C3B 1343   3.404   3.830   8.511  0.2532 -0.1815 -0.0326
   84loPI   C4B 1344   3.395   3.883   8.078  0.0671  0.0202  0.2389
   85loPI    C1 1345  16.314   5.310  10.844 -0.0550 -0.1298 -0.0338
   85loPI    C2 1346  16.349   5.585  11.132  0.1419 -0.0371 -0.1441
   85loPI    C3 1347  16.015   5.367  11.104  0.0837  0.0178  0.0958
   85loPI   PO4 1348  16.473   5.329  10.583 -0.5856  0.1032  0.1112
   85loPI   GL1 1349  16.622   5.066  10.269  0.2219 -0.1193  0.0276
   85loPI   GL2 1350  16.356   4.880  10.347 -0.2101  0.1288  0.0782
   85loPI   C1A 1351  16.718   4.893   9.916  0.3298 -0.1654  0.0720
   85loPI   C2A 1352  16.632   4.907   9.583  0.2377 -0.0065 -0.1118
   85loPI   C3A 1353  16.772   5.087   9.139  0.1608  0.0871 -0.0856
   85loPI   C4A 1354  16.780   4.957   8.719 -0.1690 -0.2980 -0.2816
   85loPI   C5A 1355  16.683   4.812   8.335  0.0504  0.3591  0.0562
   85loPI   C6A 1356  16.316   4.584   8.259 -0.0210  0.0239  0.0333
   85loPI   C1B 1357  16.171   4.937   9.951  0.0798  0.0326  0.1425
   85loPI   C2B 1358  16.130   5.049   9.583  0.0262  0.1400 -0.2948
   85loPI   C3B 1359  16.217   4.993   9.141  0.0436 -0.1370  0.0740
   85loPI   C4B 1360  16.227   4.942   8.719 -0.1369  0.0749 -0.0227
   86loPI    C1 1361  17.949   7.618  11.079  0.0324 -0.1595  0.1601
   86loPI    C2 1362  17.625   7.850  11.124  0.0150 -0.2044  0.2687
   86loPI    C3 1363  17.919   7.861  11.395  0.0588 -0.2377  0.2229
   86loPI   PO4 1364  17.952   7.637  10.777 -0.0172  0.1011  0.2084
   86loPI   GL1 1365  17.771   7.521  10.360  0.2290 -0.3606 -0.4368
   86loPI   GL2 1366  17.780   7.229  10.507 -0.2049  0.3068 -0.0719
   86loPI   C1A 1367  17.880   7.398   9.915 -0.0628  0.2566  0.1625
   86loPI   C2A 1368  17.790   7.316   9.473  0.2037  0.0029  0.0180
   86loPI   C3A 1369  17.831   7.357   9.011  0.0330 -0.2496  0.0816
   86loPI   C4A 1370  17.930   7.342   8.524 -0.1327 -0.0567  0.0699
   86loPI   C5A 1371  17.902   7.574   8.193 -0.2753 -0.0698  0.1234
   86loPI   C6A 1372  18.347   7.789   7.903  0.4159 -0.4493  0.0326
   86loPI   C1B 1373  17.455   7.223  10.139 -0.1759  0.1196 -0.0862
   86loPI   C2B 1374  17.355   7.341   9.881  0.0236  0.1940 -0.1805
   86loPI   C3B 1375  17.246   7.339   9.337 -0.3986  0.0574  0.1402
   86loPI   C4B 1376  17.352   7.246   9.047  0.4607  0.1290  0.0652
   87loPI    C1 1377  13.899  14.520  10.721 -0.0036  0.0470 -0.0977
   87loPI    C2 1378  13.604  14.600  10.462  0.1220  0.1352 -0.2155
   87loPI    C3 1379  13.548  14.660  10.854 -0.1387 -0.1903 -0.1976
   87loPI   PO4 1380  14.135  14.551  10.538  0.1877  0.2740 -0.1406
   87loPI   GL1 1381  14.511  14.530  10.293 -0.1445  0.0091 -0.0294
   87loPI   GL2 1382  14.759  14.347  10.404  0.1347 -0.4447  0.1577
   87loPI   C1A 1383  14.433  14.636   9.872  0.3177 -0.1872 -0.1061
   87loPI   C2A 1384  14.420  14.536   9.377 -0.3303 -0.3204  0.2684
   87loPI   C3A 1385  14.435  14.562   8.956  0.0773  0.1942  0.2745
   87loPI   C4A 1386  14.347  14.604   8.567 -0.2150  0.1539 -0.2408
   87loPI   C5A 1387  14.521  14.632   8.216  0.2074  0.0975  0.0483
   87loPI   C6A 1388  14.727  14.284   8.000  0.0466 -0.0160 -0.2754
   87loPI   C1B 1389  14.715  14.226   9.892 -0.0511  0.0992 -0.3264
   87loPI   C2B 1390  14.671  14.118   9.466  0.3674  0.1266  0.3359
   87loPI   C3B 1391  14.710  14.110   8.944  0.0607 -0.1896  0.0243
   87loPI   C4B 1392  14.688  14.257   8.492  0.1810 -0.0897  0.0887
   88loPI    C1 1393   5.691  15.575   9.981  0.3263 -0.0401 -0.0137
   88loPI    C2 1394   5.527  15.720   9.646  0.3462 -0.1546 -0.0736
   88loPI    C3 1395   5.668  15.971   9.924  0.1474 -0.0565 -0.0598
   88loPI   PO4 1396   5.743  15.363   9.944 -0.2499  0.1744  0.0694
   88loPI   GL1 1397   5.653  15.222   9.532 -0.0421  0.2347 -0.3655
   88loPI   GL2 1398   5.772  15.412   9.371 -0.0869  0.3194 -0.1505
   88loPI   C1A 1399   5.251  15.013   9.284 -0.0210  0.2538  0.0080
   88loPI   C2A 1400   5.066  15.052   8.850 -0.0722  0.0949  0.1048
   88loPI   C3A 1401   5.065  14.983   8.481  0.3563 -0.3128 -0.2146
   88loPI   C4A 1402   4.939  14.985   8.050 -0.1613  0.1732  0.5019
   88loPI   C5A 1403   4.933  14.992   7.615 -0.1299 -0.1815 -0.0579
   88loPI   C6A 1404   4.854  14.655   7.281  0.1040  0.0468  0.0909
   88loPI   C1B 1405   5.791  15.352   8.941  0.1306  0.2414  0.2719
   88loPI   C2B 1406   5.772  15.389   8.430  0.1226  0.0583 -0.0118
   88loPI   C3B 1407   5.832  15.353   7.959  0.0114 -0.0540 -0.0869
   88loPI   C4B 1408   5.838  15.576   7.608 -0.2133 -0.3181 -0.3442
   89loPI    C1 1409   2.217   4.508  10.482  0.0018  0.0887 -0.1683
   89loPI    C2 1410   2.209   4.872  10.646 -0.2193  0.0209 -0.0238
   89loPI    C3 1411   2.151   4.549  10.874  0.4941 -0.1444 -0.0531
   89loPI   PO4 1412   2.106   4.475  10.277 -0.0169 -0.0176 -0.5938
   89loPI   GL1 1413   2.080   4.327   9.884  0.3264 -0.3005 -0.0489
   89loPI   GL2 1414   2.347   4.592   9.868 -0.1259  0.4222  0.0724
   89loPI   C1A 1415   2.060   4.280   9.463 -0.3065  0.1923 -0.1285
   89loPI   C2A 1416   2.034   4.337   9.005 -0.0260 -0.1566  0.0328
   89loPI   C3A 1417   2.100   4.298   8.560  0.2857  0.2506  0.3469
   89loPI   C4A 1418   2.079   4.504   8.102 -0.0832  0.0219 -0.1342
   89loPI   C5A 1419   2.029   4.669   7.726  0.1991  0.1547  0.0856
   89loPI   C6A 1420   1.751   4.821   7.383  0.1454 -0.0287 -0.2439
   89loPI   C1B 1421   2.330   4.718   9.439  0.2063  0.2030 -0.0012
   89loPI   C2B 1422   2.351   4.812   9.003  0.1197 -0.4019  0.1763
   89loPI   C3B 1423   2.352   4.702   8.479  0.4299  0.1007 -0.1538
   89loPI   C4B 1424   2.485   4.759   8.001  0.2384 -0.1036 -0.1413
   90loPI    C1 1425   1.890   9.946  10.395  0.0738  0.2729  0.0098
   90loPI    C2 1426   1.534   9.812  10.520 -0.0352  0.3457 -0.2181
   90loPI    C3 1427   1.825   9.884  10.785 -0.0831 -0.0213 -0.0604
   90loPI   PO4 1428   1.913   9.805  10.170 -0.1909 -0.2454  0.1615
   90loPI   GL1 1429   2.128   9.940   9.948 -0.0058  0.0243 -0.0580
   90loPI   GL2 1430   2.019  10.162   9.683  0.2406 -0.3277 -0.1173
   90loPI   C1A 1431   2.361   9.804   9.543  0.2112 -0.1139  0.0004
   90loPI   C2A 1432   2.362   9.871   9.096 -0.2699  0.0941  0.1491
   90loPI   C3A 1433   2.187   9.758   8.675 -0.3743  0.0732  0.0173
   90loPI   C4A 1434   2.380   9.910   8.357 -0.0242  0.0392  0.1144
   90loPI   C5A 1435   2.413   9.943   7.932 -0.0254  0.0615  0.1903
   90loPI   C6A 1436   2.477  10.048   7.492 -0.0423 -0.0835 -0.0790
   90loPI   C1B 1437   2.060  10.235   9.300  0.0595  0.3523 -0.1778
   90loPI   C2B 1438   2.024  10.284   8.923  0.1283 -0.0525 -0.0102
   90loPI   C3B 1439   1.911  10.195   8.493  0.0928  0.2916 -0.0105
   90loPI   C4B 1440   1.886  10.343   8.167  0.1428  0.1746  0.3078
   91loPI    C1 1441   8.830  18.357  10.163  0.2122 -0.0500 -0.0600
   91loPI    C2 1442   8.678  18.107  10.436 -0.0343 -0.0907 -0.2314
   91loPI    C3 1443   8.771  18.482  10.538  0.0889 -0.1724 -0.0377
   91loPI   PO4 1444   8.761  18.150   9.950 -0.1103 -0.1245  0.3684
   91loPI   GL1 1445   8.412  18.203   9.630 -0.2556 -0.1935  0.3105
   91loPI   GL2 1446   8.201  18.193   9.324 -0.0922 -0.0034 -0.1760
   91loPI   C1A 1447   8.722  18.181   9.286  0.1169  0.0838 -0.2335
   91loPI   C2A 1448   8.749  18.398   8.806  0.0700 -0.0839  0.0999
   91loPI   C3A 1449   8.857  18.431   8.332 -0.0933 -0.0847  0.0398
   91loPI   C4A 1450   8.905  18.507   7.843  0.2338  0.1868 -0.0909
   91loPI   C5A 1451   8.688  18.534   7.463  0.3647  0.1321 -0.0430
   91loPI   C6A 1452   8.403  18.730   7.327 -0.2359 -0.1562  0.0920
   91loPI   C1B 1453   8.179  18.362   8.924  0.0261  0.0237  0.2074
   91loPI   C2B 1454   8.278  18.399   8.540  0.1535 -0.0507  0.0146
   91loPI   C3B 1455   8.365  18.506   8.133 -0.1582 -0.0050  0.0805
   91loPI   C4B 1456   8.161  18.431   7.715 -0.0287  0.1243 -0.1522
   92loPI    C1 1457   4.301  11.884  10.216  0.1583  0.0154 -0.0847
   92loPI    C2 1458   4.626  11.852  10.447 -0.0072 -0.1730  0.1263
   92loPI    C3 1459   4.356  12.138  10.519  0.1233  0.0013 -0.0665
   92loPI   PO4 1460   4.290  11.611  10.085  0.2051  0.2251  0.1296
   92loPI   GL1 1461   4.196  11.505   9.722  0.3027 -0.1352 -0.0672
   92loPI   GL2 1462   4.183  11.249   9.534 -0.0411 -0.0371 -0.2291
   92loPI   C1A 1463   4.447  11.694   9.420  0.5288  0.2399 -0.0476
   92loPI   C2A 1464   4.411  11.749   8.996  0.0166  0.0615 -0.1698
   92loPI   C3A 1465   4.466  11.824   8.586 -0.0089 -0.2431  0.1830
   92loPI   C4A 1466   4.412  11.707   8.090 -0.2235  0.0204 -0.1541
   92loPI   C5A 1467   4.322  11.548   7.669 -0.3528 -0.1424 -0.0546
   92loPI   C6A 1468   4.483  11.583   7.311  0.1369 -0.4276  0.0835
   92loPI   C1B 1469   4.086  11.334   9.151 -0.4176 -0.1858  0.2219
   92loPI   C2B 1470   4.160  11.396   8.703  0.0845  0.0290  0.2757
   92loPI   C3B 1471   4.180  11.209   8.342  0.1464 -0.0383  0.3054
   92loPI   C4B 1472   3.992  11.184   7.818 -0.2196  0.1753  0.0065
   93loPI    C1 1473   5.474   7.976  10.336 -0.3424  0.2012 -0.0206
   93loPI    C2 1474   5.370   8.029  10.719  0.1461  0.1483  0.1270
   93loPI    C3 1475   5.524   7.679  10.600  0.0098  0.1693 -0.1176
   93loPI   PO4 1476   5.195   8.035  10.131  0.1860 -0.1706  0.2050
   93loPI   GL1 1477   5.146   8.217   9.793 -0.1927  0.1858 -0.0446
   93loPI   GL2 1478   5.434   8.187   9.673 -0.1495  0.0337 -0.0458
   93loPI   C1A 1479   5.027   8.092   9.425  0.0901 -0.2785  0.1642
   93loPI   C2A 1480   5.052   8.106   8.927 -0.0126  0.0930 -0.3997
   93loPI   C3A 1481   4.945   8.128   8.520 -0.0932  0.0388  0.1207
   93loPI   C4A 1482   4.910   8.077   8.153 -0.0951  0.1925 -0.0537
   93loPI   C5A 1483   4.882   7.954   7.720  0.0046  0.1779  0.4074
   93loPI   C6A 1484   4.758   8.195   7.350  0.0727 -0.0273 -0.2449
   93loPI   C1B 1485   5.530   8.154   9.276  0.0138  0.4828 -0.3088
   93loPI   C2B 1486   5.545   8.035   8.850 -0.0885  0.1668 -0.0932
   93loPI   C3B 1487   5.586   8.073   8.407 -0.0281 -0.0208 -0.1114
   93loPI   C4B 1488   5.462   8.095   8.010 -0.0424  0.2438 -0.1257
   94loPI    C1 1489   4.498   6.772  10.566 -0.2690 -0.0894 -0.0099
   94loPI    C2 1490   4.769   6.688  10.849  0.2054  0.1729 -0.3722
   94loPI    C3 1491   4.411   6.836  10.952  0.1356 -0.3102  0.1238
   94loPI   PO4 1492   4.636   6.841  10.407 -0.0924 -0.0226  0.3088
   94loPI   GL1 1493   4.537   7.084  10.022  0.0863  0.1591  0.1184
   94loPI   GL2 1494   4.782   6.812   9.954 -0.2170  0.2424 -0.0438
   94loPI   C1A 1495   4.614   7.043   9.537 -0.2962  0.0834  0.0881
   94loPI   C2A 1496   4.691   7.086   9.046 -0.4354 -0.3209 -0.1246
   94loPI   C3A 1497   4.544   7.076   8.656  0.3775 -0.0413 -0.6903
   94loPI   C4A 1498   4.519   7.136   8.241  0.1775 -0.0738  0.1448
   94loPI   C5A 1499   4.144   7.149   7.841  0.1185  0.1340  0.0529
   94loPI   C6A 1500   4.053   7.540   7.789 -0.1711  0.2216  0.0224
   94loPI   C1B 1501   4.882   6.642   9.691  0.1827  0.0614 -0.0274
   94loPI   C2B 1502   4.847   6.644   9.224 -0.0617  0.1146  0.1699
   94loPI   C3B 1503   4.909   6.705   8.793 -0.2866  0.3348 -0.2021
   94loPI   C4B 1504   4.748   6.702   8.418 -0.0689 -0.2018  0.2399
   95loPI    C1 1505   4.827  12.337  10.434 -0.1453  0.1769 -0.2943
   95loPI    C2 1506   4.933  12.697  10.296 -0.0868  0.2634 -0.0300
   95loPI    C3 1507   5.213  12.424  10.378 -0.1097  0.2704  0.0719
   95loPI   PO4 1508   4.610  12.269  10.124 -0.0906 -0.2954  0.1108
   95loPI   GL1 1509   4.554  12.196   9.677 -0.1812  0.3483  0.1498
   95loPI   GL2 1510   4.262  12.040   9.731  0.0965 -0.2075  0.0741
   95loPI   C1A 1511   4.706  12.170   9.204  0.0695 -0.0142  0.1346
   95loPI   C2A 1512   4.716  12.246   8.788  0.2949 -0.1309  0.3667
   95loPI   C3A 1513   4.643  12.206   8.324  0.0873  0.0763 -0.1726
   95loPI   C4A 1514   4.573  12.304   7.981 -0.1832 -0.1653  0.2803
   95loPI   C5A 1515   4.401  12.584   7.685  0.2619 -0.0362 -0.1109
   95loPI   C6A 1516   4.075  12.887   7.544  0.1026  0.1814 -0.1133
   95loPI   C1B 1517   4.168  12.126   9.225 -0.4709  0.2433 -0.0465
   95loPI   C2B 1518   4.155  12.250   8.868 -0.1306 -0.0104 -0.3710
   95loPI   C3B 1519   4.151  12.300   8.472  0.1222 -0.0956  0.1848
   95loPI   C4B 1520   4.118  12.152   8.117  0.0959 -0.3341 -0.1593
   96loPI    C1 1521   9.344   3.138  10.349 -0.1944 -0.0941 -0.1020
   96loPI    C2 1522   9.438   3.050  10.727 -0.0582  0.2112 -0.0615
   96loPI    C3 1523   9.311   2.762  10.480  0.1544 -0.0490  0.1269
   96loPI   PO4 1524   9.540   3.291  10.239  0.2050 -0.3805 -0.4116
   96loPI   GL1 1525   9.485   3.352   9.843  0.0821  0.0997  0.1351
   96loPI   GL2 1526   9.226   3.566   9.822  0.1589  0.2708 -0.2273
   96loPI   C1A 1527   9.229   3.163   9.553 -0.0912 -0.2659  0.1062
   96loPI   C2A 1528   9.149   3.206   9.158  0.2973  0.2036  0.1481
   96loPI   C3A 1529   9.188   3.092   8.659  0.1597 -0.1703 -0.0167
   96loPI   C4A 1530   9.244   3.140   8.221 -0.1496 -0.0807 -0.1631
   96loPI   C5A 1531   9.371   3.259   7.844  0.3539 -0.0748  0.0963
   96loPI   C6A 1532   9.405   3.487   7.470 -0.5763  0.0515  0.0908
   96loPI   C1B 1533   9.426   3.674   9.449 -0.1861  0.0511 -0.3800
   96loPI   C2B 1534   9.384   3.611   8.978  0.1123  0.1137  0.1102
   96loPI   C3B 1535   9.421   3.610   8.466  0.3380 -0.1016  0.0189
   96loPI   C4B 1536   9.511   3.691   8.042 -0.2588 -0.0650 -0.3013
   97loPI    C1 1537  15.672  14.870  11.170 -0.0595  0.0009  0.0751
   97loPI    C2 1538  15.297  14.763  11.258 -0.0424 -0.1506 -0.0331
   97loPI    C3 1539  15.387  15.149  11.200 -0.0808 -0.0584  0.4801
   97loPI   PO4 1540  15.770  14.646  10.955 -0.1141 -0.1312  0.0771
   97loPI   GL1 1541  15.581  14.497  10.486 -0.0402  0.0219 -0.0181
   97loPI   GL2 1542  15.214  14.550  10.322 -0.2691  0.0026 -0.3434
   97loPI   C1A 1543  15.664  14.565  10.032 -0.0080 -0.0298 -0.2165
   97loPI   C2A 1544  15.563  14.590   9.568 -0.3868 -0.2619  0.0991
   97loPI   C3A 1545  15.560  14.600   9.131 -0.0915 -0.3896 -0.2910
   97loPI   C4A 1546  15.576  14.670   8.684 -0.0157  0.4450  0.0635
   97loPI   C5A 1547  16.019  14.634   8.294 -0.0760  0.2511  0.0937
   97loPI   C6A 1548  16.297  14.279   8.273  0.2200  0.3870  0.0882
   97loPI   C1B 1549  15.303  14.271   9.928 -0.1252 -0.1264  0.1580
   97loPI   C2B 1550  15.140  14.184   9.630 -0.2222 -0.0520  0.0779
   97loPI   C3B 1551  15.336  14.135   9.183 -0.1126  0.0137  0.0245
   97loPI   C4B 1552  15.411  14.203   8.701  0.1414  0.4101 -0.3166
   98loPI    C1 1553   8.401   0.839  10.614  0.1081 -0.1740  0.2867
   98loPI    C2 1554   8.045   0.660  10.575  0.0432  0.0177 -0.0388
   98loPI    C3 1555   8.092   0.957  10.839  0.0154 -0.1372  0.1420
   98loPI   PO4 1556   8.524   0.934  10.379  0.0909  0.0791 -0.1036
   98loPI   GL1 1557   8.857   0.770  10.074 -0.0753 -0.0691 -0.1873
   98loPI   GL2 1558   8.669   1.052   9.845  0.0791  0.2056  0.0205
   98loPI   C1A 1559   9.011   0.815   9.554  0.0239 -0.0557  0.2761
   98loPI   C2A 1560   9.010   0.837   9.029  0.1383 -0.0790 -0.0318
   98loPI   C3A 1561   9.001   0.854   8.577  0.0597 -0.0061 -0.1735
   98loPI   C4A 1562   8.995   0.930   8.170  0.3227  0.1430 -0.0344
   98loPI   C5A 1563   8.992   0.962   7.688 -0.2023  0.0216 -0.0239
   98loPI   C6A 1564   8.966   0.511   7.561  0.0189 -0.0202  0.0646
   98loPI   C1B 1565   8.525   0.690   9.661 -0.0016  0.1277 -0.2647
   98loPI   C2B 1566   8.533   0.715   9.254 -0.1563 -0.0407 -0.0194
   98loPI   C3B 1567   8.494   0.731   8.798  0.1718 -0.1641 -0.0260
   98loPI   C4B 1568   8.533   0.839   8.366 -0.0695  0.0553  0.0666
   99loPI    C1 1569   7.361  18.175   9.612  0.0756 -0.3333 -0.0684
   99loPI    C2 1570   7.518  17.969   9.917  0.0708  0.0038  0.1667
   99loPI    C3 1571   7.126  18.047   9.909  0.0739  0.0119  0.0841
   99loPI   PO4 1572   7.591  18.142   9.462 -0.4069 -0.1084  0.2027
   99loPI   GL1 1573   7.662  18.363   9.103  0.1900 -0.1001  0.0688
   99loPI   GL2 1574   7.356  18.519   9.193 -0.0021 -0.0126  0.0457
   99loPI   C1A 1575   7.782  18.204   8.698 -0.1880  0.0801 -0.1198
   99loPI   C2A 1576   7.872  18.322   8.211 -0.0784  0.1286 -0.1035
   99loPI   C3A 1577   7.722  18.384   7.821  0.2662 -0.0191 -0.1233
   99loPI   C4A 1578   7.722  18.503   7.351  0.0608 -0.0416 -0.0307
   99loPI   C5A 1579   7.967  18.845   7.190  0.1365  0.1653  0.0051
   99loPI   C6A 1580   8.113  19.382   7.143  0.0678 -0.1335 -0.3669
   99loPI   C1B 1581   7.458  18.713   8.699 -0.0016 -0.1484  0.0093
   99loPI   C2B 1582   7.479  18.864   8.287 -0.3100  0.3689  0.1929
   99loPI   C3B 1583   7.345  18.979   7.906  0.2228  0.1657  0.0473
   99loPI   C4B 1584   7.572  19.001   7.519 -0.3399  0.0652 -0.3478
  100loPI    C1 1585  13.108   0.329  10.686 -0.0153 -0.0943 -0.1186
  100loPI    C2 1586  12.866   0.014  10.639 -0.1033 -0.0586  0.0829
  100loPI    C3 1587  12.712   0.378  10.698 -0.0006 -0.0171  0.0987
  100loPI   PO4 1588  13.292   0.412  10.358 -0.3348  0.0339  0.1967
  100loPI   GL1 1589  13.256   0.383  10.015 -0.2179 -0.2927  0.1007
  100loPI   GL2 1590  13.581   0.477   9.904  0.1457 -0.3375  0.0427
  100loPI   C1A 1591  12.968   0.585   9.650 -0.0814 -0.2964 -0.0263
  100loPI   C2A 1592  12.997   0.564   9.154 -0.1498 -0.1548  0.2816
  100loPI   C3A 1593  13.011   0.589   8.629 -0.0004 -0.1179 -0.1962
  100loPI   C4A 1594  12.929   0.587   8.122 -0.0561  0.1130  0.3624
  100loPI   C5A 1595  13.131   0.588   7.793 -0.0043 -0.1397 -0.0893
  100loPI   C6A 1596  13.547   0.821   7.703  0.3321  0.4285 -0.1481
  100loPI   C1B 1597  13.445   0.630   9.573 -0.1515 -0.1685 -0.0751
  100loPI   C2B 1598  13.441   0.730   9.161 -0.3093  0.1814 -0.0195
  100loPI   C3B 1599  13.511   0.658   8.663  0.1430 -0.1232  0.1669
  100loPI   C4B 1600  13.490   0.655   8.214  0.0621  0.0372 -0.0373
  101loPI    C1 1601   0.436   2.623  10.474  0.1044 -0.1816 -0.0076
  101loPI    C2 1602   0.586   2.957  10.635  0.0500 -0.0380 -0.2487
  101loPI    C3 1603   0.559   2.623  10.854 -0.1030  0.1749  0.0644
  101loPI   PO4 1604   0.529   2.780  10.131 -0.2722 -0.2268 -0.1565
  101loPI   GL1 1605   0.308   2.960   9.896  0.1446  0.0858  0.0041
  101loPI   GL2 1606   0.537   3.141   9.754 -0.0530  0.1557 -0.0637
  101loPI   C1A 1607   0.306   2.896   9.434  0.0850  0.0052 -0.1879
  101loPI   C2A 1608   0.376   2.879   9.054  0.1515  0.1669 -0.1342
  101loPI   C3A 1609   0.466   2.818   8.602  0.1849  0.1705 -0.1252
  101loPI   C4A 1610   0.341   2.819   8.189  0.1596  0.0340 -0.3271
  101loPI   C5A 1611   0.369   3.086   7.827  0.2992  0.0886 -0.1271
  101loPI   C6A 1612   0.686   3.197   7.480 -0.2632  0.1035  0.0250
  101loPI   C1B 1613   0.552   3.346   9.298 -0.2658 -0.0773  0.0562
  101loPI   C2B 1614   0.590   3.285   8.804 -0.2741  0.0071  0.0417
  101loPI   C3B 1615   0.614   3.290   8.417  0.0403  0.1341  0.1126
  101loPI   C4B 1616   0.878   3.274   8.111  0.1523  0.1138 -0.0388
  102loPI    C1 1617  18.388   8.574  10.644  0.0837  0.1629 -0.0400
  102loPI    C2 1618  18.135   8.801  10.856 -0.1881 -0.0977 -0.0781
  102loPI    C3 1619  18.217   8.429  10.976  0.0024 -0.0934 -0.1914
  102loPI   PO4 1620  18.350   8.693  10.394  0.1578 -0.0047  0.1854
  102loPI   GL1 1621  18.151   8.833   9.977 -0.1166 -0.0956 -0.0194
  102loPI   GL2 1622  18.248   8.482   9.920  0.1158  0.0787 -0.2131
  102loPI   C1A 1623  18.028   8.804   9.463  0.3715 -0.1266 -0.1784
  102loPI   C2A 1624  18.034   8.585   9.106 -0.0812 -0.2255  0.2297
  102loPI   C3A 1625  18.072   8.567   8.624  0.1174  0.1797  0.1121
  102loPI   C4A 1626  18.186   8.603   8.252  0.2256  0.2218 -0.0310
  102loPI   C5A 1627  18.304   8.762   7.788  0.0269 -0.1562 -0.0501
  102loPI   C6A 1628  18.761   8.731   7.690  0.0783  0.1869 -0.0666
  102loPI   C1B 1629  18.346   8.237   9.578  0.0153 -0.2741  0.0373
  102loPI   C2B 1630  18.370   8.190   9.164  0.0247 -0.1364 -0.0791
  102loPI   C3B 1631  18.390   8.148   8.723 -0.1041  0.1227  0.0729
  102loPI   C4B 1632  18.412   8.145   8.382 -0.0544 -0.1790 -0.1256
  103loPI    C1 1633   1.119   6.777  10.711 -0.1021 -0.0263 -0.2040
  103loPI    C2 1634   1.353   7.101  10.686  0.1630 -0.1828  0.1561
  103loPI    C3 1635   1.078   7.074  10.975  0.1808 -0.3036  0.1624
  103loPI   PO4 1636   0.975   6.767  10.428 -0.0105 -0.0907  0.0321
  103loPI   GL1 1637   0.954   6.616  10.143  0.2414 -0.0135  0.2217
  103loPI   GL2 1638   1.213   6.634  10.032  0.0727 -0.0383  0.1229
  103loPI   C1A 1639   0.663   6.568   9.881 -0.0168 -0.0788 -0.2999
  103loPI   C2A 1640   0.645   6.529   9.457 -0.2875 -0.1301 -0.2604
  103loPI   C3A 1641   0.799   6.453   9.010  0.2494  0.0734 -0.0260
  103loPI   C4A 1642   0.675   6.439   8.669 -0.0776 -0.1382 -0.4921
  103loPI   C5A 1643   0.753   6.546   8.174  0.1592  0.2195 -0.0172
  103loPI   C6A 1644   1.016   6.779   7.905 -0.0641  0.1743  0.2142
  103loPI   C1B 1645   1.207   6.445   9.632  0.3258  0.0894  0.0933
  103loPI   C2B 1646   1.239   6.500   9.263 -0.1930  0.0491  0.0631
  103loPI   C3B 1647   1.324   6.514   8.893  0.2036  0.3606  0.2134
  103loPI   C4B 1648   1.191   6.460   8.438  0.0866  0.0646 -0.2982
  104loPI    C1 1649   9.280  10.005   9.797 -0.0277 -0.0879  0.1544
  104loPI    C2 1650   9.526  10.100  10.097  0.0246 -0.0155  0.0889
  104loPI    C3 1651   9.136  10.046  10.168  0.0515 -0.0840  0.1847
  104loPI   PO4 1652   9.431   9.806   9.609 -0.0568 -0.0317 -0.3047
  104loPI   GL1 1653   9.574   9.669   9.271  0.1482  0.2317  0.2020
  104loPI   GL2 1654   9.425   9.863   9.055  0.2311  0.2637 -0.1762
  104loPI   C1A 1655   9.796   9.374   8.900 -0.0832 -0.0996  0.4123
  104loPI   C2A 1656   9.861   9.244   8.481  0.1458 -0.0849  0.1925
  104loPI   C3A 1657   9.766   9.303   8.035 -0.0066 -0.2922  0.0815
  104loPI   C4A 1658   9.516   9.246   7.678 -0.1024 -0.0661 -0.0087
  104loPI   C5A 1659   9.393   9.071   7.246  0.0218 -0.0525 -0.1761
  104loPI   C6A 1660   9.589   9.096   6.800 -0.2335 -0.1176 -0.0132
  104loPI   C1B 1661   9.468   9.692   8.724  0.2716  0.1112  0.0783
  104loPI   C2B 1662   9.469   9.620   8.307 -0.1466 -0.2262 -0.2364
  104loPI   C3B 1663   9.304   9.644   7.887  0.0779  0.1822  0.0662
  104loPI   C4B 1664   9.183   9.575   7.553  0.0922 -0.0630  0.0880
  105loPI    C1 1665  13.072   7.636  10.467  0.0102 -0.0178 -0.1603
  105loPI    C2 1666  13.064   7.872  10.790  0.1323 -0.0098 -0.1625
  105loPI    C3 1667  12.958   7.487  10.820 -0.2575  0.0901 -0.1990
  105loPI   PO4 1668  13.001   7.778  10.194  0.1285 -0.2185  0.2721
  105loPI   GL1 1669  13.192   7.747   9.878  0.2221  0.1451 -0.0001
  105loPI   GL2 1670  13.421   7.591   9.623 -0.2561 -0.1342 -0.0714
  105loPI   C1A 1671  13.025   8.031   9.494  0.0215 -0.1225  0.0611
  105loPI   C2A 1672  13.106   7.991   9.129  0.0005 -0.0106  0.1046
  105loPI   C3A 1673  13.170   7.950   8.676  0.2661 -0.1750 -0.3684
  105loPI   C4A 1674  13.088   7.979   8.262  0.0898 -0.2429  0.0928
  105loPI   C5A 1675  13.228   7.958   7.918 -0.4584 -0.2930  0.2227
  105loPI   C6A 1676  13.494   7.775   7.653  0.1833  0.0611 -0.1014
  105loPI   C1B 1677  13.434   7.539   9.216  0.1128 -0.1149  0.0694
  105loPI   C2B 1678  13.475   7.597   8.810  0.1643  0.3190  0.3037
  105loPI   C3B 1679  13.449   7.621   8.441 -0.0355  0.1020 -0.1576
  105loPI   C4B 1680  13.524   7.431   8.093  0.1443 -0.0817  0.0257
  106loPI    C1 1681   6.169   8.489  10.257  0.1801  0.2626 -0.1140
  106loPI    C2 1682   6.561   8.529  10.324  0.1691 -0.0102  0.1304
  106loPI    C3 1683   6.305   8.518  10.631  0.0060 -0.1868 -0.0093
  106loPI   PO4 1684   6.134   8.501  10.005  0.6790  0.3288 -0.3881
  106loPI   GL1 1685   5.836   8.525   9.656  0.0245 -0.3589  0.2316
  106loPI   GL2 1686   6.145   8.617   9.561 -0.0797 -0.2153 -0.3737
  106loPI   C1A 1687   5.809   8.561   9.211  0.1861 -0.0722  0.1444
  106loPI   C2A 1688   5.809   8.572   8.778  0.1298 -0.2119  0.0495
  106loPI   C3A 1689   5.682   8.558   8.335  0.0392  0.0238  0.0749
  106loPI   C4A 1690   5.758   8.474   8.063  0.1369  0.1769 -0.0414
  106loPI   C5A 1691   5.577   8.631   7.758  0.0593 -0.0377  0.1065
  106loPI   C6A 1692   5.171   8.402   7.754 -0.0448 -0.2241 -0.2368
  106loPI   C1B 1693   6.348   8.571   9.086 -0.0219 -0.3844  0.0410
  106loPI   C2B 1694   6.282   8.570   8.643  0.2899  0.5104 -0.0796
  106loPI   C3B 1695   6.335   8.515   8.215 -0.2393  0.0867  0.1420
  106loPI   C4B 1696   6.485   8.170   7.830  0.1141 -0.3275  0.2147
  107loPI    C1 1697  13.762   4.878  10.350  0.0127  0.1031 -0.1756
  107loPI    C2 1698  14.059   5.115  10.476 -0.1494  0.2673 -0.0967
  107loPI    C3 1699  13.779   4.991  10.733  0.0249 -0.1506 -0.0994
  107loPI   PO4 1700  13.831   4.754  10.094 -0.1985 -0.0745 -0.0675
  107loPI   GL1 1701  13.775   4.327   9.891  0.0326  0.0201  0.2211
  107loPI   GL2 1702  13.476   4.421   9.745  0.1710  0.0225  0.0016
  107loPI   C1A 1703  13.893   4.361   9.359 -0.2031 -0.0363 -0.0163
  107loPI   C2A 1704  13.910   4.256   8.854 -0.0241 -0.3091 -0.2726
  107loPI   C3A 1705  13.940   4.300   8.355 -0.0071 -0.2890 -0.0375
  107loPI   C4A 1706  13.886   4.481   7.875  0.0280 -0.1169 -0.0061
  107loPI   C5A 1707  14.022   4.268   7.605 -0.0644  0.1036 -0.0310
  107loPI   C6A 1708  14.387   4.159   7.449  0.1590 -0.0125  0.0317
  107loPI   C1B 1709  13.373   4.291   9.362  0.0460  0.2003  0.2782
  107loPI   C2B 1710  13.352   4.164   8.918  0.0189  0.0863  0.1273
  107loPI   C3B 1711  13.231   4.268   8.525 -0.1402 -0.0990 -0.0472
  107loPI   C4B 1712  13.458   4.346   8.220 -0.0114  0.0888  0.0095
  108loPI    C1 1713   4.349   4.823  10.461 -0.0850  0.1298  0.1556
  108loPI    C2 1714   4.092   4.877  10.763 -0.1061  0.1209  0.1391
  108loPI    C3 1715   3.959   4.759  10.404 -0.0921  0.2190  0.1014
  108loPI   PO4 1716   4.445   5.003  10.476  0.1146  0.1048  0.1954
  108loPI   GL1 1717   4.603   5.190  10.063 -0.2280  0.2986 -0.3110
  108loPI   GL2 1718   4.413   4.987   9.959  0.1563  0.0161  0.4870
  108loPI   C1A 1719   4.791   5.405   9.648  0.1127 -0.1536 -0.3292
  108loPI   C2A 1720   4.789   5.321   9.142  0.0053  0.0287 -0.0279
  108loPI   C3A 1721   4.554   5.395   8.767 -0.0529 -0.0995 -0.0998
  108loPI   C4A 1722   4.699   5.313   8.330  0.0518  0.6139  0.0693
  108loPI   C5A 1723   4.772   5.248   7.913  0.0047  0.1447 -0.0783
  108loPI   C6A 1724   4.878   4.888   7.589 -0.2582 -0.0376  0.0673
  108loPI   C1B 1725   4.312   5.377   9.736  0.3061  0.0855  0.1762
  108loPI   C2B 1726   4.185   5.302   9.343  0.3147  0.1937  0.0504
  108loPI   C3B 1727   4.093   5.377   8.895  0.0832 -0.1898 -0.0803
  108loPI   C4B 1728   4.108   5.273   8.442 -0.0976  0.2356 -0.3997
  109loPI    C1 1729   4.987  17.439  10.218  0.0020 -0.0504  0.2129
  109loPI    C2 1730   5.352  17.283  10.267  0.0611  0.0333  0.0453
  109loPI    C3 1731   5.136  17.390  10.586  0.2122  0.0509  0.1425
  109loPI   PO4 1732   4.901  17.175  10.062  0.1375  0.0766  0.0722
  109loPI   GL1 1733   4.835  17.026   9.755  0.0517  0.1612  0.1380
  109loPI   GL2 1734   4.557  17.146   9.686  0.0261 -0.0904 -0.0866
  109loPI   C1A 1735   4.961  16.929   9.274  0.0183 -0.0494  0.0365
  109loPI   C2A 1736   4.998  16.877   8.826  0.1334 -0.1406 -0.0395
  109loPI   C3A 1737   4.985  16.841   8.392  0.1466  0.2567  0.0415
  109loPI   C4A 1738   4.980  16.781   7.935 -0.1321  0.1358 -0.1619
  109loPI   C5A 1739   4.721  16.867   7.565 -0.4051 -0.0117 -0.1466
  109loPI   C6A 1740   4.583  17.247   7.258  0.0824  0.0751  0.1011
  109loPI   C1B 1741   4.494  16.888   9.279  0.0679 -0.1177  0.1963
  109loPI   C2B 1742   4.339  16.764   8.770  0.0893  0.1819  0.0857
  109loPI   C3B 1743   4.484  16.681   8.342 -0.1226  0.0422  0.0308
  109loPI   C4B 1744   4.327  16.767   7.886 -0.2640  0.1265 -0.2842
  110loPI    C1 1745   1.740   4.855  10.750 -0.2267  0.0387 -0.1522
  110loPI    C2 1746   1.595   4.544  10.956  0.0541  0.0327  0.0416
  110loPI    C3 1747   1.736   4.865  11.150  0.2403  0.0641 -0.1429
  110loPI   PO4 1748   1.775   4.753  10.493  0.2757 -0.1955  0.1087
  110loPI   GL1 1749   1.833   4.820  10.104  0.0189 -0.0558  0.0664
  110loPI   GL2 1750   2.112   5.023   9.999  0.0303 -0.1873  0.1378
  110loPI   C1A 1751   1.803   4.725   9.655 -0.0264 -0.0746  0.2870
  110loPI   C2A 1752   1.782   4.707   9.220  0.0249 -0.0562  0.1724
  110loPI   C3A 1753   1.874   4.777   8.684  0.1902  0.1874 -0.0340
  110loPI   C4A 1754   1.631   4.898   8.310  0.1883  0.3541 -0.0033
  110loPI   C5A 1755   1.828   5.079   7.898 -0.0876 -0.3778 -0.0933
  110loPI   C6A 1756   2.079   5.371   7.812 -0.1062  0.1756  0.1092
  110loPI   C1B 1757   2.094   5.146   9.574  0.1261  0.3456  0.0110
  110loPI   C2B 1758   2.140   5.221   9.198  0.1074  0.1377  0.0612
  110loPI   C3B 1759   2.093   5.205   8.737 -0.0653 -0.2662  0.6077
  110loPI   C4B 1760   2.119   5.101   8.325  0.0234  0.0185 -0.1303
  111loPI    C1 1761   3.070   1.808  10.266 -0.3176  0.3018  0.1170
  111loPI    C2 1762   2.824   1.728  10.571 -0.1459  0.1411  0.2154
  111loPI    C3 1763   3.217   1.768  10.636 -0.1160  0.1683  0.0247
  111loPI   PO4 1764   2.828   1.899  10.060 -0.1816 -0.0940  0.0339
  111loPI   GL1 1765   2.993   2.079   9.651  0.2812  0.0750  0.1989
  111loPI   GL2 1766   2.655   2.191   9.673  0.0688  0.1760  0.0398
  111loPI   C1A 1767   3.006   2.123   9.185 -0.3627 -0.2506 -0.1141
  111loPI   C2A 1768   3.023   2.060   8.686  0.0720 -0.1190 -0.0209
  111loPI   C3A 1769   3.038   1.990   8.266  0.1294 -0.1002 -0.2997
  111loPI   C4A 1770   3.002   1.995   7.909 -0.2458  0.0142  0.0557
  111loPI   C5A 1771   3.198   2.033   7.605 -0.1250 -0.0472  0.0458
  111loPI   C6A 1772   3.044   1.897   7.284  0.1284 -0.2016  0.4357
  111loPI   C1B 1773   2.545   2.027   9.296 -0.0345 -0.3421  0.2144
  111loPI   C2B 1774   2.509   2.030   8.755 -0.1232 -0.0158 -0.4768
  111loPI   C3B 1775   2.480   1.886   8.323 -0.0536 -0.2800  0.0047
  111loPI   C4B 1776   2.481   2.054   7.945 -0.1611 -0.2705 -0.0534
  112loPI    C1 1777   9.862  13.543   9.815 -0.0931 -0.2344 -0.1739
  112loPI    C2 1778   9.904  13.353  10.164  0.0860  0.0436 -0.0400
  112loPI    C3 1779   9.884  13.752  10.155  0.0419  0.0372 -0.3454
  112loPI   PO4 1780  10.050  13.376   9.634 -0.1239  0.2306  0.0539
  112loPI   GL1 1781  10.131  13.393   9.211  0.0145  0.1693 -0.0003
  112loPI   GL2 1782  10.361  13.322   9.059 -0.0469  0.0564  0.1301
  112loPI   C1A 1783   9.910  13.393   8.811  0.0297  0.0657  0.1067
  112loPI   C2A 1784   9.820  13.496   8.472 -0.4674 -0.0642 -0.0451
  112loPI   C3A 1785   9.871  13.581   8.034  0.2369  0.0792 -0.1855
  112loPI   C4A 1786   9.827  13.681   7.656 -0.0070 -0.4191 -0.0076
  112loPI   C5A 1787   9.818  13.839   7.230 -0.0953  0.0665  0.0480
  112loPI   C6A 1788   9.749  14.077   7.022  0.1722 -0.0732  0.2479
  112loPI   C1B 1789  10.318  13.596   8.592 -0.1793  0.2632  0.0581
  112loPI   C2B 1790  10.350  13.563   8.225  0.1955 -0.1155  0.2783
  112loPI   C3B 1791  10.283  13.458   7.760  0.0722 -0.1958 -0.0876
  112loPI   C4B 1792  10.015  13.250   7.534  0.2045 -0.2610  0.4439
  113loPI    C1 1793  15.642   6.737  10.560  0.0215 -0.3183 -0.1455
  113loPI    C2 1794  15.671   6.641  10.947  0.0380  0.4281  0.0537
  113loPI    C3 1795  15.953   6.520  10.690 -0.0597 -0.2160  0.2311
  113loPI   PO4 1796  15.465   6.926  10.578  0.3563  0.1707 -0.0999
  113loPI   GL1 1797  15.469   7.079  10.217 -0.1193  0.0929 -0.0298
  113loPI   GL2 1798  15.850   7.225  10.233  0.0263 -0.1120  0.0546
  113loPI   C1A 1799  15.855   6.776  10.032  0.2008 -0.1905  0.2658
  113loPI   C2A 1800  16.045   6.768   9.677 -0.0612  0.0133  0.0366
  113loPI   C3A 1801  16.081   6.843   9.278 -0.0363  0.0799 -0.3529
  113loPI   C4A 1802  16.088   6.715   8.897 -0.1368  0.1119  0.2516
  113loPI   C5A 1803  15.935   6.598   8.478 -0.0220  0.1739  0.0221
  113loPI   C6A 1804  15.854   6.325   8.126 -0.1400  0.0175  0.0969
  113loPI   C1B 1805  15.695   7.297   9.871  0.4667  0.1678 -0.3074
  113loPI   C2B 1806  15.790   7.244   9.532  0.2037 -0.2735  0.1631
  113loPI   C3B 1807  15.882   7.206   9.034 -0.1232  0.1158  0.4422
  113loPI   C4B 1808  15.913   7.126   8.532 -0.0085 -0.1171  0.0210
  114loPI    C1 1809   2.681  11.557  10.505  0.0709  0.0341 -0.3636
  114loPI    C2 1810   3.080  11.588  10.491  0.0869 -0.1544 -0.3452
  114loPI    C3 1811   2.910  11.255  10.635 -0.0774  0.0131 -0.1462
  114loPI   PO4 1812   2.611  11.684  10.243 -0.0703  0.3382 -0.3369
  114loPI   GL1 1813   2.393  11.877   9.762 -0.1498  0.3286  0.2024
  114loPI   GL2 1814   2.770  11.849   9.748  0.3055 -0.0085  0.1822
  114loPI   C1A 1815   2.252  11.636   9.350 -0.0988  0.0206 -0.1836
  114loPI   C2A 1816   2.145  11.663   8.874  0.1103 -0.2025  0.1750
  114loPI   C3A 1817   2.188  11.638   8.490  0.1459 -0.3001 -0.1423
  114loPI   C4A 1818   2.064  11.461   8.064 -0.1655 -0.0019  0.0113
  114loPI   C5A 1819   1.932  11.336   7.687 -0.1411  0.1972 -0.2609
  114loPI   C6A 1820   1.973  11.367   7.260 -0.2960 -0.2434  0.5896
  114loPI   C1B 1821   2.863  11.733   9.422  0.2077  0.3859  0.0849
  114loPI   C2B 1822   2.687  11.667   9.093  0.0427  0.1658  0.1441
  114loPI   C3B 1823   2.764  11.551   8.676 -0.2286 -0.1054 -0.1828
  114loPI   C4B 1824   2.761  11.621   8.248  0.3004 -0.0546  0.0315
  115loPI    C1 1825  18.765   4.982  10.851 -0.0430  0.3288 -0.1344
  115loPI    C2 1826  18.373   4.967  10.932  0.0117  0.4219  0.1601
  115loPI    C3 1827  18.635   4.788  11.176  0.1309  0.0516 -0.2275
  115loPI   PO4 1828  18.754   4.876  10.623 -0.1767  0.3249 -0.0121
  115loPI   GL1 1829  19.130   4.702  10.310  0.0941  0.0807 -0.1602
  115loPI   GL2 1830  19.033   4.441  10.082 -0.2311 -0.0588  0.2182
  115loPI   C1A 1831  19.352   4.920   9.965 -0.0212  0.0520 -0.0194
  115loPI   C2A 1832  19.345   5.110   9.526  0.0128 -0.0130  0.2049
  115loPI   C3A 1833  19.451   5.114   9.169  0.0057 -0.2672  0.0465
  115loPI   C4A 1834  19.396   5.164   8.732  0.0513  0.1336 -0.0114
  115loPI   C5A 1835  19.371   4.940   8.441 -0.0476 -0.3576  0.0486
  115loPI   C6A 1836  19.402   4.709   8.049  0.2306 -0.0886 -0.2327
  115loPI   C1B 1837  19.091   4.592   9.683  0.5127  0.1521 -0.2806
  115loPI   C2B 1838  19.129   4.636   9.231 -0.0253 -0.0991 -0.0555
  115loPI   C3B 1839  19.124   4.607   8.754 -0.2438 -0.0051 -0.1271
  115loPI   C4B 1840  19.024   4.516   8.378 -0.2237  0.1697 -0.0457
  116loPI    C1 1841   3.215   7.869  10.772  0.0143  0.2431  0.0150
  116loPI    C2 1842   3.363   8.117  11.049  0.1935  0.2558 -0.0904
  116loPI    C3 1843   3.468   7.731  11.050  0.3216  0.2896 -0.2364
  116loPI   PO4 1844   3.291   7.962  10.567 -0.3008  0.0388 -0.2460
  116loPI   GL1 1845   3.188   7.953  10.095 -0.2924  0.1611 -0.0066
  116loPI   GL2 1846   3.421   8.226   9.959  0.0960 -0.1198  0.0682
  116loPI   C1A 1847   2.984   7.992   9.593 -0.1365 -0.1436  0.1142
  116loPI   C2A 1848   2.863   7.875   9.182  0.1402 -0.0995  0.0414
  116loPI   C3A 1849   2.903   7.938   8.798 -0.1476 -0.0045 -0.3444
  116loPI   C4A 1850   2.843   8.103   8.367 -0.2430  0.3564  0.0992
  116loPI   C5A 1851   3.066   8.073   8.006  0.0887  0.0115 -0.1552
  116loPI   C6A 1852   3.356   8.257   7.720 -0.2184 -0.0202  0.0695
  116loPI   C1B 1853   3.254   8.506   9.683  0.0112 -0.0392  0.2394
  116loPI   C2B 1854   3.241   8.518   9.283 -0.0019 -0.0067  0.0713
  116loPI   C3B 1855   3.151   8.436   8.849 -0.1299 -0.1155  0.4465
  116loPI   C4B 1856   3.079   8.490   8.489 -0.0116 -0.0659  0.1240
  117loPI    C1 1857  12.871   3.904  10.382  0.1966  0.1299 -0.1759
  117loPI    C2 1858  13.165   4.094  10.575  0.2099 -0.0349 -0.0312
  117loPI    C3 1859  12.824   4.008  10.766 -0.0110  0.3240 -0.2516
  117loPI   PO4 1860  13.014   3.800  10.175 -0.0413 -0.0735  0.1812
  117loPI   GL1 1861  13.355   3.570   9.836  0.1930  0.2153 -0.2270
  117loPI   GL2 1862  13.409   3.297   9.709  0.3245  0.0066  0.2008
  117loPI   C1A 1863  13.240   3.803   9.415 -0.2713  0.1451  0.2719
  117loPI   C2A 1864  13.055   3.716   9.025 -0.1014  0.0817  0.0414
  117loPI   C3A 1865  13.061   3.778   8.554 -0.0752 -0.1236  0.2290
  117loPI   C4A 1866  13.014   3.917   8.166 -0.0316  0.0250 -0.3544
  117loPI   C5A 1867  13.256   4.140   7.861  0.0115  0.2270  0.0419
  117loPI   C6A 1868  13.406   4.535   7.646 -0.1922 -0.3036  0.0110
  117loPI   C1B 1869  13.448   3.313   9.347  0.1387 -0.0376 -0.1171
  117loPI   C2B 1870  13.376   3.338   8.942  0.0126 -0.0759  0.1679
  117loPI   C3B 1871  13.294   3.356   8.602 -0.0440  0.0163  0.1030
  117loPI   C4B 1872  13.500   3.469   8.203  0.2217 -0.2419  0.0708
  118loPI    C1 1873   6.959  18.481   9.864 -0.0342 -0.1608 -0.2666
  118loPI    C2 1874   7.005  18.826  10.061 -0.0148 -0.0818 -0.4078
  118loPI    C3 1875   6.691  18.591  10.139  0.0251 -0.0807 -0.2403
  118loPI   PO4 1876   7.007  18.527   9.576  0.0903 -0.0744  0.0924
  118loPI   GL1 1877   6.780  18.521   9.213  0.1879 -0.2324 -0.0682
  118loPI   GL2 1878   6.454  18.672   9.214 -0.2292  0.1762 -0.1354
  118loPI   C1A 1879   6.974  18.624   8.817  0.0421 -0.2990 -0.2447
  118loPI   C2A 1880   7.014  18.793   8.394 -0.1609 -0.0486 -0.1169
  118loPI   C3A 1881   6.927  18.763   8.015  0.2170  0.0920 -0.0555
  118loPI   C4A 1882   6.825  19.035   7.667 -0.0882  0.3639  0.0276
  118loPI   C5A 1883   6.757  19.247   7.227  0.0171 -0.0599  0.1119
  118loPI   C6A 1884   6.466  19.200   6.903  0.3072 -0.0410 -0.2660
  118loPI   C1B 1885   6.469  18.599   8.805 -0.1455 -0.0519  0.1921
  118loPI   C2B 1886   6.526  18.720   8.284 -0.0118  0.1772  0.2075
  118loPI   C3B 1887   6.370  18.824   7.929 -0.3510  0.1702  0.1582
  118loPI   C4B 1888   6.308  19.081   7.439  0.0305  0.0660 -0.1953
  119loPI    C1 1889  13.733   0.671  10.479  0.1553 -0.0575 -0.0059
  119loPI    C2 1890  13.412   0.744  10.705  0.1690  0.0011 -0.0052
  119loPI    C3 1891  13.779   0.802  10.854  0.1796 -0.0461 -0.0128
  119loPI   PO4 1892  13.785   0.941  10.241  0.0733  0.1262  0.2699
  119loPI   GL1 1893  13.775   1.223   9.932  0.1123 -0.2417  0.3156
  119loPI   GL2 1894  13.535   1.057   9.791  0.0223  0.4053  0.0921
  119loPI   C1A 1895  14.146   1.269   9.706 -0.1323  0.0282 -0.1134
  119loPI   C2A 1896  14.349   1.176   9.381 -0.4306 -0.0839  0.3030
  119loPI   C3A 1897  14.348   1.118   8.963 -0.1756  0.1756  0.0386
  119loPI   C4A 1898  14.356   1.044   8.510 -0.2723  0.0811  0.4219
  119loPI   C5A 1899  14.448   1.090   8.096  0.3631  0.1375 -0.0328
  119loPI   C6A 1900  14.663   1.246   7.834 -0.3990  0.1732  0.1303
  119loPI   C1B 1901  13.714   1.097   9.416 -0.1415  0.2205  0.1245
  119loPI   C2B 1902  13.796   1.062   8.918  0.0490 -0.1620 -0.1478
  119loPI   C3B 1903  13.768   1.054   8.464  0.0297  0.1256 -0.2885
  119loPI   C4B 1904  13.906   1.027   8.056  0.1975  0.3249 -0.1888
  120loPI    C1 1905  14.745   1.962  10.769  0.0999  0.2162  0.0315
  120loPI    C2 1906  14.354   2.025  10.823  0.0749  0.2036 -0.1307
  120loPI    C3 1907  14.586   1.935  11.135 -0.0825  0.0418 -0.0587
  120loPI   PO4 1908  14.805   1.939  10.456  0.1667  0.1405 -0.1337
  120loPI   GL1 1909  14.982   1.788   9.996  0.0166 -0.0762 -0.2629
  120loPI   GL2 1910  14.699   1.957   9.889  0.1568 -0.1582 -0.0958
  120loPI   C1A 1911  15.035   1.603   9.511 -0.0843  0.0567 -0.0930
  120loPI   C2A 1912  14.989   1.630   9.016 -0.1165  0.1231 -0.2946
  120loPI   C3A 1913  15.201   1.651   8.597  0.0112  0.0474 -0.1078
  120loPI   C4A 1914  15.295   1.669   8.160 -0.0712  0.0394  0.0143
  120loPI   C5A 1915  15.169   1.328   7.977  0.0611 -0.1277 -0.0758
  120loPI   C6A 1916  15.139   1.252   7.635  0.0048 -0.1218  0.0052
  120loPI   C1B 1917  14.728   1.969   9.418  0.2626 -0.0706 -0.0891
  120loPI   C2B 1918  14.650   2.047   8.980 -0.0196  0.3520 -0.1622
  120loPI   C3B 1919  14.900   2.066   8.612  0.0777 -0.1781 -0.2162
  120loPI   C4B 1920  14.994   2.107   8.177  0.0111 -0.3939  0.1425
  121loPI    C1 1921  18.489   1.948  10.545  0.0783 -0.0247 -0.0974
  121loPI    C2 1922  18.481   2.090  10.919 -0.0314 -0.3700  0.0352
  121loPI    C3 1923  18.156   1.916  10.764  0.0008 -0.1931 -0.2377
  121loPI   PO4 1924  18.540   2.104  10.295  0.0762  0.0640 -0.2831
  121loPI   GL1 1925  18.517   2.141   9.908 -0.2830  0.1348  0.1879
  121loPI   GL2 1926  18.772   2.008   9.885 -0.0398  0.0488  0.1432
  121loPI   C1A 1927  18.442   2.407   9.709 -0.0175  0.4174 -0.1190
  121loPI   C2A 1928  18.386   2.336   9.229 -0.0175  0.0433  0.2736
  121loPI   C3A 1929  18.369   2.192   8.794 -0.2221 -0.2868  0.0658
  121loPI   C4A 1930  18.520   2.304   8.436  0.0825  0.2573 -0.2168
  121loPI   C5A 1931  18.586   2.457   8.075  0.2543  0.0187 -0.1271
  121loPI   C6A 1932  18.831   2.763   7.905 -0.1090  0.0188 -0.1624
  121loPI   C1B 1933  18.726   1.867   9.337 -0.1249 -0.1123 -0.4410
  121loPI   C2B 1934  18.711   1.759   8.889 -0.1021 -0.4464 -0.2735
  121loPI   C3B 1935  18.776   1.852   8.473  0.1067 -0.2051  0.0841
  121loPI   C4B 1936  18.938   1.887   7.997  0.0084  0.0456  0.3144
  122loPI    C1 1937   8.770  17.610   9.787  0.1980 -0.1115 -0.1283
  122loPI    C2 1938   8.877  17.684  10.165  0.3906 -0.0305 -0.1977
  122loPI    C3 1939   8.674  17.351  10.077  0.0422  0.1162  0.0271
  122loPI   PO4 1940   9.081  17.773   9.704  0.0904 -0.0547 -0.0738
  122loPI   GL1 1941   9.160  17.973   9.382 -0.0212  0.1448  0.0369
  122loPI   GL2 1942   9.318  18.162   9.381  0.0569  0.2118 -0.1493
  122loPI   C1A 1943   8.972  17.858   8.999  0.0847 -0.1004  0.2780
  122loPI   C2A 1944   8.971  18.032   8.618  0.0038 -0.2522 -0.0535
  122loPI   C3A 1945   9.111  18.016   8.200  0.0316  0.0282  0.1230
  122loPI   C4A 1946   9.183  18.125   7.817  0.0051  0.1701 -0.4008
  122loPI   C5A 1947   9.559  18.197   7.564  0.0659 -0.0407 -0.0227
  122loPI   C6A 1948   9.662  18.331   7.040 -0.0530  0.1373 -0.0077
  122loPI   C1B 1949   9.222  18.368   8.993 -0.0857  0.2263 -0.3518
  122loPI   C2B 1950   9.257  18.410   8.599  0.1218 -0.0349  0.0928
  122loPI   C3B 1951   9.393  18.428   8.229  0.2668 -0.1706  0.3358
  122loPI   C4B 1952   9.388  18.617   7.740  0.2976  0.0689 -0.0433
  123loPI    C1 1953   0.908   3.399  10.511 -0.1918 -0.1376  0.0140
  123loPI    C2 1954   1.161   3.090  10.490 -0.2775 -0.2068 -0.0114
  123loPI    C3 1955   0.985   3.182  10.838 -0.2168 -0.1579  0.0065
  123loPI   PO4 1956   1.056   3.544  10.386 -0.0286 -0.0850  0.1205
  123loPI   GL1 1957   1.343   3.643  10.291 -0.2706  0.2640  0.0827
  123loPI   GL2 1958   1.458   3.328  10.075 -0.3047  0.1440  0.3303
  123loPI   C1A 1959   1.459   3.830   9.905 -0.0533  0.0852  0.0106
  123loPI   C2A 1960   1.399   3.784   9.496 -0.0699  0.1336 -0.1416
  123loPI   C3A 1961   1.327   3.784   9.051  0.3260  0.0597  0.1739
  123loPI   C4A 1962   1.400   3.797   8.631  0.1686  0.0627  0.1217
  123loPI   C5A 1963   1.450   3.872   8.162  0.0220  0.0487  0.1025
  123loPI   C6A 1964   1.269   4.203   7.858 -0.0408 -0.0431  0.2074
  123loPI   C1B 1965   1.695   3.368   9.727 -0.1439 -0.0938 -0.2533
  123loPI   C2B 1966   1.701   3.346   9.232 -0.1380 -0.0916  0.1429
  123loPI   C3B 1967   1.594   3.282   8.846  0.2051 -0.0414 -0.0466
  123loPI   C4B 1968   1.683   3.407   8.418  0.0272 -0.3118  0.1019
  124loPI    C1 1969   6.144   3.682  10.479  0.1400  0.0773  0.1161
  124loPI    C2 1970   5.928   3.789  10.798  0.0440 -0.1024  0.1123
  124loPI    C3 1971   6.025   3.405  10.742 -0.0483 -0.0906 -0.1412
  124loPI   PO4 1972   6.112   3.808  10.181 -0.4323 -0.2283  0.2203
  124loPI   GL1 1973   6.112   3.945   9.789  0.1319 -0.4118  0.0739
  124loPI   GL2 1974   6.210   3.733   9.726  0.0443 -0.0886  0.1746
  124loPI   C1A 1975   6.060   4.021   9.327  0.1173 -0.0129  0.4163
  124loPI   C2A 1976   6.062   3.951   8.917  0.1056  0.1755 -0.0464
  124loPI   C3A 1977   6.089   3.968   8.499 -0.1092 -0.2040 -0.0734
  124loPI   C4A 1978   6.067   3.952   8.099 -0.0378 -0.1694  0.0118
  124loPI   C5A 1979   5.776   4.014   7.847 -0.2212  0.0198  0.1042
  124loPI   C6A 1980   5.754   3.997   7.376 -0.0096 -0.2515 -0.1363
  124loPI   C1B 1981   6.320   3.553   9.331 -0.1157  0.1861  0.1562
  124loPI   C2B 1982   6.297   3.506   8.947 -0.1411  0.0905 -0.1540
  124loPI   C3B 1983   6.337   3.563   8.459  0.0254  0.2668  0.1103
  124loPI   C4B 1984   6.263   3.490   8.016  0.2334  0.1247 -0.2120
  125loPI    C1 1985   3.729  18.432  10.093  0.3010  0.2055  0.0146
  125loPI    C2 1986   3.535  18.414  10.442 -0.0051 -0.1739 -0.1669
  125loPI    C3 1987   3.870  18.631  10.410  0.0076 -0.1039  0.3481
  125loPI   PO4 1988   3.606  18.619   9.912 -0.0354 -0.3323  0.0467
  125loPI   GL1 1989   3.707  18.935   9.673 -0.2724  0.4471 -0.0546
  125loPI   GL2 1990   3.530  19.138   9.532  0.1116  0.0962  0.2798
  125loPI   C1A 1991   3.709  18.743   9.236  0.0206 -0.1005  0.1176
  125loPI   C2A 1992   3.866  18.639   8.916  0.0750  0.4356 -0.0264
  125loPI   C3A 1993   3.887  18.528   8.485 -0.0392  0.0689  0.5241
  125loPI   C4A 1994   3.817  18.635   8.006  0.0191 -0.3160 -0.0469
  125loPI   C5A 1995   3.607  18.525   7.631 -0.0301  0.1461 -0.0616
  125loPI   C6A 1996   3.621  18.770   7.265 -0.3100  0.0391  0.3107
  125loPI   C1B 1997   3.480  19.165   9.120 -0.2369  0.1460 -0.0099
  125loPI   C2B 1998   3.597  19.097   8.702 -0.3615 -0.0827 -0.0546
  125loPI   C3B 1999   3.610  19.035   8.290 -0.1074 -0.0109  0.1164
  125loPI   C4B 2000   3.626  19.031   7.818  0.0467 -0.0611  0.0397
  126loPI    C1 2001   0.059   0.502  10.388  0.1031  0.0746  0.1122
  126loPI    C2 2002   0.374   0.451  10.147 -0.1179  0.0242 -0.1707
  126loPI    C3 2003   0.412   0.391  10.540  0.2177 -0.0056 -0.2047
  126loPI   PO4 2004  -0.044   0.784  10.250  0.2857  0.1467 -0.0203
  126loPI   GL1 2005  -0.095   0.726   9.821 -0.1140  0.1843 -0.1687
  126loPI   GL2 2006  -0.389   0.568   9.831 -0.0518  0.3321 -0.1087
  126loPI   C1A 2007   0.014   1.036   9.491 -0.0836  0.1829 -0.0357
  126loPI   C2A 2008  -0.095   0.980   9.014  0.2427 -0.1458 -0.0061
  126loPI   C3A 2009  -0.171   0.923   8.564 -0.1905 -0.0966 -0.3240
  126loPI   C4A 2010  -0.152   0.909   8.159  0.0132 -0.1936 -0.0709
  126loPI   C5A 2011  -0.163   1.049   7.723 -0.2387 -0.1284 -0.1506
  126loPI   C6A 2012   0.071   1.212   7.462  0.0325 -0.1107  0.2704
  126loPI   C1B 2013  -0.224   0.562   9.334  0.0418  0.0335 -0.3723
  126loPI   C2B 2014  -0.274   0.504   8.920 -0.0749 -0.0591  0.0643
  126loPI   C3B 2015  -0.380   0.422   8.580  0.0993  0.1772 -0.0725
  126loPI   C4B 2016  -0.360   0.361   8.175 -0.2763 -0.1237  0.3098
  127loPI    C1 2017  18.803   4.274  10.557 -0.1016  0.1599  0.0008
  127loPI    C2 2018  18.703   4.121  10.913  0.0053  0.0867 -0.0003
  127loPI    C3 2019  18.541   4.466  10.791  0.0576  0.1726  0.1704
  127loPI   PO4 2020  18.913   3.987  10.480 -0.0669 -0.0118  0.0988
  127loPI   GL1 2021  19.124   3.978  10.096 -0.0147  0.0853 -0.3303
  127loPI   GL2 2022  19.137   3.625   9.858 -0.3436 -0.3253  0.1129
  127loPI   C1A 2023  19.359   4.077   9.770 -0.3384  0.1689  0.0105
  127loPI   C2A 2024  19.434   4.193   9.373  0.3738 -0.1419 -0.0272
  127loPI   C3A 2025  19.452   4.257   8.907  0.3972  0.0344 -0.3250
  127loPI   C4A 2026  19.310   4.182   8.545  0.0965  0.2537  0.1559
  127loPI   C5A 2027  19.275   4.043   8.055 -0.2922 -0.4162 -0.1072
  127loPI   C6A 2028  19.310   4.362   7.739 -0.4191  0.0705 -0.1748
  127loPI   C1B 2029  19.140   3.701   9.451 -0.0735 -0.0743  0.0775
  127loPI   C2B 2030  19.137   3.703   8.943 -0.0053 -0.0956 -0.0850
  127loPI   C3B 2031  19.176   3.713   8.399  0.0378 -0.2035 -0.0038
  127loPI   C4B 2032  19.294   3.558   8.052 -0.1386  0.0654  0.2405
  128loPI    C1 2033  17.914   2.746  11.072  0.0378 -0.2641  0.0538
  128loPI    C2 2034  18.232   2.868  11.280 -0.1469  0.2229  0.0627
  128loPI    C3 2035  17.947   2.652  11.459  0.0525  0.0014  0.1185
  128loPI   PO4 2036  17.999   2.763  10.862  0.0464  0.0704  0.3859
  128loPI   GL1 2037  17.874   2.729  10.426 -0.1010 -0.0199 -0.5090
  128loPI   GL2 2038  17.891   2.986  10.313 -0.0117  0.1166 -0.1315
  128loPI   C1A 2039  18.146   2.789   9.988  0.3405 -0.1361 -0.1674
  128loPI   C2A 2040  18.179   2.840   9.518  0.0095  0.2425 -0.0306
  128loPI   C3A 2041  18.104   2.771   9.138 -0.0527  0.1566  0.1171
  128loPI   C4A 2042  18.251   2.712   8.695  0.1999 -0.0587 -0.0223
  128loPI   C5A 2043  18.159   2.663   8.314 -0.0060 -0.3152  0.2860
  128loPI   C6A 2044  17.984   2.366   8.086  0.2887 -0.2384 -0.1599
  128loPI   C1B 2045  17.880   3.225   9.945 -0.0770 -0.0056 -0.0517
  128loPI   C2B 2046  17.822   3.219   9.491  0.0683 -0.4512 -0.0636
  128loPI   C3B 2047  17.850   3.199   9.062  0.0920  0.0963 -0.0486
  128loPI   C4B 2048  17.941   3.141   8.620 -0.2471 -0.2479 -0.1342
  129loPI    C1 2049  12.584   3.304  10.401 -0.1894 -0.2371 -0.1946
  129loPI    C2 2050  12.323   3.496  10.635 -0.1158 -0.2673 -0.0864
  129loPI    C3 2051  12.361   3.099  10.663  0.1541 -0.2299  0.1118
  129loPI   PO4 2052  12.630   3.476  10.169 -0.0802  0.0171 -0.1242
  129loPI   GL1 2053  12.603   3.733   9.840 -0.0010  0.2515  0.0501
  129loPI   GL2 2054  12.398   4.098   9.608 -0.3321 -0.2330  0.1250
  129loPI   C1A 2055  12.608   3.725   9.306 -0.1633  0.0892 -0.1794
  129loPI   C2A 2056  12.571   3.735   8.861 -0.2513  0.0553  0.0991
  129loPI   C3A 2057  12.572   3.825   8.368 -0.0267  0.1137 -0.1537
  129loPI   C4A 2058  12.519   3.758   7.915  0.2073  0.0819  0.0728
  129loPI   C5A 2059  12.454   3.923   7.515  0.1689 -0.0805 -0.1061
  129loPI   C6A 2060  12.137   3.932   7.168 -0.0098  0.0031 -0.1448
  129loPI   C1B 2061  12.297   4.175   9.142  0.0607  0.1225  0.4020
  129loPI   C2B 2062  12.347   4.216   8.723 -0.1134 -0.2429 -0.0289
  129loPI   C3B 2063  12.281   4.176   8.284  0.1017 -0.2348  0.2623
  129loPI   C4B 2064  12.181   4.270   7.869 -0.0180  0.0407 -0.2667
  130loPI    C1 2065  17.929   4.794  10.764 -0.0527 -0.1145  0.0501
  130loPI    C2 2066  17.705   4.605  11.036 -0.0181 -0.0786  0.1038
  130loPI    C3 2067  18.099   4.538  11.020 -0.0170 -0.0656  0.0754
  130loPI   PO4 2068  17.838   4.768  10.494  0.0792 -0.0014 -0.4943
  130loPI   GL1 2069  17.923   4.816  10.147 -0.3806  0.3084  0.1611
  130loPI   GL2 2070  18.036   4.529  10.025 -0.1814  0.0699 -0.0533
  130loPI   C1A 2071  17.841   5.046   9.863 -0.1621 -0.4277 -0.3396
  130loPI   C2A 2072  17.938   5.047   9.411 -0.0391 -0.1063 -0.1351
  130loPI   C3A 2073  17.871   4.928   8.922 -0.1247  0.0879 -0.0647
  130loPI   C4A 2074  17.864   5.004   8.562 -0.1016  0.1286 -0.0765
  130loPI   C5A 2075  17.946   5.147   8.202 -0.0532  0.1307 -0.0417
  130loPI   C6A 2076  18.308   5.213   7.968  0.3667 -0.0273 -0.0887
  130loPI   C1B 2077  18.166   4.592   9.624 -0.0078 -0.4106  0.3783
  130loPI   C2B 2078  18.150   4.608   9.193 -0.0730  0.0913  0.4569
  130loPI   C3B 2079  18.085   4.546   8.700 -0.4234 -0.1080 -0.0907
  130loPI   C4B 2080  18.007   4.631   8.355  0.0771 -0.1642 -0.2581
  131loPI    C1 2081  10.446   1.505  10.034 -0.2039 -0.1427 -0.0120
  131loPI    C2 2082  10.331   1.520  10.417 -0.0016  0.1266  0.0406
  131loPI    C3 2083  10.694   1.650  10.311  0.1511 -0.4392 -0.1663
  131loPI   PO4 2084  10.442   1.282   9.896 -0.2953  0.0707 -0.2675
  131loPI   GL1 2085  10.482   1.229   9.455 -0.1556 -0.0480 -0.3700
  131loPI   GL2 2086  10.413   0.898   9.314  0.6307 -0.2017  0.1154
  131loPI   C1A 2087  10.205   1.385   9.079  0.1289  0.1155  0.0771
  131loPI   C2A 2088  10.227   1.370   8.656  0.3202 -0.0828  0.1857
  131loPI   C3A 2089  10.207   1.457   8.282 -0.1683  0.0754 -0.0861
  131loPI   C4A 2090  10.361   1.475   7.985 -0.0505  0.2357 -0.1621
  131loPI   C5A 2091  10.552   1.620   7.616  0.1817 -0.0853  0.5138
  131loPI   C6A 2092  10.846   1.739   7.238  0.1436 -0.1886 -0.0721
  131loPI   C1B 2093  10.470   0.965   8.912 -0.1391 -0.0190 -0.1980
  131loPI   C2B 2094  10.573   0.910   8.549  0.1311  0.3577 -0.0240
  131loPI   C3B 2095  10.606   1.000   8.214 -0.1819 -0.1114  0.1053
  131loPI   C4B 2096  10.602   1.125   7.798 -0.0799  0.4208 -0.2591
  132loPI    C1 2097   2.048   9.003  10.605  0.2848 -0.2110 -0.0999
  132loPI    C2 2098   2.201   8.865  10.948 -0.2306 -0.3239  0.0927
  132loPI    C3 2099   2.057   9.238  10.929 -0.1189 -0.2865 -0.0283
  132loPI   PO4 2100   2.191   9.071  10.403  0.0263 -0.0244 -0.0673
  132loPI   GL1 2101   2.078   9.000   9.856 -0.2026 -0.1966  0.0932
  132loPI   GL2 2102   1.843   8.950   9.687 -0.1350 -0.3815  0.3049
  132loPI   C1A 2103   2.090   9.297   9.385  0.0614  0.1236  0.0695
  132loPI   C2A 2104   2.044   9.373   8.957 -0.1708  0.2002 -0.2246
  132loPI   C3A 2105   2.071   9.323   8.495 -0.0645  0.0690  0.1837
  132loPI   C4A 2106   2.005   9.198   8.106  0.1210  0.2232 -0.0399
  132loPI   C5A 2107   2.356   9.083   7.898  0.1414  0.1897  0.1845
  132loPI   C6A 2108   2.514   9.037   7.608  0.0535  0.1622  0.0544
  132loPI   C1B 2109   1.870   8.832   9.260 -0.0244  0.1863 -0.1319
  132loPI   C2B 2110   1.707   8.869   8.794  0.1962 -0.3412  0.0487
  132loPI   C3B 2111   1.793   8.834   8.337  0.4037 -0.0727  0.0099
  132loPI   C4B 2112   1.623   8.854   7.891 -0.1781  0.0565 -0.1448
  133loPI    C1 2113  15.960  18.175  10.627 -0.0368 -0.4149 -0.0662
  133loPI    C2 2114  16.137  18.024  10.953 -0.0620 -0.2076  0.0452
  133loPI    C3 2115  15.738  18.020  10.921 -0.0654 -0.1105  0.0754
  133loPI   PO4 2116  16.115  18.121  10.318  0.0537  0.2377 -0.3244
  133loPI   GL1 2117  16.122  18.279   9.845 -0.1152  0.2130 -0.1797
  133loPI   GL2 2118  16.314  18.466   9.864 -0.0335 -0.1255  0.0984
  133loPI   C1A 2119  15.785  18.083   9.469 -0.1821  0.1541 -0.3515
  133loPI   C2A 2120  15.936  18.125   9.093 -0.1866 -0.0856 -0.1018
  133loPI   C3A 2121  15.855  17.981   8.637 -0.0878  0.0888  0.3236
  133loPI   C4A 2122  15.813  18.092   8.184  0.3254 -0.1830 -0.1073
  133loPI   C5A 2123  15.861  18.208   7.702 -0.2170  0.1762 -0.1732
  133loPI   C6A 2124  15.746  17.968   7.384  0.1015 -0.0024  0.2374
  133loPI   C1B 2125  16.403  18.370   9.344  0.1329 -0.1481  0.2126
  133loPI   C2B 2126  16.403  18.190   8.916 -0.1627 -0.1388  0.0481
  133loPI   C3B 2127  16.481  18.130   8.404  0.2527 -0.0310 -0.1781
  133loPI   C4B 2128  16.563  18.152   7.903  0.2934  0.1314  0.0317
  134loPI    C1 2129   8.274   6.880  10.432 -0.1980 -0.0249 -0.1003
  134loPI    C2 2130   8.083   6.760  10.762  0.1482  0.0118  0.1182
  134loPI    C3 2131   8.261   7.118  10.753  0.1742 -0.0056 -0.0956
  134loPI   PO4 2132   8.265   6.671  10.307 -0.1481  0.1694 -0.3631
  134loPI   GL1 2133   8.313   6.713   9.943  0.3783  0.0545 -0.2489
  134loPI   GL2 2134   8.057   6.677   9.819 -0.2421 -0.1603  0.0483
  134loPI   C1A 2135   8.450   6.798   9.495  0.1453 -0.1072 -0.1894
  134loPI   C2A 2136   8.462   6.841   9.129 -0.1371 -0.1793  0.0078
  134loPI   C3A 2137   8.620   6.929   8.698 -0.0252 -0.0420 -0.3294
  134loPI   C4A 2138   8.544   6.901   8.282 -0.0017  0.1478 -0.2591
  134loPI   C5A 2139   8.601   6.875   7.928 -0.2612 -0.0643  0.3623
  134loPI   C6A 2140   8.510   7.024   7.574  0.1938 -0.0665 -0.1782
  134loPI   C1B 2141   7.979   6.705   9.359  0.0875  0.0495  0.2624
  134loPI   C2B 2142   7.917   6.861   8.860  0.1290 -0.4344 -0.1794
  134loPI   C3B 2143   7.914   6.909   8.431  0.2400  0.1347 -0.1959
  134loPI   C4B 2144   7.978   6.914   7.980  0.1956 -0.2216 -0.0644
  135loPI    C1 2145  11.567   6.792  10.485  0.1379 -0.2432  0.1963
  135loPI    C2 2146  11.746   7.087  10.687 -0.2736  0.0167  0.1934
  135loPI    C3 2147  11.599   6.771  10.883 -0.2751  0.0536  0.2520
  135loPI   PO4 2148  11.373   7.032  10.285  0.3711  0.1067  0.2618
  135loPI   GL1 2149  11.440   7.067   9.838 -0.0584  0.1667  0.0380
  135loPI   GL2 2150  11.513   6.809   9.824  0.0647  0.1922 -0.1406
  135loPI   C1A 2151  11.561   7.142   9.422 -0.2922 -0.1788  0.1228
  135loPI   C2A 2152  11.622   7.123   8.937 -0.1864  0.0237 -0.1691
  135loPI   C3A 2153  11.678   7.095   8.497 -0.2297  0.0684 -0.1658
  135loPI   C4A 2154  11.580   6.880   8.113  0.0477  0.2339 -0.0008
  135loPI   C5A 2155  11.827   6.665   7.828  0.0666  0.4020  0.1029
  135loPI   C6A 2156  12.137   6.809   7.536 -0.0729  0.0814 -0.4125
  135loPI   C1B 2157  11.840   6.694   9.511 -0.1305  0.1532 -0.1946
  135loPI   C2B 2158  11.858   6.720   9.158 -0.0499 -0.2363 -0.3502
  135loPI   C3B 2159  11.854   6.561   8.777 -0.0219  0.2421 -0.2474
  135loPI   C4B 2160  11.947   6.478   8.349 -0.2629 -0.4237 -0.4347
  136loPI    C1 2161   7.990   9.103   9.938 -0.2368  0.0143 -0.0179
  136loPI    C2 2162   8.056   9.453  10.119  0.0070 -0.1338  0.1879
  136loPI    C3 2163   8.022   9.120  10.337 -0.1566 -0.2494 -0.0111
  136loPI   PO4 2164   8.187   9.051   9.742 -0.3273 -0.0487  0.2292
  136loPI   GL1 2165   8.354   9.365   9.460 -0.0019  0.0809 -0.0255
  136loPI   GL2 2166   8.477   9.593   9.205  0.0418 -0.0362 -0.2935
  136loPI   C1A 2167   8.130   9.257   9.109 -0.0900 -0.1368 -0.1629
  136loPI   C2A 2168   8.195   9.153   8.654  0.0058  0.1166 -0.2024
  136loPI   C3A 2169   8.164   9.161   8.170 -0.1269 -0.3685 -0.0293
  136loPI   C4A 2170   8.025   9.179   7.711  0.0843  0.1857 -0.0599
  136loPI   C5A 2171   7.808   9.239   7.394 -0.2336 -0.0039  0.3464
  136loPI   C6A 2172   7.761   9.135   7.017  0.1542 -0.1648 -0.1829
  136loPI   C1B 2173   8.421   9.596   8.744 -0.0047  0.1132 -0.0851
  136loPI   C2B 2174   8.369   9.624   8.311  0.0445 -0.1756  0.1931
  136loPI   C3B 2175   8.277   9.564   7.918  0.0582 -0.2305  0.0188
  136loPI   C4B 2176   8.216   9.645   7.525 -0.1523 -0.1307 -0.3461
  137loPI    C1 2177  15.351   9.645  10.686  0.0266 -0.0015 -0.0310
  137loPI    C2 2178  15.437   9.965  10.910 -0.1411  0.0896 -0.0948
  137loPI    C3 2179  15.705   9.670  10.871 -0.0243  0.1758  0.0443
  137loPI   PO4 2180  15.289   9.664  10.494  0.1408 -0.1106  0.2127
  137loPI   GL1 2181  15.396   9.821  10.152 -0.1431  0.2853  0.2932
  137loPI   GL2 2182  15.385   9.480  10.071 -0.0049 -0.2022 -0.2540
  137loPI   C1A 2183  15.676   9.882   9.752 -0.2579 -0.3990 -0.1658
  137loPI   C2A 2184  15.724  10.033   9.329 -0.0123 -0.3049 -0.0779
  137loPI   C3A 2185  15.695  10.045   8.838 -0.3816 -0.4598 -0.1499
  137loPI   C4A 2186  15.685  10.087   8.412  0.0509 -0.1732 -0.2339
  137loPI   C5A 2187  15.891  10.271   8.165 -0.3898  0.1409 -0.1511
  137loPI   C6A 2188  15.791  10.751   8.042  0.0182  0.0850 -0.0852
  137loPI   C1B 2189  15.384   9.485   9.722 -0.0908 -0.3295 -0.5006
  137loPI   C2B 2190  15.445   9.509   9.238  0.0838  0.1045 -0.1096
  137loPI   C3B 2191  15.463   9.581   8.785 -0.0334 -0.0601 -0.3316
  137loPI   C4B 2192  15.419   9.694   8.404  0.2006  0.3065 -0.1244
  138loPI    C1 2193   8.211   8.709  10.328 -0.2277  0.3161  0.2533
  138loPI    C2 2194   8.280   8.319  10.271 -0.2310  0.3565 -0.0446
  138loPI    C3 2195   8.190   8.456  10.636  0.0885  0.1274  0.1245
  138loPI   PO4 2196   8.402   8.814  10.176  0.1706 -0.2566 -0.1210
  138loPI   GL1 2197   8.467   8.591   9.821 -0.1188 -0.1200 -0.0071
  138loPI   GL2 2198   8.651   8.668   9.642  0.1966  0.1140  0.2903
  138loPI   C1A 2199   8.198   8.454   9.437  0.3446  0.1361  0.0866
  138loPI   C2A 2200   8.170   8.206   9.105  0.2485 -0.0685  0.3938
  138loPI   C3A 2201   8.239   8.251   8.607  0.0012  0.1357 -0.0760
  138loPI   C4A 2202   8.195   8.347   8.201 -0.3023  0.1651 -0.0313
  138loPI   C5A 2203   8.014   8.248   7.773  0.0083 -0.2895  0.2740
  138loPI   C6A 2204   8.073   8.306   7.334  0.1708  0.0544 -0.2022
  138loPI   C1B 2205   8.528   8.768   9.252 -0.3648  0.1904  0.0919
  138loPI   C2B 2206   8.428   8.767   8.843  0.1636  0.0424 -0.0855
  138loPI   C3B 2207   8.459   8.735   8.409 -0.0204  0.1236 -0.0421
  138loPI   C4B 2208   8.335   8.734   7.980 -0.3674  0.0092  0.4228
  139loPI    C1 2209   1.617  14.352  10.443 -0.1510  0.4091 -0.1810
  139loPI    C2 2210   1.292  14.396  10.672 -0.0643  0.0170  0.0261
  139loPI    C3 2211   1.648  14.521  10.804  0.0419 -0.5057  0.2598
  139loPI   PO4 2212   1.612  14.393  10.285 -0.0935 -0.1743 -0.0694
  139loPI   GL1 2213   1.637  14.516   9.849 -0.0110  0.0048 -0.2163
  139loPI   GL2 2214   1.912  14.811   9.766 -0.1426  0.1486  0.0405
  139loPI   C1A 2215   1.614  14.442   9.422 -0.0248  0.1429  0.3880
  139loPI   C2A 2216   1.615  14.403   9.075 -0.1003  0.1969  0.4612
  139loPI   C3A 2217   1.535  14.329   8.630 -0.0136  0.2380 -0.1053
  139loPI   C4A 2218   1.545  14.387   8.264 -0.4183  0.0324  0.0414
  139loPI   C5A 2219   1.566  14.365   7.833 -0.0695 -0.4115  0.3985
  139loPI   C6A 2220   1.716  14.162   7.375  0.1489  0.3253  0.1946
  139loPI   C1B 2221   1.824  14.922   9.361  0.2466  0.2712 -0.0180
  139loPI   C2B 2222   1.783  14.909   8.900  0.0943  0.2325  0.1153
  139loPI   C3B 2223   1.888  14.876   8.433 -0.0055 -0.1537 -0.1923
  139loPI   C4B 2224   1.857  14.812   8.095  0.2194  0.1661  0.3226
  140loPI    C1 2225   1.786   9.354  10.345  0.1343  0.0455  0.1175
  140loPI    C2 2226   1.467   9.142  10.463  0.1472 -0.0494 -0.0161
  140loPI    C3 2227   1.644   9.396  10.717 -0.2101  0.2205 -0.0283
  140loPI   PO4 2228   1.739   9.283  10.049  0.0969  0.0646  0.1334
  140loPI   GL1 2229   1.573   9.454   9.662 -0.1740 -0.0001 -0.1746
  140loPI   GL2 2230   1.931   9.600   9.706 -0.1152 -0.1538  0.2014
  140loPI   C1A 2231   1.582   9.344   9.252 -0.1119  0.1771  0.2019
  140loPI   C2A 2232   1.530   9.342   8.786  0.1917 -0.3340 -0.1145
  140loPI   C3A 2233   1.437   9.327   8.318  0.4396 -0.0117  0.1753
  140loPI   C4A 2234   1.553   9.484   7.869 -0.0695  0.1413 -0.3602
  140loPI   C5A 2235   2.031   9.498   7.751 -0.1387  0.1335 -0.1178
  140loPI   C6A 2236   2.115   9.239   7.401 -0.1061 -0.2355  0.1807
  140loPI   C1B 2237   1.815   9.819   9.382 -0.2592  0.1754  0.2564
  140loPI   C2B 2238   1.719   9.864   8.905 -0.3630  0.0266  0.1110
  140loPI   C3B 2239   1.709   9.690   8.530 -0.2589  0.0164  0.2720
  140loPI   C4B 2240   1.939   9.713   8.206 -0.2087 -0.1611  0.0459
  141loPI    C1 2241   6.747   6.007  10.200 -0.0229 -0.0810  0.1666
  141loPI    C2 2242   6.452   6.137  10.436 -0.1232 -0.0282  0.0139
  141loPI    C3 2243   6.816   6.073  10.588 -0.1653  0.0852  0.1651
  141loPI   PO4 2244   6.735   6.215   9.986  0.2100  0.1445 -0.0950
  141loPI   GL1 2245   6.770   6.429   9.602 -0.1380 -0.0839  0.0409
  141loPI   GL2 2246   7.137   6.599   9.769 -0.1858 -0.0013 -0.0560
  141loPI   C1A 2247   6.763   6.372   9.147  0.2278 -0.3607 -0.3377
  141loPI   C2A 2248   6.709   6.238   8.753  0.2231 -0.3121 -0.0025
  141loPI   C3A 2249   6.816   6.349   8.426  0.1267 -0.3380  0.0056
  141loPI   C4A 2250   6.799   6.078   8.156  0.1859 -0.0724  0.2362
  141loPI   C5A 2251   6.715   5.973   7.753  0.0757  0.1637 -0.2133
  141loPI   C6A 2252   6.886   5.859   7.258 -0.3751  0.2777 -0.1386
  141loPI   C1B 2253   7.200   6.509   9.293  0.0033  0.0885  0.0178
  141loPI   C2B 2254   7.187   6.355   8.850 -0.0748  0.3858 -0.0935
  141loPI   C3B 2255   7.288   6.423   8.477 -0.1281 -0.2501  0.0049
  141loPI   C4B 2256   7.194   6.525   8.033 -0.2849 -0.0798  0.2538
  142loPI    C1 2257   1.408   7.745  10.755  0.2565 -0.1285  0.0032
  142loPI    C2 2258   1.192   7.563  11.038 -0.1420  0.2422 -0.0518
  142loPI    C3 2259   1.492   7.806  11.141  0.0119  0.0190  0.0351
  142loPI   PO4 2260   1.392   7.527  10.502  0.4537 -0.1527  0.0264
  142loPI   GL1 2261   1.515   7.304  10.157 -0.1479 -0.1063  0.3362
  142loPI   GL2 2262   1.530   7.629  10.010 -0.1904  0.0372  0.4245
  142loPI   C1A 2263   1.495   6.958   9.785  0.1108  0.2846  0.2901
  142loPI   C2A 2264   1.399   6.981   9.400  0.2476  0.0648 -0.3650
  142loPI   C3A 2265   1.495   7.007   8.961 -0.0286 -0.2249  0.1082
  142loPI   C4A 2266   1.462   6.861   8.561  0.3049  0.0336 -0.1833
  142loPI   C5A 2267   1.464   6.862   8.096  0.2236 -0.3487  0.1738
  142loPI   C6A 2268   1.479   6.821   7.619 -0.3463  0.3103 -0.2507
  142loPI   C1B 2269   1.609   7.525   9.520  0.0792  0.0073 -0.0442
  142loPI   C2B 2270   1.708   7.458   9.025  0.1445 -0.1206  0.0759
  142loPI   C3B 2271   1.657   7.454   8.590 -0.0019  0.0200  0.1217
  142loPI   C4B 2272   1.584   7.465   8.142  0.2631 -0.0306 -0.0642
  143loPI    C1 2273  16.710  14.615  10.877 -0.1901 -0.0342 -0.0312
  143loPI    C2 2274  16.535  14.272  10.982  0.1610 -0.1583  0.1657
  143loPI    C3 2275  16.422  14.615  11.154 -0.4581 -0.1081 -0.3034
  143loPI   PO4 2276  16.741  14.600  10.637 -0.1569 -0.0236 -0.1997
  143loPI   GL1 2277  16.592  14.766  10.257  0.2672  0.4607 -0.3580
  143loPI   GL2 2278  16.680  14.540  10.146  0.0393 -0.2439 -0.0415
  143loPI   C1A 2279  16.847  14.916   9.877 -0.3055  0.0651  0.1410
  143loPI   C2A 2280  16.759  15.024   9.458 -0.0477 -0.0178  0.2602
  143loPI   C3A 2281  16.821  15.032   9.048  0.1782 -0.0085 -0.2234
  143loPI   C4A 2282  16.840  15.073   8.626  0.1682 -0.3555  0.1643
  143loPI   C5A 2283  16.906  15.192   8.229  0.1064 -0.0415 -0.2543
  143loPI   C6A 2284  16.826  15.448   7.837 -0.1860 -0.3018  0.5400
  143loPI   C1B 2285  16.695  14.486   9.695  0.0196 -0.3348 -0.1765
  143loPI   C2B 2286  16.580  14.456   9.214 -0.0366 -0.0249 -0.0492
  143loPI   C3B 2287  16.502  14.728   8.784 -0.0663  0.0002  0.2116
  143loPI   C4B 2288  16.558  14.747   8.365 -0.1619  0.0797 -0.1966
  144loPI    C1 2289  10.842  15.847  10.138 -0.0150  0.1858 -0.0659
  144loPI    C2 2290  10.635  15.748  10.466 -0.1075 -0.0925 -0.2046
  144loPI    C3 2291  11.033  15.705  10.460 -0.0982 -0.0248 -0.1077
  144loPI   PO4 2292  10.658  15.892   9.982 -0.2062  0.1158  0.1873
  144loPI   GL1 2293  10.621  15.822   9.540 -0.0849  0.1208 -0.1844
  144loPI   GL2 2294  10.939  15.783   9.474  0.2378  0.0556 -0.0839
  144loPI   C1A 2295  10.663  16.084   9.142  0.1191  0.0028 -0.1017
  144loPI   C2A 2296  10.679  16.053   8.790  0.2295 -0.3404 -0.2267
  144loPI   C3A 2297  10.611  16.130   8.400  0.1520  0.3304  0.1920
  144loPI   C4A 2298  10.341  16.157   8.120 -0.0897 -0.0645 -0.1572
  144loPI   C5A 2299   9.960  15.894   7.917 -0.0587 -0.4011 -0.2042
  144loPI   C6A 2300   9.619  15.591   7.770 -0.0495  0.0280  0.0616
  144loPI   C1B 2301  10.993  15.729   8.961  0.2115  0.0016  0.1863
  144loPI   C2B 2302  10.999  15.637   8.586 -0.3370 -0.0091 -0.1622
  144loPI   C3B 2303  11.012  15.754   8.156 -0.1070 -0.2361 -0.2313
  144loPI   C4B 2304  10.654  15.942   7.835 -0.2638 -0.2011 -0.3468
  145loPI    C1 2305  14.874  16.048  10.638 -0.0293 -0.0391  0.1985
  145loPI    C2 2306  15.144  16.069  10.932  0.1133  0.0083  0.0661
  145loPI    C3 2307  14.883  16.368  10.878  0.0921  0.0033  0.1389
  145loPI   PO4 2308  14.993  15.913  10.454 -0.0473 -0.2074  0.1103
  145loPI   GL1 2309  15.072  16.046  10.053  0.0520 -0.0484  0.1449
  145loPI   GL2 2310  14.770  16.151   9.788 -0.0089  0.0539 -0.1794
  145loPI   C1A 2311  15.207  15.842   9.682 -0.1613 -0.2222  0.0026
  145loPI   C2A 2312  15.139  15.911   9.229 -0.1041  0.1443  0.0632
  145loPI   C3A 2313  15.073  15.953   8.793 -0.1117 -0.0886  0.0200
  145loPI   C4A 2314  15.150  16.026   8.369 -0.2453  0.1450  0.0182
  145loPI   C5A 2315  15.196  16.052   7.889 -0.4168  0.4068  0.0063
  145loPI   C6A 2316  15.144  16.405   7.739 -0.2864  0.0475  0.0401
  145loPI   C1B 2317  14.715  15.874   9.499  0.0218  0.1609 -0.1538
  145loPI   C2B 2318  14.648  15.833   9.047 -0.1306  0.0493  0.0890
  145loPI   C3B 2319  14.597  16.004   8.565  0.0504  0.0799 -0.5691
  145loPI   C4B 2320  14.620  15.900   8.207 -0.1675 -0.0476  0.0093
  146loPI    C1 2321  18.391  12.108  10.765 -0.0490  0.0298 -0.0501
  146loPI    C2 2322  18.503  12.493  10.764 -0.1306  0.0575  0.3263
  146loPI    C3 2323  18.684  12.232  11.008 -0.1088 -0.1347  0.1075
  146loPI   PO4 2324  18.415  11.887  10.531 -0.1176  0.1614 -0.1562
  146loPI   GL1 2325  18.563  11.910  10.070  0.0600  0.0229  0.1442
  146loPI   GL2 2326  18.280  11.777  10.035  0.2437 -0.1814  0.1104
  146loPI   C1A 2327  18.255  11.878   9.560 -0.2387 -0.1271 -0.0198
  146loPI   C2A 2328  18.154  11.903   9.130 -0.1403 -0.1403 -0.2050
  146loPI   C3A 2329  18.159  11.805   8.756  0.0408  0.2418 -0.0052
  146loPI   C4A 2330  18.140  11.908   8.312 -0.1229  0.0581  0.1488
  146loPI   C5A 2331  18.306  12.241   8.010 -0.2557  0.3625 -0.0105
  146loPI   C6A 2332  18.337  12.702   7.784 -0.1506  0.0196 -0.1688
  146loPI   C1B 2333  18.112  11.460   9.777  0.1535 -0.0121 -0.1201
  146loPI   C2B 2334  17.908  11.483   9.374  0.1701 -0.2219  0.1290
  146loPI   C3B 2335  17.848  11.481   8.950 -0.2404  0.1081  0.1175
  146loPI   C4B 2336  17.883  11.450   8.373 -0.3387  0.0364  0.0862
  147loPI    C1 2337  17.784  18.002  10.273 -0.0159 -0.2276  0.1489
  147loPI    C2 2338  17.962  18.271  10.510  0.0041 -0.0581 -0.0562
  147loPI    C3 2339  18.073  17.887  10.526  0.1627 -0.0094  0.0477
  147loPI   PO4 2340  17.474  17.966  10.338  0.0710  0.1464  0.3591
  147loPI   GL1 2341  17.314  17.796   9.901  0.2499  0.0364 -0.0753
  147loPI   GL2 2342  17.640  17.775   9.887 -0.2946  0.0982 -0.2450
  147loPI   C1A 2343  17.261  17.862   9.428 -0.2291  0.0811 -0.0936
  147loPI   C2A 2344  17.212  17.895   8.903 -0.1035 -0.1350 -0.0628
  147loPI   C3A 2345  17.298  17.795   8.479 -0.2401  0.1447  0.3324
  147loPI   C4A 2346  17.258  17.873   7.972  0.3212 -0.1410 -0.2098
  147loPI   C5A 2347  17.624  17.915   7.693  0.1440 -0.1105 -0.0298
  147loPI   C6A 2348  17.721  17.953   7.310 -0.2126  0.0685  0.1051
  147loPI   C1B 2349  17.724  17.917   9.480 -0.3056  0.0649 -0.1822
  147loPI   C2B 2350  17.844  17.883   9.076  0.1402 -0.2516 -0.1553
  147loPI   C3B 2351  17.783  17.823   8.663 -0.0301 -0.1630  0.1032
  147loPI   C4B 2352  17.795  17.864   8.216  0.0838 -0.0379  0.0130
  148loPI    C1 2353   6.268   1.405  10.438  0.0254 -0.2806  0.0126
  148loPI    C2 2354   6.099   1.125  10.669 -0.0750  0.0745  0.3817
  148loPI    C3 2355   6.475   1.241  10.738 -0.0552  0.0778  0.2708
  148loPI   PO4 2356   6.186   1.328  10.216  0.1723  0.0880 -0.2007
  148loPI   GL1 2357   6.030   1.486   9.717  0.1851 -0.0323  0.1387
  148loPI   GL2 2358   5.736   1.460   9.787  0.1320 -0.2522 -0.2204
  148loPI   C1A 2359   5.902   1.677   9.279 -0.1256  0.1811 -0.3804
  148loPI   C2A 2360   5.928   1.719   8.782  0.2361 -0.3780  0.0450
  148loPI   C3A 2361   5.835   1.744   8.303 -0.2670  0.2105 -0.1629
  148loPI   C4A 2362   5.645   1.660   7.884 -0.1442 -0.0894  0.0703
  148loPI   C5A 2363   5.415   1.345   7.631  0.5177  0.1856 -0.5511
  148loPI   C6A 2364   5.177   1.012   7.492  0.0473  0.0133  0.2812
  148loPI   C1B 2365   5.436   1.505   9.411 -0.0804 -0.0425  0.0057
  148loPI   C2B 2366   5.436   1.768   9.082 -0.2339 -0.0221  0.1487
  148loPI   C3B 2367   5.370   1.687   8.686  0.0467 -0.0348 -0.0507
  148loPI   C4B 2368   5.245   1.763   8.250  0.0945 -0.0091  0.2450
  149loPI    C1 2369  12.916  12.691  10.191 -0.1410 -0.0725 -0.0538
  149loPI    C2 2370  12.644  12.646   9.901 -0.2149  0.2846 -0.0444
  149loPI    C3 2371  12.534  12.618  10.284 -0.0988 -0.2879 -0.0434
  149loPI   PO4 2372  13.140  12.583  10.058  0.1904  0.0113  0.1518
  149loPI   GL1 2373  13.209  12.669   9.653 -0.0056 -0.0204 -0.2961
  149loPI   GL2 2374  13.536  12.675   9.760 -0.1407  0.0256 -0.1004
  149loPI   C1A 2375  12.997  12.709   9.286 -0.1636 -0.1075  0.0098
  149loPI   C2A 2376  12.937  12.666   8.869  0.0083 -0.1534 -0.1937
  149loPI   C3A 2377  13.018  12.696   8.375 -0.0172 -0.3739 -0.0754
  149loPI   C4A 2378  13.182  12.507   8.009 -0.3102 -0.0871 -0.3626
  149loPI   C5A 2379  13.536  12.245   7.843 -0.1676  0.2878  0.2030
  149loPI   C6A 2380  13.520  11.804   7.633 -0.0115 -0.0579  0.2698
  149loPI   C1B 2381  13.562  12.696   9.218  0.1011  0.2902 -0.2233
  149loPI   C2B 2382  13.549  12.664   8.843  0.1669  0.0171 -0.1099
  149loPI   C3B 2383  13.508  12.598   8.417  0.2153  0.2242 -0.1880
  149loPI   C4B 2384  13.653  12.697   7.948 -0.2392  0.1550  0.2192
  150loPI    C1 2385   8.793   5.470  10.527  0.2576  0.1043  0.0099
  150loPI    C2 2386   8.651   5.843  10.549  0.1263  0.0503  0.0954
  150loPI    C3 2387   8.845   5.684  10.860 -0.0266 -0.0355  0.1480
  150loPI   PO4 2388   8.610   5.309  10.310  0.0217 -0.5022 -0.1440
  150loPI   GL1 2389   8.540   5.180   9.858 -0.1014  0.1397 -0.1633
  150loPI   GL2 2390   8.794   5.294   9.787  0.1946 -0.3119 -0.2102
  150loPI   C1A 2391   8.472   5.037   9.473 -0.2046  0.0583 -0.2787
  150loPI   C2A 2392   8.558   5.017   9.152  0.6111 -0.0215 -0.2015
  150loPI   C3A 2393   8.575   5.073   8.708 -0.2196  0.3577 -0.1754
  150loPI   C4A 2394   8.554   5.165   8.218  0.0605  0.0795  0.1319
  150loPI   C5A 2395   8.681   5.122   7.748 -0.1013 -0.0586  0.0205
  150loPI   C6A 2396   8.595   5.212   7.448  0.0121  0.1561 -0.0675
  150loPI   C1B 2397   8.823   5.465   9.432 -0.3203  0.2071  0.3357
  150loPI   C2B 2398   8.700   5.499   9.017  0.0754  0.1179  0.4140
  150loPI   C3B 2399   8.855   5.484   8.610  0.3505 -0.0473 -0.0180
  150loPI   C4B 2400   8.886   5.612   8.133  0.1192 -0.2108  0.1554
  151loPI    C1 2401  14.334   3.859  10.654  0.0836 -0.1621 -0.0364
  151loPI    C2 2402  14.642   3.956  10.890  0.0831 -0.1115 -0.0564
  151loPI    C3 2403  14.296   3.839  11.052  0.1280 -0.2153 -0.0348
  151loPI   PO4 2404  14.449   3.651  10.446 -0.1369 -0.1302  0.0233
  151loPI   GL1 2405  14.716   3.540  10.146  0.1391 -0.1005  0.1455
  151loPI   GL2 2406  15.010   3.450  10.129 -0.0729 -0.0708 -0.5386
  151loPI   C1A 2407  14.719   3.853   9.797  0.1609  0.1249  0.0209
  151loPI   C2A 2408  14.821   3.905   9.422  0.4063  0.0421  0.3090
  151loPI   C3A 2409  14.679   3.876   9.046 -0.0376  0.1438 -0.1100
  151loPI   C4A 2410  14.785   3.968   8.625 -0.2002  0.0335 -0.0424
  151loPI   C5A 2411  15.011   3.919   8.214  0.0455 -0.0487 -0.1042
  151loPI   C6A 2412  15.234   3.771   7.822 -0.0387 -0.0336 -0.1277
  151loPI   C1B 2413  15.071   3.533   9.641  0.1995 -0.1022 -0.1047
  151loPI   C2B 2414  15.056   3.483   9.122  0.2166  0.3567  0.1055
  151loPI   C3B 2415  14.968   3.455   8.751 -0.1223  0.2603  0.2255
  151loPI   C4B 2416  15.108   3.457   8.375  0.1208 -0.3969  0.2344
  152loPI    C1 2417   1.503  11.831  10.419 -0.0437  0.3115  0.1188
  152loPI    C2 2418   1.420  11.512  10.645  0.0532  0.1627 -0.0524
  152loPI    C3 2419   1.729  11.749  10.739 -0.1110  0.2962  0.1625
  152loPI   PO4 2420   1.471  11.776  10.166 -0.3480  0.0823 -0.1647
  152loPI   GL1 2421   1.361  11.750   9.721 -0.0348  0.1639  0.3055
  152loPI   GL2 2422   1.150  11.552   9.597 -0.1819 -0.0203  0.2920
  152loPI   C1A 2423   1.524  12.036   9.431  0.2050  0.1767  0.1973
  152loPI   C2A 2424   1.487  12.066   8.912  0.2445  0.0267 -0.0852
  152loPI   C3A 2425   1.433  12.108   8.475  0.2190 -0.3860 -0.0430
  152loPI   C4A 2426   1.406  12.147   8.070 -0.0320 -0.1082 -0.0708
  152loPI   C5A 2427   1.227  12.082   7.728  0.0901 -0.0085  0.0556
  152loPI   C6A 2428   0.920  12.301   7.575 -0.0129 -0.1429  0.0722
  152loPI   C1B 2429   1.231  11.672   9.167  0.2591  0.0815  0.0168
  152loPI   C2B 2430   1.151  11.752   8.692  0.1445  0.0568 -0.0859
  152loPI   C3B 2431   1.070  11.791   8.236 -0.0289 -0.0582  0.2049
  152loPI   C4B 2432   0.858  11.648   7.883  0.2279 -0.5393  0.0800
  153loPI    C1 2433  15.065   0.856  10.327  0.0110  0.2052  0.1714
  153loPI    C2 2434  15.200   1.096  10.617  0.3575  0.2202  0.0031
  153loPI    C3 2435  15.261   0.701  10.640  0.3749  0.2201 -0.0431
  153loPI   PO4 2436  15.229   0.948  10.079  0.4166  0.0000 -0.2167
  153loPI   GL1 2437  15.247   1.183   9.725 -0.1242  0.0765  0.0817
  153loPI   GL2 2438  15.399   1.409   9.884  0.0284 -0.4499  0.0285
  153loPI   C1A 2439  15.360   1.218   9.297 -0.2329  0.3654  0.0063
  153loPI   C2A 2440  15.365   1.173   8.860  0.0892 -0.0619 -0.1454
  153loPI   C3A 2441  15.434   1.153   8.383  0.0435  0.1183  0.1028
  153loPI   C4A 2442  15.667   1.184   8.008  0.3491 -0.1685  0.0957
  153loPI   C5A 2443  15.969   1.463   7.820 -0.0592  0.0645  0.0469
  153loPI   C6A 2444  15.975   1.614   7.386  0.0335 -0.4741 -0.1508
  153loPI   C1B 2445  15.564   1.657   9.508  0.1704  0.2431 -0.0170
  153loPI   C2B 2446  15.605   1.614   9.043 -0.0704 -0.0972 -0.1660
  153loPI   C3B 2447  15.714   1.814   8.710 -0.0191  0.2505 -0.4465
  153loPI   C4B 2448  15.763   1.593   8.283  0.2509  0.1429  0.2300
  154loPI    C1 2449  17.649   1.719  10.827  0.2190  0.0258 -0.2346
  154loPI    C2 2450  17.903   1.469  11.008 -0.3129 -0.2214  0.1984
  154loPI    C3 2451  17.835   1.831  11.163 -0.0179 -0.0410 -0.0794
  154loPI   PO4 2452  17.645   1.708  10.428  0.0966  0.2459 -0.2204
  154loPI   GL1 2453  17.943   1.832  10.122 -0.0656  0.0911  0.0329
  154loPI   GL2 2454  17.713   1.789   9.895  0.1335  0.1569  0.0207
  154loPI   C1A 2455  18.173   1.827   9.720 -0.1741  0.1051  0.4451
  154loPI   C2A 2456  18.245   1.859   9.318 -0.1750  0.0537  0.1030
  154loPI   C3A 2457  18.188   1.799   8.927  0.0375 -0.0881  0.1199
  154loPI   C4A 2458  18.260   1.766   8.522 -0.3333  0.0619 -0.0616
  154loPI   C5A 2459  18.313   1.949   8.070 -0.0128  0.0294  0.1558
  154loPI   C6A 2460  18.100   1.705   7.720 -0.2124 -0.2358 -0.0142
  154loPI   C1B 2461  17.622   1.726   9.441  0.2418 -0.1104 -0.0780
  154loPI   C2B 2462  17.611   1.798   9.060  0.0880 -0.1930  0.0945
  154loPI   C3B 2463  17.737   1.677   8.724 -0.0470  0.1052 -0.0556
  154loPI   C4B 2464  17.779   1.811   8.313  0.1278 -0.1066 -0.1918
  155loPI    C1 2465   2.186   7.636  10.586  0.3105  0.1043  0.0733
  155loPI    C2 2466   2.124   8.017  10.693  0.0331  0.1745 -0.3135
  155loPI    C3 2467   1.894   7.727  10.845  0.1923  0.1673 -0.0803
  155loPI   PO4 2468   2.364   7.694  10.374 -0.2608 -0.0364 -0.2578
  155loPI   GL1 2469   2.570   7.910  10.043 -0.1019  0.0882  0.0790
  155loPI   GL2 2470   2.843   7.598   9.940 -0.0465  0.2608 -0.1977
  155loPI   C1A 2471   2.396   7.996   9.680  0.2280 -0.1851  0.2189
  155loPI   C2A 2472   2.384   7.970   9.303 -0.0310  0.0998  0.3143
  155loPI   C3A 2473   2.418   8.018   8.907 -0.1944  0.4363  0.1161
  155loPI   C4A 2474   2.287   8.035   8.485  0.1035 -0.1555  0.1982
  155loPI   C5A 2475   2.482   7.939   8.080 -0.3641  0.1349  0.2038
  155loPI   C6A 2476   2.182   7.726   7.763  0.4832  0.0109  0.3243
  155loPI   C1B 2477   2.619   7.573   9.503  0.0563  0.4734  0.2400
  155loPI   C2B 2478   2.727   7.424   9.164  0.0552  0.0582  0.2568
  155loPI   C3B 2479   2.711   7.348   8.708  0.1961  0.0290  0.0027
  155loPI   C4B 2480   2.704   7.620   8.459  0.1132 -0.2413 -0.3297
  156loPI    C1 2481   1.495  10.412  10.299 -0.1042 -0.0789 -0.0145
  156loPI    C2 2482   1.775  10.370  10.581 -0.0308  0.1473 -0.0513
  156loPI    C3 2483   1.388  10.341  10.678  0.0042 -0.2808 -0.0206
  156loPI   PO4 2484   1.628  10.211  10.017 -0.1582  0.2334 -0.0698
  156loPI   GL1 2485   1.510  10.112   9.693  0.0019 -0.0138  0.4021
  156loPI   GL2 2486   1.476  10.189   9.397 -0.0406  0.2327  0.0901
  156loPI   C1A 2487   1.211   9.730   9.385  0.1869  0.0335 -0.1470
  156loPI   C2A 2488   1.244   9.759   8.929 -0.1842 -0.0537  0.0072
  156loPI   C3A 2489   1.101   9.697   8.507 -0.0340 -0.1369  0.0814
  156loPI   C4A 2490   1.028   9.733   8.101 -0.5848 -0.0364  0.2848
  156loPI   C5A 2491   1.226   9.862   7.733 -0.0206 -0.1542 -0.0913
  156loPI   C6A 2492   1.198  10.232   7.464 -0.0467 -0.2840 -0.0750
  156loPI   C1B 2493   1.438  10.262   8.918  0.2016  0.3141 -0.4980
  156loPI   C2B 2494   1.385  10.263   8.579 -0.1549 -0.1324  0.2070
  156loPI   C3B 2495   1.477   9.934   8.160  0.0927 -0.1983 -0.1862
  156loPI   C4B 2496   1.716   9.942   7.717 -0.0799  0.1268 -0.1626
  157loPI    C1 2497   7.866   3.743  10.443 -0.1445  0.2491  0.1480
  157loPI    C2 2498   7.697   3.488  10.701  0.0731  0.0559  0.1033
  157loPI    C3 2499   8.084   3.582  10.738  0.0124  0.3253  0.0749
  157loPI   PO4 2500   7.630   3.735  10.275 -0.0451  0.0230 -0.0753
  157loPI   GL1 2501   7.487   3.785   9.917  0.4020  0.1792 -0.1351
  157loPI   GL2 2502   7.473   3.388   9.868 -0.0668 -0.2818 -0.0715
  157loPI   C1A 2503   7.612   4.005   9.552  0.1065 -0.2003  0.0293
  157loPI   C2A 2504   7.528   3.933   9.130 -0.0597 -0.2263  0.0894
  157loPI   C3A 2505   7.628   3.951   8.635 -0.1746 -0.2025 -0.0145
  157loPI   C4A 2506   7.556   4.015   8.128  0.0939 -0.0985 -0.2821
  157loPI   C5A 2507   7.607   3.821   7.648 -0.0738  0.2254  0.0932
  157loPI   C6A 2508   7.670   3.625   7.238  0.0486 -0.4103  0.3332
  157loPI   C1B 2509   7.337   3.574   9.462 -0.1718 -0.0939 -0.5076
  157loPI   C2B 2510   7.230   3.539   8.940 -0.4801 -0.1477  0.3067
  157loPI   C3B 2511   7.341   3.548   8.499  0.0015 -0.0164  0.0994
  157loPI   C4B 2512   7.485   3.506   8.066  0.1050  0.1710  0.2259
  158loPI    C1 2513   4.711   9.575  10.302 -0.0353 -0.0456 -0.0391
  158loPI    C2 2514   4.417   9.509  10.565  0.1270 -0.1477  0.1193
  158loPI    C3 2515   4.744   9.710  10.677  0.2646 -0.3238  0.0398
  158loPI   PO4 2516   4.470   9.732  10.113 -0.0114 -0.0343 -0.0057
  158loPI   GL1 2517   4.425   9.864   9.721  0.1350 -0.1113  0.2147
  158loPI   GL2 2518   4.272  10.086   9.650  0.1162 -0.1365  0.3662
  158loPI   C1A 2519   4.508   9.899   9.268  0.2465 -0.2627 -0.2760
  158loPI   C2A 2520   4.472   9.959   8.787  0.0663 -0.0747 -0.0244
  158loPI   C3A 2521   4.366   9.876   8.385  0.2214 -0.0981 -0.0711
  158loPI   C4A 2522   4.364   9.841   7.972  0.1984  0.2046  0.0177
  158loPI   C5A 2523   4.686   9.652   7.539  0.2122 -0.0549  0.0790
  158loPI   C6A 2524   4.840   9.632   7.195 -0.1867  0.0321  0.0467
  158loPI   C1B 2525   3.989   9.874   9.425  0.0138  0.1463 -0.1502
  158loPI   C2B 2526   3.963   9.929   8.994 -0.1419  0.0251 -0.3176
  158loPI   C3B 2527   3.906   9.849   8.497  0.2903  0.0272 -0.2674
  158loPI   C4B 2528   3.857   9.913   8.102 -0.0754  0.0354 -0.2593
  159loPI    C1 2529   2.903   8.795  10.553 -0.1640  0.1844 -0.0799
  159loPI    C2 2530   2.581   8.997  10.678 -0.2872 -0.0670  0.0159
  159loPI    C3 2531   2.783   8.764  10.934 -0.0681  0.0363 -0.0607
  159loPI   PO4 2532   2.854   8.848  10.270  0.1937 -0.2676 -0.0953
  159loPI   GL1 2533   2.963   9.021   9.874  0.0039  0.1573 -0.1857
  159loPI   GL2 2534   2.644   8.859   9.817 -0.1606 -0.0019  0.1899
  159loPI   C1A 2535   2.986   8.958   9.455 -0.0072  0.0401  0.1028
  159loPI   C2A 2536   2.939   8.982   8.951 -0.1365 -0.1752  0.1658
  159loPI   C3A 2537   2.735   8.916   8.565 -0.2615 -0.4546  0.0414
  159loPI   C4A 2538   2.756   8.976   8.131  0.3610 -0.1944  0.2463
  159loPI   C5A 2539   2.510   8.618   7.871 -0.1421 -0.0044 -0.1284
  159loPI   C6A 2540   2.649   8.327   7.759 -0.2761  0.3070  0.0447
  159loPI   C1B 2541   2.482   8.973   9.512  0.2820 -0.1410 -0.1086
  159loPI   C2B 2542   2.378   8.933   9.037  0.2955 -0.3502 -0.2623
  159loPI   C3B 2543   2.280   8.799   8.654  0.1009 -0.1055  0.1337
  159loPI   C4B 2544   2.266   8.842   8.278 -0.3543  0.3689 -0.2748
  160loPI    C1 2545  12.615  11.807  10.459  0.2647  0.1473 -0.1527
  160loPI    C2 2546  12.956  11.785  10.667 -0.0782  0.0802  0.4247
  160loPI    C3 2547  12.640  11.977  10.820 -0.3688 -0.0356 -0.0093
  160loPI   PO4 2548  12.621  11.992  10.107  0.2807  0.2474 -0.2159
  160loPI   GL1 2549  12.918  12.190   9.862 -0.0360  0.0652  0.1205
  160loPI   GL2 2550  13.248  12.199   9.809 -0.0803 -0.1070 -0.3227
  160loPI   C1A 2551  12.685  12.290   9.444  0.1592  0.2273 -0.0256
  160loPI   C2A 2552  12.720  12.245   9.022 -0.0625  0.1441  0.1395
  160loPI   C3A 2553  12.758  12.276   8.568 -0.3243 -0.1007  0.1377
  160loPI   C4A 2554  12.892  12.089   8.138  0.1524 -0.2677 -0.1092
  160loPI   C5A 2555  12.700  12.207   7.826 -0.4634  0.0586 -0.2139
  160loPI   C6A 2556  12.748  12.580   7.517  0.2807  0.0563 -0.1060
  160loPI   C1B 2557  13.166  12.276   9.389 -0.0747  0.1873 -0.1201
  160loPI   C2B 2558  13.281  12.324   9.071  0.4916 -0.0724 -0.1859
  160loPI   C3B 2559  13.250  12.297   8.732 -0.0331  0.4105  0.2029
  160loPI   C4B 2560  13.364  12.168   8.349  0.2712  0.3530  0.2934
  161loPI    C1 2561   2.226  13.155  10.087  0.0304 -0.0537 -0.0207
  161loPI    C2 2562   2.341  13.042  10.453  0.2425  0.1584 -0.0188
  161loPI    C3 2563   2.009  13.260  10.406  0.1514  0.0324  0.0344
  161loPI   PO4 2564   2.235  13.021   9.876 -0.1015 -0.0709  0.0497
  161loPI   GL1 2565   1.924  13.051   9.557  0.0771  0.1906 -0.1130
  161loPI   GL2 2566   1.754  13.062   9.585  0.3316 -0.0478  0.1309
  161loPI   C1A 2567   1.958  13.074   9.068 -0.0977  0.0561  0.4598
  161loPI   C2A 2568   1.936  12.972   8.605 -0.0965  0.2431 -0.0590
  161loPI   C3A 2569   1.809  13.077   8.242  0.0847 -0.0303  0.1041
  161loPI   C4A 2570   1.965  12.966   7.783 -0.2183 -0.0626 -0.0974
  161loPI   C5A 2571   2.128  12.677   7.515 -0.2894 -0.0976  0.1180
  161loPI   C6A 2572   1.955  12.264   7.305  0.2087 -0.1571 -0.1098
  161loPI   C1B 2573   1.439  13.105   9.207 -0.1575  0.0852  0.1416
  161loPI   C2B 2574   1.363  12.954   8.844  0.0692 -0.3358  0.0380
  161loPI   C3B 2575   1.345  13.031   8.509  0.1058 -0.0115 -0.1702
  161loPI   C4B 2576   1.368  13.039   7.978 -0.1670 -0.3464 -0.3022
  162loPI    C1 2577   1.008   9.262  10.579  0.1711  0.1533 -0.2127
  162loPI    C2 2578   1.084   9.648  10.651 -0.1704  0.1895 -0.0267
  162loPI    C3 2579   1.182   9.370  10.922  0.1875  0.1290 -0.2133
  162loPI   PO4 2580   1.040   9.353  10.258 -0.1333  0.0128 -0.1375
  162loPI   GL1 2581   0.732   9.395   9.944 -0.2362 -0.1541  0.1039
  162loPI   GL2 2582   0.420   9.539  10.003 -0.3387 -0.0235 -0.1024
  162loPI   C1A 2583   0.732   9.667   9.556 -0.0181  0.2069 -0.0053
  162loPI   C2A 2584   0.737   9.718   9.115  0.1221 -0.1469  0.1265
  162loPI   C3A 2585   0.607   9.690   8.677  0.2684 -0.1101  0.5859
  162loPI   C4A 2586   0.589   9.713   8.217 -0.0995  0.4806  0.0098
  162loPI   C5A 2587   0.336   9.603   7.918 -0.1095 -0.3874 -0.3822
  162loPI   C6A 2588  -0.049   9.315   7.658  0.2068 -0.1513 -0.2695
  162loPI   C1B 2589   0.218   9.523   9.688  0.2190 -0.2692 -0.1294
  162loPI   C2B 2590   0.240   9.678   9.234  0.3325 -0.1802 -0.1499
  162loPI   C3B 2591   0.148   9.669   8.877  0.2443  0.1921 -0.2581
  162loPI   C4B 2592   0.123   9.565   8.428 -0.1450  0.1633  0.4682
  163loPI    C1 2593   1.655  16.513   9.923 -0.0049  0.0304  0.0467
  163loPI    C2 2594   1.987  16.290   9.921  0.3605  0.5566 -0.1488
  163loPI    C3 2595   1.890  16.499  10.247 -0.0601  0.0170  0.0862
  163loPI   PO4 2596   1.664  16.672   9.649 -0.0381 -0.0928 -0.1726
  163loPI   GL1 2597   1.724  16.644   9.183  0.0670  0.2747  0.1732
  163loPI   GL2 2598   1.962  16.769   9.262 -0.1725  0.0241 -0.1695
  163loPI   C1A 2599   1.899  16.713   8.712 -0.0722  0.1286  0.1538
  163loPI   C2A 2600   1.805  16.760   8.295  0.5591 -0.4801  0.0092
  163loPI   C3A 2601   1.787  16.658   7.886 -0.1116 -0.1507 -0.1353
  163loPI   C4A 2602   1.710  16.506   7.471 -0.1890 -0.1662  0.0564
  163loPI   C5A 2603   1.766  16.140   7.169 -0.0688  0.1258 -0.1389
  163loPI   C6A 2604   1.822  15.901   6.854 -0.0424  0.3045 -0.0773
  163loPI   C1B 2605   2.306  16.752   9.040 -0.0617  0.2392 -0.1965
  163loPI   C2B 2606   2.380  16.829   8.583  0.1542  0.1208 -0.0643
  163loPI   C3B 2607   2.319  16.720   8.142 -0.0757 -0.1708 -0.0529
  163loPI   C4B 2608   2.224  16.766   7.723 -0.0855  0.1562 -0.0334
  164loPI    C1 2609  13.348   2.135  10.224 -0.0169 -0.0184 -0.1801
  164loPI    C2 2610  13.619   2.171  10.515 -0.0099 -0.1596 -0.1684
  164loPI    C3 2611  13.245   2.300  10.574 -0.0285 -0.2572 -0.0688
  164loPI   PO4 2612  13.458   2.273  10.037 -0.1087  0.4176  0.0795
  164loPI   GL1 2613  13.513   2.364   9.683  0.1283 -0.0113 -0.0645
  164loPI   GL2 2614  13.854   2.408   9.726 -0.1748 -0.0852 -0.0558
  164loPI   C1A 2615  13.388   2.386   9.276 -0.2234  0.0136  0.0406
  164loPI   C2A 2616  13.364   2.467   8.807  0.1588 -0.2029  0.2246
  164loPI   C3A 2617  13.437   2.466   8.413 -0.0403 -0.2395 -0.0379
  164loPI   C4A 2618  13.578   2.703   8.080 -0.1126  0.1525  0.0440
  164loPI   C5A 2619  13.502   2.762   7.619 -0.1512  0.2377  0.1986
  164loPI   C6A 2620  13.247   2.981   7.338  0.0533  0.0741  0.0400
  164loPI   C1B 2621  13.974   2.446   9.392  0.1633  0.2501  0.1845
  164loPI   C2B 2622  13.838   2.417   9.015 -0.0970  0.2796  0.1303
  164loPI   C3B 2623  13.934   2.521   8.671  0.0201  0.1193  0.3223
  164loPI   C4B 2624  14.207   2.427   8.245 -0.2771  0.1372 -0.1075
  165loPI    C1 2625   1.680   3.137  10.487 -0.0119 -0.4736 -0.2225
  165loPI    C2 2626   2.023   3.207  10.680 -0.1014 -0.1474 -0.1761
  165loPI    C3 2627   1.678   3.204  10.881 -0.2040  0.2751 -0.3365
  165loPI   PO4 2628   1.829   2.955  10.292  0.0360  0.1000 -0.1013
  165loPI   GL1 2629   2.123   3.132   9.948 -0.1676  0.1744 -0.2723
  165loPI   GL2 2630   2.272   3.395   9.786  0.2058 -0.0446 -0.1179
  165loPI   C1A 2631   2.061   3.028   9.481 -0.2046  0.1887 -0.2643
  165loPI   C2A 2632   1.963   2.922   9.049  0.0648  0.1167  0.1155
  165loPI   C3A 2633   1.853   2.818   8.700  0.0185  0.0525  0.0042
  165loPI   C4A 2634   1.928   2.744   8.295 -0.0589 -0.0873 -0.1458
  165loPI   C5A 2635   1.829   2.836   7.921  0.1220 -0.1493  0.2927
  165loPI   C6A 2636   1.605   2.943   7.477 -0.2163 -0.0652 -0.0609
  165loPI   C1B 2637   2.274   3.456   9.451 -0.2036 -0.0746 -0.1247
  165loPI   C2B 2638   2.179   3.361   9.131 -0.0445  0.2426  0.1851
  165loPI   C3B 2639   2.113   3.391   8.716  0.0311  0.1840  0.2649
  165loPI   C4B 2640   2.172   3.179   8.358  0.0298 -0.2408  0.1101
  166loPI    C1 2641  17.722   2.186  10.810  0.0082 -0.1281 -0.0572
  166loPI    C2 2642  18.031   2.281  11.045 -0.0874  0.2287 -0.0707
  166loPI    C3 2643  17.662   2.266  11.197 -0.0819 -0.0728 -0.0824
  166loPI   PO4 2644  17.775   2.234  10.592 -0.1186 -0.0131  0.0827
  166loPI   GL1 2645  17.505   2.172  10.246 -0.1699 -0.4741 -0.1383
  166loPI   GL2 2646  17.588   2.449  10.190  0.0398 -0.1783 -0.0660
  166loPI   C1A 2647  17.438   2.155   9.771  0.1049 -0.1208 -0.0590
  166loPI   C2A 2648  17.328   2.242   9.398 -0.0334  0.1470  0.2633
  166loPI   C3A 2649  17.401   2.326   8.969 -0.3370  0.0379  0.0426
  166loPI   C4A 2650  17.460   2.138   8.569  0.1624 -0.2220  0.2977
  166loPI   C5A 2651  17.456   2.191   8.118  0.1552  0.1093 -0.1521
  166loPI   C6A 2652  17.664   1.977   7.821  0.2597 -0.2136 -0.1026
  166loPI   C1B 2653  17.566   2.767   9.967  0.0120 -0.0272 -0.0828
  166loPI   C2B 2654  17.588   2.803   9.516  0.2251  0.2027 -0.1380
  166loPI   C3B 2655  17.518   2.798   9.117 -0.0121 -0.0530  0.3096
  166loPI   C4B 2656  17.689   2.744   8.780 -0.0104  0.4081 -0.1480
  167loPI    C1 2657   5.011  15.401  10.032 -0.0961  0.1401 -0.1294
  167loPI    C2 2658   5.037  15.474  10.425 -0.0351 -0.1197 -0.0830
  167loPI    C3 2659   5.053  15.098  10.290 -0.2332 -0.0452 -0.3218
  167loPI   PO4 2660   5.168  15.406   9.907 -0.3527  0.1595  0.0038
  167loPI   GL1 2661   5.179  15.441   9.474 -0.1754  0.1080  0.0736
  167loPI   GL2 2662   5.026  15.637   9.509  0.0274  0.0655  0.1510
  167loPI   C1A 2663   5.311  15.476   9.081  0.0840 -0.0704 -0.1773
  167loPI   C2A 2664   5.276  15.429   8.630  0.0231  0.1895  0.3041
  167loPI   C3A 2665   5.271  15.319   8.163  0.1666 -0.2909 -0.0961
  167loPI   C4A 2666   5.236  15.471   7.737 -0.0219  0.1769 -0.2853
  167loPI   C5A 2667   5.083  15.449   7.448  0.4645  0.1656 -0.1383
  167loPI   C6A 2668   4.604  15.261   7.426  0.2542  0.1531 -0.2184
  167loPI   C1B 2669   4.790  15.492   9.139 -0.0871  0.1659  0.1273
  167loPI   C2B 2670   4.765  15.444   8.730  0.1996 -0.0562 -0.0949
  167loPI   C3B 2671   4.678  15.445   8.328 -0.1779 -0.1976  0.1092
  167loPI   C4B 2672   4.751  15.445   7.900 -0.1189  0.2568  0.0302
  168loPI    C1 2673   6.865   3.284  10.470  0.1699  0.2000 -0.2054
  168loPI    C2 2674   7.019   2.928  10.569 -0.0887  0.0668 -0.2739
  168loPI    C3 2675   7.160   3.261  10.740 -0.1747 -0.1110  0.1576
  168loPI   PO4 2676   6.849   3.243  10.165  0.2511 -0.0153  0.0294
  168loPI   GL1 2677   6.940   3.056   9.732  0.3214 -0.1779  0.2411
  168loPI   GL2 2678   6.636   3.101   9.751  0.0547  0.2030  0.0360
  168loPI   C1A 2679   7.046   3.189   9.295 -0.1590  0.0617  0.3496
  168loPI   C2A 2680   7.090   3.042   8.780 -0.4132 -0.2646  0.0750
  168loPI   C3A 2681   7.105   3.145   8.352  0.3046 -0.2987 -0.3727
  168loPI   C4A 2682   7.004   3.088   7.872 -0.2807 -0.1105 -0.3382
  168loPI   C5A 2683   6.643   3.266   7.642 -0.0177  0.1123 -0.0096
  168loPI   C6A 2684   6.342   3.513   7.326 -0.3852 -0.1345  0.1827
  168loPI   C1B 2685   6.573   3.123   9.308  0.1988 -0.1139 -0.0173
  168loPI   C2B 2686   6.540   3.098   8.835 -0.2152 -0.1950  0.1850
  168loPI   C3B 2687   6.610   3.088   8.456  0.0953 -0.1444  0.1365
  168loPI   C4B 2688   6.562   3.052   8.078  0.1127  0.0840 -0.0696
  169loPI    C1 2689   7.900  17.443   9.848  0.1278  0.0839 -0.0148
  169loPI    C2 2690   7.844  17.608  10.209 -0.0168  0.0102 -0.0026
  169loPI    C3 2691   8.163  17.375  10.142 -0.2117 -0.3243  0.2060
  169loPI   PO4 2692   7.768  17.636   9.661 -0.1342  0.0243 -0.0903
  169loPI   GL1 2693   8.003  17.759   9.433  0.0834 -0.1686 -0.2244
  169loPI   GL2 2694   7.886  17.827   9.155  0.0579  0.1205  0.4012
  169loPI   C1A 2695   8.444  17.738   9.235 -0.0132 -0.2535 -0.0293
  169loPI   C2A 2696   8.525  17.912   8.885  0.3352 -0.0167 -0.4314
  169loPI   C3A 2697   8.517  17.981   8.429 -0.1999 -0.2013 -0.1181
  169loPI   C4A 2698   8.660  18.026   8.063  0.1536  0.2195  0.4228
  169loPI   C5A 2699   8.561  18.103   7.705  0.1122 -0.0663 -0.3360
  169loPI   C6A 2700   8.655  18.001   7.290  0.1244 -0.0153  0.2164
  169loPI   C1B 2701   8.038  17.796   8.822 -0.2348 -0.0631  0.1508
  169loPI   C2B 2702   8.031  17.876   8.436 -0.4070  0.0277 -0.2246
  169loPI   C3B 2703   8.195  17.817   7.980  0.0820  0.1293  0.1195
  169loPI   C4B 2704   8.103  17.924   7.559 -0.0877  0.3306  0.2413
  170loPI    C1 2705  13.250  14.071  10.413 -0.0673  0.1662  0.0807
  170loPI    C2 2706  13.419  14.173  10.761  0.0713  0.2122  0.0009
  170loPI    C3 2707  13.032  14.072  10.748  0.0709  0.1886  0.1715
  170loPI   PO4 2708  13.403  14.185  10.172 -0.3437  0.4527  0.0015
  170loPI   GL1 2709  13.370  14.354   9.754  0.1960  0.1633 -0.2590
  170loPI   GL2 2710  13.256  13.879   9.792  0.1077 -0.1479  0.0343
  170loPI   C1A 2711  13.525  14.485   9.367  0.1655 -0.2616  0.4089
  170loPI   C2A 2712  13.389  14.518   8.923  0.0234  0.0726 -0.1695
  170loPI   C3A 2713  13.368  14.521   8.537 -0.2370  0.2553  0.1967
  170loPI   C4A 2714  13.230  14.505   8.160 -0.0028  0.0111 -0.0333
  170loPI   C5A 2715  12.984  14.549   7.860  0.1031  0.0788  0.0828
  170loPI   C6A 2716  12.687  14.675   7.503  0.1694  0.0358 -0.2869
  170loPI   C1B 2717  13.219  14.051   9.298  0.2333  0.3164  0.1117
  170loPI   C2B 2718  13.115  13.959   8.824  0.1106  0.0506 -0.0932
  170loPI   C3B 2719  13.175  14.036   8.352 -0.1237 -0.0815 -0.0529
  170loPI   C4B 2720  13.122  14.027   7.933 -0.0622 -0.0083  0.0629
  171loPI    C1 2721   4.397   3.923  10.281 -0.1596 -0.0922 -0.4173
  171loPI    C2 2722   4.216   3.566  10.262  0.0064 -0.2036 -0.0112
  171loPI    C3 2723   4.615   3.588  10.282  0.0082  0.0155 -0.2379
  171loPI   PO4 2724   4.271   4.035  10.035 -0.2191 -0.0430 -0.2986
  171loPI   GL1 2725   4.107   3.959   9.621 -0.0840 -0.0432 -0.0364
  171loPI   GL2 2726   3.993   3.661   9.718 -0.0515 -0.2381 -0.4369
  171loPI   C1A 2727   4.044   3.999   9.148  0.0982  0.1737  0.0186
  171loPI   C2A 2728   3.914   3.875   8.733 -0.1152 -0.2459  0.1681
  171loPI   C3A 2729   3.971   3.913   8.235  0.2123 -0.0840 -0.0773
  171loPI   C4A 2730   3.713   3.836   7.682  0.2160 -0.1122  0.1540
  171loPI   C5A 2731   3.458   3.564   7.343 -0.0627 -0.1904  0.0939
  171loPI   C6A 2732   3.370   3.125   7.403  0.0780 -0.2250 -0.4317
  171loPI   C1B 2733   3.824   3.494   9.358 -0.1544  0.3058  0.2249
  171loPI   C2B 2734   3.667   3.478   8.883 -0.0574 -0.1394  0.0403
  171loPI   C3B 2735   3.741   3.433   8.424  0.3588 -0.0745  0.1893
  171loPI   C4B 2736   3.648   3.416   8.034 -0.3404  0.2016  0.3019
  172loPI    C1 2737  14.878  14.985  11.169  0.0562  0.0757  0.1921
  172loPI    C2 2738  14.556  14.749  11.199  0.2299 -0.2043 -0.0792
  172loPI    C3 2739  14.833  14.747  11.488  0.1328 -0.1817  0.0147
  172loPI   PO4 2740  14.899  15.084  10.815 -0.0829  0.2330  0.1578
  172loPI   GL1 2741  14.833  14.889  10.370  0.0893 -0.1815 -0.0813
  172loPI   GL2 2742  14.857  15.098  10.052  0.3496 -0.2379  0.1672
  172loPI   C1A 2743  14.961  14.656   9.905 -0.0637  0.0420 -0.0620
  172loPI   C2A 2744  14.942  14.566   9.435  0.1240  0.1411 -0.1908
  172loPI   C3A 2745  15.041  14.591   9.057 -0.2152  0.3505 -0.2290
  172loPI   C4A 2746  15.084  14.563   8.607 -0.0414 -0.0393 -0.0196
  172loPI   C5A 2747  15.011  14.657   8.136 -0.0171  0.2598  0.0592
  172loPI   C6A 2748  14.759  14.865   7.782  0.1700 -0.1932  0.0640
  172loPI   C1B 2749  14.602  14.978   9.601 -0.0979  0.1662  0.0451
  172loPI   C2B 2750  14.694  14.894   9.216 -0.1354 -0.0910 -0.1623
  172loPI   C3B 2751  14.737  14.944   8.752 -0.0340 -0.1321  0.1528
  172loPI   C4B 2752  14.650  15.068   8.425 -0.0622 -0.0972 -0.0256
  173loPI    C1 2753   4.311   7.296  10.477  0.1710  0.0911  0.0424
  173loPI    C2 2754   4.086   7.038  10.685 -0.0252  0.1464 -0.0983
  173loPI    C3 2755   4.222   7.371  10.860 -0.0557  0.1140 -0.0128
  173loPI   PO4 2756   4.115   7.318  10.227 -0.3165  0.2261  0.1198
  173loPI   GL1 2757   4.045   7.194   9.817  0.0795  0.3498 -0.1957
  173loPI   GL2 2758   4.145   7.570   9.803  0.2289  0.0446 -0.0816
  173loPI   C1A 2759   4.061   7.004   9.458 -0.0245 -0.1189 -0.2176
  173loPI   C2A 2760   4.207   7.062   9.018  0.0204 -0.0528  0.0009
  173loPI   C3A 2761   4.041   7.131   8.749 -0.2998  0.1062 -0.1517
  173loPI   C4A 2762   3.998   7.142   8.329 -0.0856 -0.0721 -0.1353
  173loPI   C5A 2763   3.758   6.909   7.953 -0.3017  0.0778  0.1319
  173loPI   C6A 2764   3.403   6.653   7.711  0.0676 -0.2212 -0.1938
  173loPI   C1B 2765   4.275   7.431   9.421  0.0348 -0.1061 -0.2780
  173loPI   C2B 2766   4.263   7.625   9.084 -0.1555  0.0175  0.1829
  173loPI   C3B 2767   4.257   7.610   8.668 -0.1511  0.0737  0.6094
  173loPI   C4B 2768   4.188   7.594   8.293 -0.0618  0.0381  0.2611
  174loPI    C1 2769   6.507  11.700  10.153 -0.2548 -0.0718 -0.0496
  174loPI    C2 2770   6.460  11.308  10.085 -0.2194 -0.0846 -0.0009
  174loPI    C3 2771   6.526  11.441  10.457 -0.0741 -0.0477 -0.0393
  174loPI   PO4 2772   6.290  11.811  10.067  0.0889  0.3098 -0.0485
  174loPI   GL1 2773   6.124  12.105   9.757  0.1136  0.0787 -0.5273
  174loPI   GL2 2774   6.365  12.337   9.638  0.2688  0.0800  0.3130
  174loPI   C1A 2775   6.028  11.857   9.395 -0.0878 -0.0675 -0.1735
  174loPI   C2A 2776   5.902  11.876   8.925 -0.3397  0.1562  0.2952
  174loPI   C3A 2777   5.915  11.723   8.588 -0.0535 -0.3172 -0.1249
  174loPI   C4A 2778   5.935  11.639   8.141 -0.0271 -0.0743 -0.2288
  174loPI   C5A 2779   5.696  11.624   7.696 -0.5975 -0.1157  0.1275
  174loPI   C6A 2780   5.397  11.382   7.335 -0.1766  0.0521  0.0577
  174loPI   C1B 2781   6.364  12.295   9.243 -0.2135 -0.0546 -0.0450
  174loPI   C2B 2782   6.284  12.347   8.757  0.1942 -0.0246 -0.4128
  174loPI   C3B 2783   6.197  12.173   8.350 -0.0337  0.1657 -0.2137
  174loPI   C4B 2784   5.989  12.055   7.928 -0.0098  0.2213 -0.2230
  175loPI    C1 2785   9.929   0.994  10.204  0.0868 -0.2001 -0.1194
  175loPI    C2 2786   9.923   0.623  10.055 -0.0436 -0.2314 -0.0384
  175loPI    C3 2787   9.732   0.704  10.397  0.0705 -0.1118 -0.0022
  175loPI   PO4 2788   9.907   1.149  10.052  0.1800 -0.0015  0.2496
  175loPI   GL1 2789   9.823   1.212   9.657 -0.1231  0.1237  0.0930
  175loPI   GL2 2790   9.823   0.875   9.623  0.0922 -0.0017 -0.1633
  175loPI   C1A 2791   9.762   1.363   9.261 -0.0251 -0.3123 -0.1315
  175loPI   C2A 2792   9.695   1.448   8.895  0.0036 -0.0317  0.1447
  175loPI   C3A 2793   9.747   1.361   8.495  0.0761  0.1311 -0.0376
  175loPI   C4A 2794   9.793   1.501   8.045 -0.0308  0.0743 -0.1826
  175loPI   C5A 2795   9.773   1.579   7.644  0.1471 -0.0331  0.0549
  175loPI   C6A 2796   9.860   1.632   7.217 -0.0456  0.3053  0.0774
  175loPI   C1B 2797   9.938   0.918   9.181  0.1562 -0.0453  0.0457
  175loPI   C2B 2798   9.994   0.901   8.787  0.3081 -0.0087 -0.2027
  175loPI   C3B 2799  10.068   0.944   8.331  0.0980 -0.1196 -0.0540
  175loPI   C4B 2800  10.230   0.834   7.902  0.0092 -0.0519 -0.0260
  176loPI    C1 2801  11.868  13.684  10.170  0.2148 -0.1266  0.2911
  176loPI    C2 2802  11.911  14.050  10.325 -0.1174  0.0082  0.0766
  176loPI    C3 2803  11.594  13.828  10.423 -0.0507 -0.1195  0.0053
  176loPI   PO4 2804  11.955  13.806   9.897  0.0606 -0.3419 -0.1176
  176loPI   GL1 2805  12.101  13.636   9.531 -0.2093 -0.2727  0.1686
  176loPI   GL2 2806  12.375  13.896   9.655  0.0306 -0.0886  0.0429
  176loPI   C1A 2807  12.118  13.839   9.161  0.2559 -0.0760 -0.0227
  176loPI   C2A 2808  12.038  13.852   8.741  0.1398 -0.5228  0.3477
  176loPI   C3A 2809  11.995  13.828   8.329  0.2601 -0.4153  0.1386
  176loPI   C4A 2810  11.735  13.709   7.946  0.1666  0.0929 -0.0021
  176loPI   C5A 2811  11.635  13.465   7.577 -0.3500  0.1145 -0.1806
  176loPI   C6A 2812  11.398  13.097   7.446  0.0511  0.1491 -0.2787
  176loPI   C1B 2813  12.589  13.548   9.460 -0.0019  0.0894 -0.1733
  176loPI   C2B 2814  12.965  13.594   9.139  0.2763  0.0520 -0.1673
  176loPI   C3B 2815  12.951  13.530   8.686 -0.1187  0.0332 -0.3000
  176loPI   C4B 2816  12.807  13.730   8.186 -0.2799 -0.0841  0.0331
  177loPI    C1 2817  12.326  11.068  10.140 -0.3441  0.0293  0.1666
  177loPI    C2 2818  12.529  10.786  10.338 -0.0395  0.2374  0.1575
  177loPI    C3 2819  12.191  10.935  10.492 -0.2828 -0.2300  0.0943
  177loPI   PO4 2820  12.451  11.084   9.948  0.2664  0.1704  0.3639
  177loPI   GL1 2821  12.664  10.907   9.732  0.0587  0.1029  0.0229
  177loPI   GL2 2822  12.875  10.735   9.642 -0.2139 -0.4355  0.1426
  177loPI   C1A 2823  12.554  10.865   9.262  0.1722 -0.0759 -0.0141
  177loPI   C2A 2824  12.545  10.780   8.907  0.1141 -0.1642 -0.2022
  177loPI   C3A 2825  12.622  10.737   8.523  0.1778  0.0382 -0.1511
  177loPI   C4A 2826  12.608  10.902   8.142  0.1407  0.7447 -0.1274
  177loPI   C5A 2827  12.864  11.089   7.677  0.1144 -0.0572 -0.3349
  177loPI   C6A 2828  13.135  11.491   7.494  0.1166 -0.2433  0.0832
  177loPI   C1B 2829  13.096  10.907   9.244  0.4420  0.0377  0.0161
  177loPI   C2B 2830  13.045  10.823   8.820 -0.0883 -0.3134 -0.3216
  177loPI   C3B 2831  13.109  10.835   8.401 -0.0408  0.2145  0.2273
  177loPI   C4B 2832  13.073  10.727   7.997 -0.3370  0.0707  0.1776
  178loPI    C1 2833  11.865   2.373  10.427 -0.1846  0.1569  0.0572
  178loPI    C2 2834  12.136   2.663  10.476 -0.0357  0.0715 -0.2419
  178loPI    C3 2835  11.902   2.555  10.781  0.2815  0.1310  0.0276
  178loPI   PO4 2836  11.964   2.156  10.219 -0.0983  0.1819 -0.1730
  178loPI   GL1 2837  12.131   2.012   9.832 -0.1799  0.3450 -0.0666
  178loPI   GL2 2838  12.229   1.729   9.868 -0.1730  0.0393  0.1272
  178loPI   C1A 2839  12.041   1.925   9.404 -0.4938 -0.2828 -0.2495
  178loPI   C2A 2840  12.156   1.854   8.985 -0.0808 -0.0675  0.1207
  178loPI   C3A 2841  12.164   1.900   8.567  0.2891 -0.0377 -0.5767
  178loPI   C4A 2842  12.224   1.970   8.141 -0.1724  0.2193  0.1975
  178loPI   C5A 2843  12.225   2.111   7.700  0.1182  0.0824 -0.2212
  178loPI   C6A 2844  12.356   2.422   7.430 -0.0781 -0.0646 -0.0519
  178loPI   C1B 2845  12.296   1.491   9.387 -0.0314 -0.1802 -0.0030
  178loPI   C2B 2846  12.362   1.328   9.028  0.0788 -0.1426  0.0449
  178loPI   C3B 2847  12.417   1.455   8.611 -0.2164 -0.1029 -0.3090
  178loPI   C4B 2848  12.493   1.568   8.172 -0.0165 -0.1574  0.0561
  179loPI    C1 2849   1.991   6.823  11.068 -0.0116  0.1412  0.0555
  179loPI    C2 2850   2.178   7.169  10.998  0.3119 -0.0474 -0.0353
  179loPI    C3 2851   1.994   7.108  11.348  0.0907  0.2833 -0.0891
  179loPI   PO4 2852   1.875   6.855  10.774 -0.1556  0.2011 -0.1666
  179loPI   GL1 2853   1.946   6.541  10.408  0.0365 -0.1314  0.0532
  179loPI   GL2 2854   2.037   6.266  10.241  0.0735 -0.0304  0.3621
  179loPI   C1A 2855   1.704   6.541   9.985  0.0941 -0.2562 -0.5320
  179loPI   C2A 2856   1.715   6.456   9.495 -0.2480 -0.1748 -0.4431
  179loPI   C3A 2857   1.767   6.526   9.081 -0.1142  0.1089 -0.1403
  179loPI   C4A 2858   1.791   6.502   8.705  0.0823  0.2440 -0.0947
  179loPI   C5A 2859   1.692   6.464   8.331 -0.1899  0.0199  0.0053
  179loPI   C6A 2860   1.412   6.370   7.903 -0.1419  0.0216 -0.0129
  179loPI   C1B 2861   2.011   6.125   9.813  0.0276 -0.4422  0.0098
  179loPI   C2B 2862   2.044   6.080   9.325 -0.0699  0.1110  0.1833
  179loPI   C3B 2863   2.030   6.092   8.843 -0.2093  0.2319  0.1312
  179loPI   C4B 2864   1.992   6.004   8.366  0.2078 -0.3389 -0.2015
  180loPI    C1 2865  14.877  10.638  10.710 -0.1228 -0.0534  0.1728
  180loPI    C2 2866  15.096  10.409  10.954 -0.0419 -0.1463  0.0152
  180loPI    C3 2867  14.849  10.684  11.106  0.0500 -0.1637  0.1993
  180loPI   PO4 2868  14.806  10.477  10.495 -0.0422  0.0716 -0.1928
  180loPI   GL1 2869  15.091  10.577  10.170 -0.2757  0.2049  0.1682
  180loPI   GL2 2870  15.049  10.884  10.018  0.2579  0.1684  0.0873
  180loPI   C1A 2871  15.335  10.363   9.905  0.2286 -0.2678 -0.3134
  180loPI   C2A 2872  15.380  10.448   9.520  0.3459  0.2542 -0.2727
  180loPI   C3A 2873  15.432  10.408   9.093 -0.2031 -0.1257  0.2000
  180loPI   C4A 2874  15.317  10.593   8.751 -0.0911  0.2176  0.5369
  180loPI   C5A 2875  15.323  10.502   8.355  0.0805  0.1238 -0.0209
  180loPI   C6A 2876  15.418  10.377   7.988 -0.1759  0.1059  0.2817
  180loPI   C1B 2877  15.143  10.862   9.709 -0.0032  0.1906 -0.0659
  180loPI   C2B 2878  15.115  10.938   9.389  0.1617 -0.4567 -0.1570
  180loPI   C3B 2879  15.148  10.955   9.006  0.1505 -0.2803 -0.2406
  180loPI   C4B 2880  15.225  11.030   8.528  0.1351 -0.1635 -0.3010
  181loPI    C1 2881   7.690   5.946  10.684  0.0572  0.1262  0.1695
  181loPI    C2 2882   7.761   6.338  10.651  0.1008  0.1126  0.0990
  181loPI    C3 2883   7.648   6.184  11.003 -0.0681  0.2124  0.0896
  181loPI   PO4 2884   7.714   5.873  10.311 -0.1134 -0.2360 -0.0492
  181loPI   GL1 2885   7.756   5.849   9.936  0.0660  0.1318 -0.1442
  181loPI   GL2 2886   8.103   5.904   9.894  0.3056  0.1918 -0.0087
  181loPI   C1A 2887   7.469   5.819   9.536 -0.1499  0.3182  0.1823
  181loPI   C2A 2888   7.407   5.740   9.094  0.1539  0.0577 -0.1391
  181loPI   C3A 2889   7.555   5.785   8.677  0.0983  0.2025  0.1037
  181loPI   C4A 2890   7.512   6.003   8.262  0.3658  0.1275  0.0653
  181loPI   C5A 2891   7.609   6.033   7.820 -0.2341  0.0936  0.1278
  181loPI   C6A 2892   7.742   6.302   7.474 -0.1470  0.1156 -0.3866
  181loPI   C1B 2893   8.012   5.856   9.483 -0.4857 -0.3290  0.2097
  181loPI   C2B 2894   7.969   5.875   9.007  0.0752  0.3214 -0.3114
  181loPI   C3B 2895   8.009   5.914   8.537  0.1853 -0.5155  0.0775
  181loPI   C4B 2896   8.070   6.009   8.143  0.0095 -0.4002 -0.2326
  182loPI    C1 2897  11.949   1.691  10.300 -0.0278  0.0556 -0.1657
  182loPI    C2 2898  11.682   1.777  10.016 -0.1161  0.2687 -0.0208
  182loPI    C3 2899  11.582   1.813  10.401  0.0786  0.2154  0.0359
  182loPI   PO4 2900  12.057   1.442  10.223  0.0242 -0.1499  0.2330
  182loPI   GL1 2901  11.980   1.280   9.719  0.0561 -0.3447 -0.0518
  182loPI   GL2 2902  11.721   1.434   9.584  0.0480 -0.0522  0.0147
  182loPI   C1A 2903  12.042   0.995   9.359  0.1229 -0.1432  0.0811
  182loPI   C2A 2904  12.126   0.969   8.877 -0.0469  0.1368 -0.0139
  182loPI   C3A 2905  12.179   1.072   8.452  0.1904 -0.0851  0.6861
  182loPI   C4A 2906  12.246   0.948   8.031  0.0568  0.0655 -0.0365
  182loPI   C5A 2907  12.462   0.612   7.772  0.2799 -0.1100  0.2589
  182loPI   C6A 2908  12.779   0.710   7.456  0.0694 -0.3316  0.0160
  182loPI   C1B 2909  11.820   1.438   9.148  0.2280  0.0277  0.2124
  182loPI   C2B 2910  11.932   1.431   8.664  0.0664 -0.0637 -0.0484
  182loPI   C3B 2911  11.963   1.513   8.245  0.3139  0.0451 -0.0855
  182loPI   C4B 2912  12.059   1.533   7.787  0.0568 -0.3123 -0.1656
  183loPI    C1 2913  12.582  16.182  10.251 -0.1883 -0.0676  0.1719
  183loPI    C2 2914  12.912  16.382  10.357 -0.2181  0.0671  0.0148
  183loPI    C3 2915  12.669  16.234  10.638 -0.2267  0.3034  0.1345
  183loPI   PO4 2916  12.612  16.249   9.912  0.3410  0.0541 -0.0717
  183loPI   GL1 2917  12.768  16.450   9.528  0.2655 -0.1772 -0.0215
  183loPI   GL2 2918  12.943  16.763   9.394  0.3838 -0.0008  0.2899
  183loPI   C1A 2919  12.736  16.327   9.101  0.4308 -0.3178  0.1851
  183loPI   C2A 2920  12.739  16.329   8.628  0.0940 -0.1308  0.0810
  183loPI   C3A 2921  12.791  16.340   8.215  0.1166  0.1256  0.0089
  183loPI   C4A 2922  12.776  16.209   7.808 -0.1058  0.2519  0.2666
  183loPI   C5A 2923  12.572  16.377   7.410  0.1318 -0.0316  0.0974
  183loPI   C6A 2924  12.703  16.415   6.922  0.2844  0.0078 -0.1841
  183loPI   C1B 2925  12.896  16.831   8.883  0.0117  0.2558 -0.0704
  183loPI   C2B 2926  12.998  16.757   8.485  0.2708 -0.0530  0.2932
  183loPI   C3B 2927  12.940  16.913   8.153  0.1760  0.2268 -0.2268
  183loPI   C4B 2928  13.031  17.090   7.761 -0.1232 -0.1314  0.0843
  184loPI    C1 2929   9.732  11.218   9.650 -0.0099  0.0511 -0.0236
  184loPI    C2 2930   9.383  11.083   9.793  0.0568 -0.0415  0.0538
  184loPI    C3 2931   9.675  11.188  10.045  0.0443  0.1468 -0.0083
  184loPI   PO4 2932   9.645  11.323   9.418  0.2646  0.0854 -0.0540
  184loPI   GL1 2933   9.393  11.102   9.025  0.1132 -0.0914  0.2261
  184loPI   GL2 2934   9.207  10.833   8.966  0.0355  0.2536  0.0485
  184loPI   C1A 2935   9.371  11.050   8.587  0.0591  0.0427 -0.0281
  184loPI   C2A 2936   9.278  11.116   8.108  0.1686 -0.1362 -0.1533
  184loPI   C3A 2937   9.354  11.236   7.624 -0.1748 -0.2603 -0.0217
  184loPI   C4A 2938   9.433  11.135   7.163  0.1821  0.0141  0.1000
  184loPI   C5A 2939   9.174  11.038   6.864 -0.0533 -0.2154  0.1245
  184loPI   C6A 2940   9.086  10.646   6.868 -0.0394  0.0991 -0.1130
  184loPI   C1B 2941   8.954  10.681   8.624 -0.0818  0.0351 -0.2236
  184loPI   C2B 2942   8.936  10.399   8.277  0.1257 -0.1728  0.0550
  184loPI   C3B 2943   9.061  10.674   7.922 -0.2015  0.1470  0.1940
  184loPI   C4B 2944   9.369  10.723   7.680  0.2700  0.0485  0.1234
  185loPI    C1 2945   9.753   6.573  10.135  0.2136 -0.0889 -0.1355
  185loPI    C2 2946  10.054   6.444  10.364  0.1493 -0.0124 -0.0072
  185loPI    C3 2947   9.708   6.554  10.532 -0.0179 -0.2819 -0.1685
  185loPI   PO4 2948   9.804   6.469   9.930 -0.1617 -0.0326 -0.3863
  185loPI   GL1 2949   9.626   6.174   9.731  0.2801  0.1521  0.1218
  185loPI   GL2 2950   9.358   6.412   9.625  0.3641  0.1235 -0.0928
  185loPI   C1A 2951   9.607   5.893   9.312  0.1423 -0.2883 -0.1210
  185loPI   C2A 2952   9.532   6.002   8.963  0.2053  0.1762 -0.3387
  185loPI   C3A 2953   9.599   6.058   8.673 -0.0406 -0.0814  0.0139
  185loPI   C4A 2954   9.654   6.111   8.307 -0.1798  0.1482  0.0694
  185loPI   C5A 2955   9.654   6.178   7.856 -0.0915 -0.0735 -0.5714
  185loPI   C6A 2956   9.441   6.582   7.627  0.4642 -0.1301 -0.2014
  185loPI   C1B 2957   9.383   6.416   9.265 -0.1504  0.1220  0.1824
  185loPI   C2B 2958   9.365   6.555   8.948  0.2167 -0.3720  0.0487
  185loPI   C3B 2959   9.362   6.476   8.606  0.2989  0.0884 -0.0366
  185loPI   C4B 2960   9.343   6.517   8.155 -0.0988 -0.1633  0.0939
  186loPI    C1 2961   9.526   2.221  10.518 -0.1654  0.0332 -0.2152
  186loPI    C2 2962   9.346   2.431  10.807 -0.0010  0.0462 -0.1207
  186loPI    C3 2963   9.567   2.112  10.901  0.0943  0.0800 -0.2282
  186loPI   PO4 2964   9.584   2.376  10.266  0.0821  0.0795  0.1180
  186loPI   GL1 2965   9.439   2.286   9.830  0.0473  0.2333  0.5379
  186loPI   GL2 2966   9.534   2.491   9.731  0.2708  0.1503 -0.1167
  186loPI   C1A 2967   9.214   2.212   9.488  0.3147 -0.1687  0.0557
  186loPI   C2A 2968   9.255   2.339   8.999  0.2197 -0.1340 -0.0514
  186loPI   C3A 2969   9.145   2.263   8.600 -0.2000  0.0611 -0.2416
  186loPI   C4A 2970   9.256   2.314   8.210 -0.2674 -0.3261  0.1924
  186loPI   C5A 2971   9.322   2.474   7.766 -0.1378  0.0111  0.1438
  186loPI   C6A 2972   9.455   2.729   7.495 -0.3782 -0.0827  0.1642
  186loPI   C1B 2973   9.498   2.722   9.378  0.0699 -0.0164 -0.0946
  186loPI   C2B 2974   9.586   2.803   8.918 -0.0327  0.3875  0.1320
  186loPI   C3B 2975   9.486   2.767   8.471  0.0285 -0.4206 -0.1268
  186loPI   C4B 2976   9.590   2.852   8.087  0.0239  0.1252 -0.1504
  187loPI    C1 2977   6.634   1.308   9.975 -0.0439  0.2751 -0.1989
  187loPI    C2 2978   6.940   1.536   9.856  0.1457  0.1300  0.0021
  187loPI    C3 2979   6.784   1.585  10.221  0.1532 -0.0265  0.0268
  187loPI   PO4 2980   6.508   1.254   9.749 -0.0913  0.0325 -0.0459
  187loPI   GL1 2981   6.443   1.377   9.410 -0.1569  0.0615  0.0240
  187loPI   GL2 2982   6.234   1.153   9.380  0.1178 -0.2120  0.0045
  187loPI   C1A 2983   6.402   1.688   8.999  0.2962  0.0780 -0.0692
  187loPI   C2A 2984   6.376   1.760   8.553 -0.3384 -0.0998 -0.1142
  187loPI   C3A 2985   6.372   1.778   8.030 -0.2416 -0.2643 -0.3763
  187loPI   C4A 2986   6.257   1.790   7.593  0.0411 -0.1233 -0.0456
  187loPI   C5A 2987   5.982   1.820   7.345 -0.1944  0.0845 -0.2576
  187loPI   C6A 2988   5.949   2.104   7.060 -0.1578  0.2259 -0.2397
  187loPI   C1B 2989   6.179   1.209   8.940 -0.2891 -0.1306  0.0981
  187loPI   C2B 2990   6.120   1.303   8.412 -0.1211 -0.0020 -0.1619
  187loPI   C3B 2991   6.020   1.423   7.987  0.1147 -0.2449 -0.1113
  187loPI   C4B 2992   6.017   1.317   7.502 -0.0463  0.0568  0.1426
  188loPI    C1 2993   4.204   1.181  10.140 -0.3262 -0.0216 -0.0710
  188loPI    C2 2994   4.206   0.799  10.022  0.5423  0.0624 -0.4044
  188loPI    C3 2995   4.374   0.902  10.371 -0.1386  0.0924 -0.0691
  188loPI   PO4 2996   4.199   1.293   9.954 -0.2950 -0.2131 -0.0791
  188loPI   GL1 2997   4.152   1.070   9.636 -0.0798  0.1599 -0.0749
  188loPI   GL2 2998   3.952   0.740   9.470  0.1694  0.1857  0.0365
  188loPI   C1A 2999   4.174   1.133   9.122 -0.0552 -0.0377  0.1251
  188loPI   C2A 3000   4.126   1.193   8.671  0.0843  0.3504  0.2023
  188loPI   C3A 3001   4.015   1.175   8.300  0.0840 -0.0622  0.0569
  188loPI   C4A 3002   3.951   1.067   7.888 -0.2504 -0.0441 -0.1730
  188loPI   C5A 3003   4.098   0.923   7.529  0.0894  0.0896 -0.1223
  188loPI   C6A 3004   4.263   0.825   7.144  0.1043  0.0180 -0.2949
  188loPI   C1B 3005   3.775   0.765   9.044 -0.0158  0.2676  0.1120
  188loPI   C2B 3006   3.775   0.808   8.558  0.0419  0.0469  0.1922
  188loPI   C3B 3007   3.829   0.616   8.106 -0.0986 -0.4769  0.1904
  188loPI   C4B 3008   3.767   0.640   7.693 -0.0021  0.0834 -0.1936
  189loPI    C1 3009   3.783   1.814  10.361 -0.0795 -0.1807 -0.0175
  189loPI    C2 3010   4.067   1.543  10.436  0.1783  0.1125  0.0891
  189loPI    C3 3011   3.860   1.705  10.738  0.1281  0.1440  0.0380
  189loPI   PO4 3012   3.634   1.762  10.181  0.2178  0.3180 -0.1166
  189loPI   GL1 3013   3.575   1.708   9.714  0.0368 -0.1105 -0.0348
  189loPI   GL2 3014   3.732   2.060   9.802 -0.1683  0.0462  0.2577
  189loPI   C1A 3015   3.360   1.589   9.397  0.2552  0.1640  0.3011
  189loPI   C2A 3016   3.262   1.642   8.953  0.0484  0.1585 -0.3873
  189loPI   C3A 3017   3.290   1.602   8.480 -0.1326 -0.2862 -0.1769
  189loPI   C4A 3018   3.280   1.586   8.073  0.0920  0.1651  0.0095
  189loPI   C5A 3019   3.068   1.504   7.675  0.1322 -0.0862 -0.0409
  189loPI   C6A 3020   2.854   1.182   7.466 -0.0684 -0.0851  0.3508
  189loPI   C1B 3021   3.523   2.040   9.388 -0.0756  0.1771  0.0852
  189loPI   C2B 3022   3.434   2.120   8.942  0.5540 -0.0792  0.0812
  189loPI   C3B 3023   3.512   2.086   8.407  0.1478 -0.1139 -0.1332
  189loPI   C4B 3024   3.583   2.061   7.968 -0.3733 -0.0470  0.0764
  190loPI    C1 3025   1.318  10.798  10.483  0.0740 -0.0724  0.1280
  190loPI    C2 3026   1.096  11.112  10.595 -0.0392 -0.0703 -0.0966
  190loPI    C3 3027   1.323  10.921  10.863 -0.1864  0.0292  0.1010
  190loPI   PO4 3028   1.480  10.899  10.217  0.1659 -0.0881 -0.3327
  190loPI   GL1 3029   1.351  11.014   9.754  0.1944  0.0859 -0.1785
  190loPI   GL2 3030   1.616  11.236   9.787 -0.1510  0.1701  0.2209
  190loPI   C1A 3031   1.024  11.065   9.512 -0.2949  0.1892 -0.2447
  190loPI   C2A 3032   0.995  11.214   9.128 -0.1271  0.0264 -0.3101
  190loPI   C3A 3033   1.030  11.219   8.648 -0.0496  0.0861 -0.2432
  190loPI   C4A 3034   1.126  11.295   8.121  0.0164 -0.0189  0.0221
  190loPI   C5A 3035   1.330  11.531   7.750 -0.2259  0.0191 -0.3431
  190loPI   C6A 3036   1.497  11.701   7.427 -0.0008 -0.2565 -0.0148
  190loPI   C1B 3037   1.493  11.202   9.338  0.1277 -0.2827  0.1387
  190loPI   C2B 3038   1.473  11.181   8.902  0.0815 -0.5362  0.2461
  190loPI   C3B 3039   1.495  11.129   8.505 -0.1422 -0.0591 -0.1423
  190loPI   C4B 3040   1.660  11.212   8.157  0.0520 -0.5674 -0.0481
  191loPI    C1 3041   5.408  17.639   9.789  0.3106  0.1050  0.1047
  191loPI    C2 3042   5.188  17.858  10.041 -0.1241  0.0852 -0.2454
  191loPI    C3 3043   5.553  17.736  10.149 -0.2346  0.2137  0.3047
  191loPI   PO4 3044   5.285  17.522   9.724  0.0727 -0.0525  0.2018
  191loPI   GL1 3045   5.012  17.388   9.428 -0.1429  0.2012  0.2113
  191loPI   GL2 3046   4.775  17.428   9.288 -0.0942  0.0352  0.0122
  191loPI   C1A 3047   5.281  17.333   9.069 -0.1109 -0.0441 -0.0762
  191loPI   C2A 3048   5.297  17.304   8.663 -0.0218  0.0975 -0.0552
  191loPI   C3A 3049   5.148  17.234   8.197  0.0977 -0.3973 -0.3838
  191loPI   C4A 3050   5.045  17.274   7.794 -0.2268 -0.0746  0.0645
  191loPI   C5A 3051   5.026  17.460   7.412 -0.0399  0.0138  0.0641
  191loPI   C6A 3052   5.237  17.527   7.050  0.0733  0.0599 -0.0206
  191loPI   C1B 3053   4.759  17.365   8.953 -0.1590 -0.0684  0.1942
  191loPI   C2B 3054   4.738  17.245   8.527  0.0478 -0.2019  0.0397
  191loPI   C3B 3055   4.644  17.123   8.083  0.0495  0.2406 -0.0747
  191loPI   C4B 3056   4.562  17.339   7.729 -0.0433 -0.0130 -0.3519
  192loPI    C1 3057  13.417  15.108  10.358 -0.0461  0.1012 -0.1076
  192loPI    C2 3058  13.266  15.274  10.689  0.0659  0.0324 -0.0214
  192loPI    C3 3059  13.168  14.899  10.590  0.0982  0.0238 -0.0210
  192loPI   PO4 3060  13.466  15.295  10.130  0.1439  0.1814 -0.2033
  192loPI   GL1 3061  13.667  15.324   9.866  0.1349  0.1282 -0.2458
  192loPI   GL2 3062  13.869  15.537   9.808  0.0526  0.4104  0.0523
  192loPI   C1A 3063  13.721  15.056   9.490  0.0239  0.1914 -0.0325
  192loPI   C2A 3064  13.601  14.979   9.051 -0.3805 -0.1999  0.0373
  192loPI   C3A 3065  13.641  14.994   8.674 -0.3804  0.0537 -0.1685
  192loPI   C4A 3066  13.500  14.963   8.221 -0.1939  0.0813  0.3752
  192loPI   C5A 3067  13.579  14.681   7.838  0.1700  0.0641 -0.1091
  192loPI   C6A 3068  13.614  14.245   7.667 -0.1179  0.1217 -0.0328
  192loPI   C1B 3069  13.967  15.455   9.420  0.0343 -0.1175  0.0093
  192loPI   C2B 3070  13.915  15.382   9.047  0.0179 -0.2261  0.3415
  192loPI   C3B 3071  13.877  15.437   8.568 -0.1098  0.2890 -0.3660
  192loPI   C4B 3072  13.824  15.359   8.133  0.1381 -0.2509  0.2791
  193loPI    C1 3073  13.326   5.671  10.500 -0.0266  0.2255 -0.0032
  193loPI    C2 3074  13.041   5.934  10.601 -0.3652 -0.1513  0.0486
  193loPI    C3 3075  13.267   5.764  10.884 -0.2720 -0.0576  0.0312
  193loPI   PO4 3076  13.474   5.703  10.286  0.0075 -0.1089 -0.2923
  193loPI   GL1 3077  13.407   5.680   9.854  0.1995  0.4129 -0.0350
  193loPI   GL2 3078  13.722   5.667   9.864  0.0831 -0.0524 -0.1240
  193loPI   C1A 3079  13.459   5.644   9.433  0.1073 -0.1203  0.2239
  193loPI   C2A 3080  13.514   5.726   9.022 -0.3421  0.1965  0.1645
  193loPI   C3A 3081  13.495   5.657   8.558  0.0338 -0.3560 -0.4409
  193loPI   C4A 3082  13.649   5.784   8.266  0.1258 -0.1388  0.1958
  193loPI   C5A 3083  13.495   5.814   7.926  0.1667  0.1067  0.2585
  193loPI   C6A 3084  13.346   6.030   7.539 -0.1429 -0.0938  0.0734
  193loPI   C1B 3085  14.019   5.697   9.579  0.2952  0.1682 -0.0939
  193loPI   C2B 3086  14.047   5.649   9.184  0.0580 -0.0315 -0.1281
  193loPI   C3B 3087  13.967   5.628   8.731 -0.1433 -0.0643  0.1632
  193loPI   C4B 3088  14.164   5.645   8.363  0.0713  0.3436 -0.0578
  194loPI    C1 3089   7.402   9.793  10.178  0.0037 -0.0758 -0.3683
  194loPI    C2 3090   7.515   9.410  10.200  0.1550 -0.0140  0.0296
  194loPI    C3 3091   7.727   9.692  10.388 -0.1100  0.2318 -0.0327
  194loPI   PO4 3092   7.252   9.855   9.916  0.1605  0.0045  0.0060
  194loPI   GL1 3093   7.026   9.731   9.504  0.2023 -0.0166 -0.0737
  194loPI   GL2 3094   6.735   9.589   9.530 -0.0635  0.1109  0.2710
  194loPI   C1A 3095   6.684  10.030   9.344 -0.1922  0.1930 -0.3512
  194loPI   C2A 3096   6.475  10.052   9.019  0.3256 -0.2087 -0.1640
  194loPI   C3A 3097   6.485  10.107   8.652  0.0897 -0.3902  0.0618
  194loPI   C4A 3098   6.376   9.927   8.250 -0.0349  0.3591 -0.2486
  194loPI   C5A 3099   6.481   9.942   7.860 -0.0917 -0.1650 -0.0013
  194loPI   C6A 3100   6.656  10.117   7.448  0.0501 -0.0218  0.0907
  194loPI   C1B 3101   6.760   9.636   9.090 -0.0498  0.2590 -0.0904
  194loPI   C2B 3102   6.716   9.650   8.656 -0.1495  0.1838  0.1606
  194loPI   C3B 3103   6.739   9.457   8.344  0.3718  0.0592  0.3099
  194loPI   C4B 3104   6.740   9.395   7.925  0.0579 -0.0452  0.1703
  195loPI    C1 3105  10.333   6.066  10.519  0.1666 -0.0345  0.0316
  195loPI    C2 3106  10.474   5.739  10.702 -0.0436 -0.1311  0.0245
  195loPI    C3 3107  10.411   6.074  10.911 -0.2552 -0.2322  0.1259
  195loPI   PO4 3108  10.460   5.940  10.199 -0.0569 -0.2739  0.2533
  195loPI   GL1 3109  10.667   6.057   9.797 -0.3170  0.2433  0.2320
  195loPI   GL2 3110  10.458   5.729   9.731 -0.1377  0.4662  0.1135
  195loPI   C1A 3111  10.631   6.127   9.306 -0.2856  0.0538  0.0843
  195loPI   C2A 3112  10.576   6.121   8.888 -0.0423 -0.0315 -0.0764
  195loPI   C3A 3113  10.674   6.199   8.435  0.2635  0.1147  0.0931
  195loPI   C4A 3114  10.644   6.085   8.055  0.3371  0.3923 -0.0983
  195loPI   C5A 3115  10.698   5.856   7.640 -0.1215 -0.0950  0.1973
  195loPI   C6A 3116  10.884   5.788   7.270 -0.0299  0.2575  0.0802
  195loPI   C1B 3117  10.414   5.702   9.274  0.0521 -0.0131  0.0108
  195loPI   C2B 3118  10.369   5.635   8.820 -0.2802 -0.3231 -0.2075
  195loPI   C3B 3119  10.341   5.576   8.454 -0.0377 -0.0501 -0.1134
  195loPI   C4B 3120  10.338   5.614   7.936  0.0981 -0.0166 -0.0882
  196loPI    C1 3121   1.389   5.362  10.942 -0.3577  0.1431  0.0429
  196loPI    C2 3122   1.242   4.999  11.023 -0.0937  0.0708  0.2111
  196loPI    C3 3123   1.395   5.223  11.317  0.1713  0.1254  0.0354
  196loPI   PO4 3124   1.444   5.394  10.630 -0.2539  0.2211  0.3168
  196loPI   GL1 3125   1.457   5.591  10.212  0.0669  0.1305 -0.0355
  196loPI   GL2 3126   1.147   5.485  10.178 -0.2401  0.0445  0.0673
  196loPI   C1A 3127   1.739   5.616   9.823  0.0580 -0.1713  0.4142
  196loPI   C2A 3128   1.800   5.588   9.447 -0.1599 -0.0554  0.2616
  196loPI   C3A 3129   1.800   5.607   9.020 -0.0938  0.2895 -0.4244
  196loPI   C4A 3130   1.830   5.572   8.587 -0.2147  0.2749  0.1701
  196loPI   C5A 3131   1.707   5.477   8.203 -0.0114 -0.0378 -0.2486
  196loPI   C6A 3132   1.330   5.216   8.074  0.2497 -0.1434  0.0189
  196loPI   C1B 3133   1.226   5.576   9.766 -0.4624  0.2703  0.0605
  196loPI   C2B 3134   1.284   5.561   9.200  0.2191  0.1043 -0.2477
  196loPI   C3B 3135   1.267   5.644   8.813  0.1084  0.1846  0.1359
  196loPI   C4B 3136   1.185   5.607   8.327  0.0476  0.1198 -0.2139
  197loPI    C1 3137  14.197   8.736  10.334  0.2266 -0.0929  0.0120
  197loPI    C2 3138  13.845   8.879  10.461  0.1427 -0.0994 -0.2092
  197loPI    C3 3139  14.072   9.097  10.214  0.0826 -0.2830 -0.4296
  197loPI   PO4 3140  14.229   8.387  10.173  0.4211  0.1490  0.1119
  197loPI   GL1 3141  14.054   8.108   9.801  0.2447 -0.2143 -0.0520
  197loPI   GL2 3142  13.758   8.039   9.727 -0.0459  0.0148  0.1345
  197loPI   C1A 3143  14.113   8.132   9.362 -0.2708 -0.2628  0.1361
  197loPI   C2A 3144  14.133   8.110   8.902 -0.3379 -0.0374 -0.0124
  197loPI   C3A 3145  14.223   8.095   8.536  0.2182  0.1752  0.3680
  197loPI   C4A 3146  14.220   8.283   8.259 -0.0618 -0.1324 -0.3093
  197loPI   C5A 3147  14.454   8.303   7.896  0.2845  0.1134 -0.3957
  197loPI   C6A 3148  14.873   8.292   7.902  0.1572  0.1205 -0.2990
  197loPI   C1B 3149  13.577   8.019   9.344 -0.1174  0.0311  0.0365
  197loPI   C2B 3150  13.621   8.072   8.872  0.0730  0.0046 -0.0149
  197loPI   C3B 3151  13.638   8.156   8.622 -0.1735  0.2035  0.0160
  197loPI   C4B 3152  13.676   8.090   8.156 -0.0088 -0.2189 -0.0256
  198loPI    C1 3153   4.813   4.670  10.531 -0.0149  0.1657  0.1185
  198loPI    C2 3154   4.854   4.991  10.765 -0.0038 -0.0480  0.4156
  198loPI    C3 3155   5.056   4.656  10.848  0.2014 -0.0482 -0.0523
  198loPI   PO4 3156   4.911   4.783  10.300  0.0978  0.3965  0.2424
  198loPI   GL1 3157   4.845   4.693   9.840  0.0322 -0.2100 -0.1378
  198loPI   GL2 3158   5.000   4.953   9.787  0.3255  0.0532 -0.3033
  198loPI   C1A 3159   4.593   4.998   9.499  0.0435  0.2315  0.0512
  198loPI   C2A 3160   4.401   4.922   9.086 -0.2131 -0.2191  0.2858
  198loPI   C3A 3161   4.403   4.903   8.593 -0.0075 -0.1730 -0.3212
  198loPI   C4A 3162   4.445   4.906   8.221  0.3347  0.0470 -0.0734
  198loPI   C5A 3163   4.376   4.859   7.742  0.0053  0.2153  0.2469
  198loPI   C6A 3164   4.490   5.282   7.496  0.0282  0.0978 -0.1273
  198loPI   C1B 3165   5.043   4.846   9.393  0.0405 -0.5780  0.0881
  198loPI   C2B 3166   5.039   4.879   8.873  0.1796 -0.2607  0.1234
  198loPI   C3B 3167   5.059   4.885   8.454 -0.3045  0.1736 -0.0071
  198loPI   C4B 3168   4.997   4.838   8.061 -0.2820  0.2302  0.2464
  199loPI    C1 3169   9.915   6.026  10.114  0.1638 -0.0336 -0.0154
  199loPI    C2 3170   9.658   5.743  10.233  0.1295 -0.0530 -0.1344
  199loPI    C3 3171   9.807   6.002  10.498  0.0363 -0.0817 -0.0537
  199loPI   PO4 3172   9.998   5.907   9.809 -0.0660 -0.0885 -0.3106
  199loPI   GL1 3173  10.037   6.163   9.452 -0.3811  0.4437  0.5658
  199loPI   GL2 3174   9.908   6.436   9.431  0.0792 -0.0087 -0.4107
  199loPI   C1A 3175  10.114   6.029   9.080  0.1184 -0.0352 -0.0619
  199loPI   C2A 3176  10.130   6.078   8.652 -0.0130  0.0256 -0.2659
  199loPI   C3A 3177  10.181   6.158   8.207 -0.1388  0.1440  0.1007
  199loPI   C4A 3178  10.112   6.051   7.792 -0.1318  0.1644  0.1594
  199loPI   C5A 3179   9.973   6.295   7.365 -0.1883  0.1970  0.3303
  199loPI   C6A 3180   9.835   6.046   7.046 -0.0262  0.0879  0.1432
  199loPI   C1B 3181   9.899   6.506   9.013  0.1393  0.0618 -0.1069
  199loPI   C2B 3182   9.887   6.497   8.621 -0.2174 -0.1392 -0.0153
  199loPI   C3B 3183   9.832   6.562   8.212  0.0376  0.0810  0.1045
  199loPI   C4B 3184  10.038   6.526   7.779  0.2205  0.0521 -0.2320
  200loPI    C1 3185  17.365   7.095  10.985  0.3308  0.1528  0.0667
  200loPI    C2 3186  17.411   6.964  11.360  0.1112  0.1291  0.0864
  200loPI    C3 3187  17.508   7.341  11.268  0.1652  0.1353  0.1668
  200loPI   PO4 3188  17.477   6.888  10.782  0.0068  0.1988 -0.0862
  200loPI   GL1 3189  17.401   6.776  10.356 -0.0140 -0.1448  0.0716
  200loPI   GL2 3190  17.754   6.784  10.233 -0.0248  0.2172  0.2315
  200loPI   C1A 3191  17.164   6.868   9.923 -0.4260  0.0820  0.0265
  200loPI   C2A 3192  17.093   6.861   9.418 -0.1458 -0.4631  0.0910
  200loPI   C3A 3193  17.174   6.784   9.092 -0.0724  0.2646  0.2315
  200loPI   C4A 3194  17.279   6.811   8.711  0.1069 -0.0682 -0.0516
  200loPI   C5A 3195  17.276   6.717   8.288  0.0738 -0.2020 -0.1702
  200loPI   C6A 3196  17.419   6.848   7.841 -0.1875  0.3635 -0.1233
  200loPI   C1B 3197  17.639   6.879   9.851 -0.1249 -0.3818 -0.2849
  200loPI   C2B 3198  17.574   6.885   9.453 -0.2176 -0.0770 -0.0851
  200loPI   C3B 3199  17.693   6.875   9.005  0.0775 -0.1534 -0.2769
  200loPI   C4B 3200  17.787   6.819   8.551  0.3920 -0.0886 -0.2666
  201loPI    C1 3201   1.233  16.817   9.879  0.0620 -0.3127  0.3988
  201loPI    C2 3202   0.981  16.955  10.158 -0.1163  0.1120  0.0404
  201loPI    C3 3203   1.372  17.034  10.185 -0.1515  0.2703  0.0976
  201loPI   PO4 3204   1.012  16.767   9.684  0.4444 -0.0090  0.2139
  201loPI   GL1 3205   0.593  16.725   9.485  0.6099 -0.2637 -0.1247
  201loPI   GL2 3206   0.620  17.024   9.290  0.1608  0.4119  0.0412
  201loPI   C1A 3207   0.704  16.575   9.133  0.1286 -0.1912  0.2384
  201loPI   C2A 3208   0.734  16.584   8.723 -0.1698  0.1837  0.0768
  201loPI   C3A 3209   0.712  16.625   8.294 -0.2449  0.2353  0.0893
  201loPI   C4A 3210   0.691  16.491   7.939  0.0153 -0.0003 -0.0957
  201loPI   C5A 3211   0.809  16.584   7.554  0.2667 -0.0249  0.2534
  201loPI   C6A 3212   1.167  16.717   7.314 -0.2135 -0.0812  0.0328
  201loPI   C1B 3213   0.547  17.062   8.825  0.1036 -0.0184 -0.2860
  201loPI   C2B 3214   0.524  17.082   8.367 -0.2160  0.0066  0.0272
  201loPI   C3B 3215   0.525  16.955   7.969 -0.1058 -0.2234 -0.3850
  201loPI   C4B 3216   0.429  17.045   7.581 -0.1667  0.1838  0.0382
  202loPI    C1 3217  11.779   7.441  10.283 -0.0348  0.0403  0.0627
  202loPI    C2 3218  11.482   7.517  10.540 -0.0905 -0.1027  0.0418
  202loPI    C3 3219  11.853   7.644  10.619 -0.2096  0.3320 -0.0708
  202loPI   PO4 3220  11.648   7.460  10.036  0.1336  0.1295  0.3205
  202loPI   GL1 3221  11.427   7.728   9.745 -0.0622  0.1032  0.0751
  202loPI   GL2 3222  11.354   8.053   9.522 -0.0314  0.1462 -0.0485
  202loPI   C1A 3223  11.335   7.569   9.284 -0.3023 -0.0782 -0.2084
  202loPI   C2A 3224  11.361   7.548   8.883  0.1338 -0.0563 -0.2654
  202loPI   C3A 3225  11.391   7.602   8.511 -0.1211 -0.0900  0.1390
  202loPI   C4A 3226  11.418   7.612   8.032  0.0504  0.0048  0.1806
  202loPI   C5A 3227  11.328   7.360   7.687 -0.4330  0.1003  0.0260
  202loPI   C6A 3228  11.069   7.190   7.347 -0.2403  0.0430  0.0663
  202loPI   C1B 3229  11.583   8.018   9.112  0.1628  0.0151  0.4592
  202loPI   C2B 3230  11.610   8.037   8.561 -0.3102 -0.2148  0.0670
  202loPI   C3B 3231  11.615   8.039   8.084  0.1971 -0.1543 -0.1069
  202loPI   C4B 3232  11.707   8.158   7.625  0.0893 -0.3246 -0.2135
  203loPI    C1 3233  15.933   2.716  10.931 -0.0796  0.1802  0.0845
  203loPI    C2 3234  15.882   2.393  11.161  0.0516  0.0262 -0.0987
  203loPI    C3 3235  15.913   2.756  11.328 -0.0637 -0.0585  0.1106
  203loPI   PO4 3236  15.791   2.703  10.741  0.0597 -0.1667  0.1751
  203loPI   GL1 3237  15.762   2.780  10.309 -0.0164  0.1021  0.1133
  203loPI   GL2 3238  15.527   2.681  10.115 -0.0007 -0.0551  0.0096
  203loPI   C1A 3239  15.870   3.010   9.961 -0.1102 -0.2813 -0.2906
  203loPI   C2A 3240  15.697   3.047   9.556 -0.1740 -0.1848  0.1922
  203loPI   C3A 3241  15.814   3.147   9.188 -0.3174 -0.2536 -0.3237
  203loPI   C4A 3242  15.811   3.036   8.709 -0.2206  0.2961 -0.0942
  203loPI   C5A 3243  15.944   2.977   8.259  0.1305  0.0874 -0.1038
  203loPI   C6A 3244  15.998   2.993   7.716 -0.1846  0.0290 -0.0732
  203loPI   C1B 3245  15.382   2.606   9.639 -0.4585 -0.0208  0.1683
  203loPI   C2B 3246  15.419   2.576   9.216 -0.3088 -0.0443  0.1089
  203loPI   C3B 3247  15.492   2.601   8.837 -0.2520 -0.0656 -0.0018
  203loPI   C4B 3248  15.681   2.548   8.417 -0.2840  0.2023  0.1409
  204loPI    C1 3249   4.157   7.763  10.390  0.1289  0.0737 -0.0203
  204loPI    C2 3250   4.413   8.046  10.508  0.0816  0.1578 -0.1187
  204loPI    C3 3251   4.181   7.863  10.777  0.3920 -0.0671  0.0019
  204loPI   PO4 3252   4.153   7.989  10.093 -0.3531  0.1271 -0.1795
  204loPI   GL1 3253   4.238   8.042   9.722 -0.2386  0.0940  0.0962
  204loPI   GL2 3254   4.466   7.905   9.627 -0.1252  0.2079  0.0884
  204loPI   C1A 3255   4.029   8.022   9.308 -0.0385 -0.0891 -0.3152
  204loPI   C2A 3256   3.953   7.984   8.803  0.2606  0.0847  0.2869
  204loPI   C3A 3257   3.886   8.062   8.391  0.0569 -0.0622 -0.0024
  204loPI   C4A 3258   3.715   8.025   8.019 -0.1546  0.1703 -0.0966
  204loPI   C5A 3259   3.381   7.785   7.687 -0.3155 -0.1354 -0.3808
  204loPI   C6A 3260   3.204   7.475   7.322 -0.0475 -0.0566 -0.2856
  204loPI   C1B 3261   4.571   8.011   9.184  0.0246  0.2308 -0.1455
  204loPI   C2B 3262   4.486   8.046   8.718 -0.1309 -0.0780 -0.0941
  204loPI   C3B 3263   4.421   8.060   8.332  0.1582  0.0444 -0.1382
  204loPI   C4B 3264   4.258   8.031   7.906 -0.0005 -0.0279  0.1274
  205loPI    C1 3265  13.376  18.724  10.655 -0.2136 -0.1218  0.0423
  205loPI    C2 3266  13.206  18.541  10.968  0.0449 -0.1784  0.1518
  205loPI    C3 3267  13.595  18.636  10.978  0.0171 -0.0306 -0.0869
  205loPI   PO4 3268  13.270  18.636  10.413  0.2223 -0.0285  0.0660
  205loPI   GL1 3269  13.355  18.659  10.020 -0.1122  0.2081 -0.0057
  205loPI   GL2 3270  13.480  18.475   9.846 -0.1355 -0.2432  0.3241
  205loPI   C1A 3271  13.199  18.883   9.656 -0.4604  0.0670  0.0730
  205loPI   C2A 3272  13.224  19.031   9.315 -0.0948  0.0669  0.0517
  205loPI   C3A 3273  13.237  19.094   8.904 -0.4340 -0.1874  0.0066
  205loPI   C4A 3274  13.279  19.056   8.493 -0.0195  0.1630  0.0600
  205loPI   C5A 3275  13.241  19.047   8.039 -0.0332 -0.0212 -0.1050
  205loPI   C6A 3276  13.001  18.905   7.684 -0.1242 -0.0282  0.0781
  205loPI   C1B 3277  13.403  18.469   9.513  0.2071 -0.0536  0.1945
  205loPI   C2B 3278  13.391  18.562   9.107 -0.0584 -0.0240 -0.1754
  205loPI   C3B 3279  13.509  18.583   8.670 -0.4219  0.1320  0.2484
  205loPI   C4B 3280  13.614  18.675   8.228  0.0868 -0.1527 -0.3222
  206loPI    C1 3281   1.685   0.993  10.576  0.1507  0.2336 -0.0200
  206loPI    C2 3282   1.880   0.834  10.887  0.2976  0.1104 -0.1733
  206loPI    C3 3283   1.626   1.137  10.944 -0.0932 -0.2644  0.1449
  206loPI   PO4 3284   1.586   0.797  10.388  0.2675 -0.1245 -0.1684
  206loPI   GL1 3285   1.461   0.799   9.925 -0.1962  0.0951 -0.0630
  206loPI   GL2 3286   1.224   0.899   9.691 -0.0251  0.1555 -0.2956
  206loPI   C1A 3287   1.762   0.775   9.620 -0.0030  0.2129 -0.0163
  206loPI   C2A 3288   1.686   0.638   9.182 -0.2739 -0.0548 -0.0556
  206loPI   C3A 3289   1.708   0.606   8.761  0.3041  0.1556 -0.1129
  206loPI   C4A 3290   1.779   0.635   8.358 -0.0445 -0.2925 -0.0261
  206loPI   C5A 3291   1.746   0.586   7.884  0.1016  0.1245  0.1675
  206loPI   C6A 3292   1.370   0.447   7.560 -0.0189 -0.3433  0.2840
  206loPI   C1B 3293   1.015   0.982   9.282  0.0212 -0.1475  0.1431
  206loPI   C2B 3294   0.903   0.931   8.899  0.3463 -0.2202 -0.1822
  206loPI   C3B 3295   0.917   0.996   8.532 -0.0655  0.0994  0.1419
  206loPI   C4B 3296   0.845   1.067   8.097 -0.0148 -0.1747 -0.0413
  207loPI    C1 3297  15.181   8.017  10.523 -0.0399 -0.1823 -0.1604
  207loPI    C2 3298  15.457   7.998  10.812 -0.1519  0.1380 -0.0277
  207loPI    C3 3299  15.146   7.746  10.814 -0.1172  0.0960  0.0949
  207loPI   PO4 3300  15.286   8.011  10.301  0.3738 -0.2329 -0.0176
  207loPI   GL1 3301  15.416   7.799   9.958  0.2094 -0.0314  0.3538
  207loPI   GL2 3302  15.225   8.100   9.815 -0.2628 -0.1630 -0.0842
  207loPI   C1A 3303  15.571   7.663   9.492  0.0526  0.2809 -0.1085
  207loPI   C2A 3304  15.630   7.668   8.927 -0.1968 -0.2973 -0.1645
  207loPI   C3A 3305  15.555   7.597   8.445 -0.1497 -0.0289  0.1685
  207loPI   C4A 3306  15.367   7.462   8.041  0.0155  0.1790 -0.1152
  207loPI   C5A 3307  15.178   7.279   7.715  0.1639 -0.3152 -0.0823
  207loPI   C6A 3308  14.848   7.524   7.417  0.1062  0.0566 -0.4523
  207loPI   C1B 3309  15.228   8.128   9.395 -0.0931 -0.2244  0.0899
  207loPI   C2B 3310  15.248   8.305   8.942 -0.1808  0.0225  0.2059
  207loPI   C3B 3311  15.226   8.188   8.559  0.1036  0.0901 -0.0155
  207loPI   C4B 3312  15.402   8.240   8.075 -0.1691 -0.0267  0.0729
  208loPI    C1 3313   3.717  13.625  10.238 -0.0806  0.0892 -0.0923
  208loPI    C2 3314   3.572  13.992  10.308 -0.0254  0.0751  0.1025
  208loPI    C3 3315   3.545  13.709  10.589 -0.1561 -0.0997 -0.0833
  208loPI   PO4 3316   3.703  13.657   9.944  0.1103 -0.0647 -0.3388
  208loPI   GL1 3317   3.606  13.557   9.475 -0.2861  0.2635  0.2628
  208loPI   GL2 3318   3.275  13.518   9.353  0.0602  0.1223 -0.0517
  208loPI   C1A 3319   3.840  13.689   9.197 -0.3059  0.0584  0.0027
  208loPI   C2A 3320   3.832  13.498   8.841 -0.0928 -0.0427 -0.2050
  208loPI   C3A 3321   3.926  13.636   8.448 -0.0526 -0.2187  0.2588
  208loPI   C4A 3322   3.670  13.524   8.152  0.1658  0.0738 -0.2759
  208loPI   C5A 3323   3.645  13.516   7.748  0.2071 -0.1888 -0.2126
  208loPI   C6A 3324   3.696  13.173   7.416  0.0057  0.0715 -0.0446
  208loPI   C1B 3325   3.322  13.601   8.924 -0.2808  0.2181  0.1170
  208loPI   C2B 3326   3.280  13.484   8.469 -0.0288 -0.0265  0.1233
  208loPI   C3B 3327   3.120  13.524   8.154  0.0041 -0.3017 -0.1264
  208loPI   C4B 3328   3.159  13.306   7.754 -0.0070 -0.1409  0.1776
  209loPI    C1 3329  15.420   2.380  10.666 -0.1310 -0.0309 -0.1710
  209loPI    C2 3330  15.689   2.258  10.396  0.2116  0.2671  0.0265
  209loPI    C3 3331  15.686   2.098  10.763  0.0149  0.1553 -0.0222
  209loPI   PO4 3332  15.175   2.362  10.509 -0.2470 -0.2180  0.1779
  209loPI   GL1 3333  14.972   2.352  10.138 -0.2062  0.3108 -0.0787
  209loPI   GL2 3334  14.911   2.667  10.237  0.0054  0.2410  0.2577
  209loPI   C1A 3335  14.937   2.485   9.760  0.1030  0.0525 -0.0684
  209loPI   C2A 3336  14.974   2.533   9.383 -0.2431  0.4152 -0.0034
  209loPI   C3A 3337  14.950   2.518   8.979  0.1980  0.0911  0.2602
  209loPI   C4A 3338  15.054   2.550   8.544 -0.0952  0.0310  0.0830
  209loPI   C5A 3339  15.224   2.559   8.227  0.0553  0.0876  0.1381
  209loPI   C6A 3340  15.455   2.869   8.119 -0.1183  0.0252 -0.2172
  209loPI   C1B 3341  14.688   2.913   9.876  0.0913 -0.3684 -0.0080
  209loPI   C2B 3342  14.798   2.959   9.551  0.2589  0.1486 -0.0393
  209loPI   C3B 3343  14.732   2.997   9.101  0.0615 -0.0684 -0.1385
  209loPI   C4B 3344  14.779   2.961   8.655 -0.2434 -0.2168 -0.1809
  210loPI    C1 3345  18.070   0.173  10.609 -0.3933 -0.1895 -0.0211
  210loPI    C2 3346  17.831   0.362  10.869 -0.1573  0.0686  0.0130
  210loPI    C3 3347  18.091   0.088  10.999  0.0246  0.2635  0.0654
  210loPI   PO4 3348  17.879   0.320  10.368  0.0241 -0.1977 -0.0091
  210loPI   GL1 3349  17.663   0.086  10.055  0.3910  0.1862  0.0107
  210loPI   GL2 3350  17.465   0.434  10.013  0.1508  0.1650  0.0006
  210loPI   C1A 3351  17.835  -0.120   9.706 -0.1243  0.0468  0.0021
  210loPI   C2A 3352  17.771  -0.121   9.294 -0.0591  0.0774  0.3265
  210loPI   C3A 3353  17.686  -0.083   8.883 -0.2663 -0.0626 -0.0287
  210loPI   C4A 3354  17.664  -0.104   8.423  0.3031 -0.1061  0.1049
  210loPI   C5A 3355  17.758  -0.110   7.950  0.1588 -0.3623  0.3024
  210loPI   C6A 3356  18.041   0.262   7.905  0.3542 -0.0090  0.4282
  210loPI   C1B 3357  17.509   0.342   9.524 -0.0902  0.2314 -0.2826
  210loPI   C2B 3358  17.456   0.381   9.093  0.2433  0.0291  0.2337
  210loPI   C3B 3359  17.510   0.351   8.589 -0.0380  0.0885  0.0072
  210loPI   C4B 3360  17.547   0.314   8.183 -0.2006  0.2874 -0.0376
  211loPI    C1 3361  18.558   1.296  10.638 -0.1578 -0.3367  0.1078
  211loPI    C2 3362  18.298   1.189  10.922 -0.2060  0.2713  0.3073
  211loPI    C3 3363  18.426   1.567  10.901 -0.0075  0.1795 -0.3317
  211loPI   PO4 3364  18.484   1.286  10.431 -0.0048  0.0377 -0.3934
  211loPI   GL1 3365  18.415   1.117  10.080 -0.1710  0.3830  0.1758
  211loPI   GL2 3366  18.759   1.235   9.957  0.2059  0.1748  0.1497
  211loPI   C1A 3367  18.253   0.977   9.626  0.0763 -0.0166  0.1048
  211loPI   C2A 3368  18.250   1.003   9.249  0.0063  0.1737  0.0108
  211loPI   C3A 3369  18.310   0.857   8.836 -0.3033 -0.0500  0.2728
  211loPI   C4A 3370  18.164   0.856   8.335 -0.0589  0.1988 -0.1165
  211loPI   C5A 3371  17.960   0.770   8.016 -0.1725  0.0058  0.1976
  211loPI   C6A 3372  17.751   1.027   7.895  0.1047  0.0783  0.3060
  211loPI   C1B 3373  18.566   1.428   9.630  0.0618  0.1250 -0.0639
  211loPI   C2B 3374  18.505   1.412   9.182 -0.0944  0.3254 -0.2412
  211loPI   C3B 3375  18.426   1.322   8.760  0.0617 -0.2637  0.1969
  211loPI   C4B 3376  18.537   1.410   8.284  0.1146 -0.3439 -0.1474
  212loPI    C1 3377   6.975  13.007  10.078 -0.0090 -0.1438 -0.1606
  212loPI    C2 3378   6.993  12.675  10.301  0.1357 -0.1593 -0.1944
  212loPI    C3 3379   7.146  13.018  10.439  0.0364 -0.1190 -0.1828
  212loPI   PO4 3380   7.037  12.942   9.795  0.0300  0.2696 -0.0353
  212loPI   GL1 3381   6.848  12.849   9.455 -0.0768  0.0511  0.0205
  212loPI   GL2 3382   6.514  12.851   9.396 -0.1768 -0.0329 -0.0039
  212loPI   C1A 3383   7.021  12.697   9.013 -0.1167  0.0943  0.2294
  212loPI   C2A 3384   6.935  12.630   8.556  0.1803 -0.2678  0.0079
  212loPI   C3A 3385   6.832  12.654   8.158  0.1530  0.0111 -0.1665
  212loPI   C4A 3386   6.802  12.766   7.709  0.1938  0.0137  0.1768
  212loPI   C5A 3387   6.913  13.001   7.426  0.0859 -0.1327  0.4786
  212loPI   C6A 3388   6.909  13.430   7.477  0.2081  0.2571 -0.1017
  212loPI   C1B 3389   6.545  12.753   8.978  0.1670 -0.2425  0.0140
  212loPI   C2B 3390   6.446  12.701   8.435 -0.2470  0.0328 -0.0625
  212loPI   C3B 3391   6.342  12.617   8.034 -0.3476  0.2030  0.0743
  212loPI   C4B 3392   6.287  12.369   7.678  0.1368  0.2909  0.0352
  213loPI    C1 3393  17.436  12.301  11.011  0.2427  0.3606  0.1691
  213loPI    C2 3394  17.283  12.582  11.251 -0.0120  0.1773  0.2259
  213loPI    C3 3395  17.352  12.214  11.393 -0.1824  0.0620  0.0157
  213loPI   PO4 3396  17.286  12.312  10.754  0.2310  0.0658 -0.2127
  213loPI   GL1 3397  17.321  12.080  10.330  0.0813 -0.2515  0.0796
  213loPI   GL2 3398  17.096  12.258  10.245 -0.2445  0.0890 -0.7032
  213loPI   C1A 3399  17.427  12.318   9.880  0.0206  0.0192  0.1345
  213loPI   C2A 3400  17.511  12.378   9.493  0.1460  0.2880  0.0500
  213loPI   C3A 3401  17.407  12.381   9.055 -0.1314  0.1715  0.1134
  213loPI   C4A 3402  17.556  12.447   8.643 -0.0345 -0.5135  0.2762
  213loPI   C5A 3403  17.679  12.320   8.205  0.0186  0.0829 -0.0059
  213loPI   C6A 3404  17.890  12.584   7.991 -0.0158  0.0303 -0.1828
  213loPI   C1B 3405  16.936  12.353   9.807 -0.0830 -0.1097 -0.1559
  213loPI   C2B 3406  16.896  12.382   9.372  0.1849 -0.0244 -0.1105
  213loPI   C3B 3407  16.919  12.294   8.905  0.0947  0.1134  0.0902
  213loPI   C4B 3408  16.896  12.382   8.575 -0.3971 -0.1601  0.1179
  214loPI    C1 3409  14.419   3.176  10.585 -0.1112 -0.2925  0.2554
  214loPI    C2 3410  14.146   3.282  10.857 -0.2072 -0.1274  0.0969
  214loPI    C3 3411  14.524   3.412  10.891 -0.2478 -0.0044  0.0843
  214loPI   PO4 3412  14.447   2.836  10.554  0.0638 -0.0067 -0.4054
  214loPI   GL1 3413  14.326   2.612  10.192 -0.0124 -0.0288 -0.1247
  214loPI   GL2 3414  14.502   2.403   9.949 -0.2046 -0.0198  0.0738
  214loPI   C1A 3415  14.206   2.830   9.783 -0.0747  0.2759  0.0777
  214loPI   C2A 3416  14.190   2.882   9.346  0.0992 -0.1500  0.4770
  214loPI   C3A 3417  14.238   2.985   8.870  0.0286  0.0272 -0.0299
  214loPI   C4A 3418  14.274   2.946   8.444 -0.3345 -0.0671 -0.0682
  214loPI   C5A 3419  14.214   2.858   7.962 -0.1366  0.1348  0.1575
  214loPI   C6A 3420  14.257   2.982   7.519 -0.3747  0.0675  0.2662
  214loPI   C1B 3421  14.482   2.439   9.546 -0.0763  0.3282 -0.0877
  214loPI   C2B 3422  14.465   2.544   9.156  0.2907  0.0429 -0.1249
  214loPI   C3B 3423  14.573   2.444   8.680  0.1202 -0.3712 -0.2751
  214loPI   C4B 3424  14.644   2.646   8.276  0.1138  0.1779  0.1977
  215loPI    C1 3425  10.915   3.457   9.945 -0.3185  0.0328 -0.0881
  215loPI    C2 3426  10.811   3.836   9.870 -0.0894  0.1127 -0.0112
  215loPI    C3 3427  10.935   3.731  10.235 -0.2506 -0.0604 -0.0040
  215loPI   PO4 3428  11.111   3.394   9.857  0.3041 -0.1449 -0.2672
  215loPI   GL1 3429  11.282   3.154   9.465  0.2390 -0.0432 -0.3138
  215loPI   GL2 3430  11.558   3.225   9.481 -0.1313  0.0366 -0.1306
  215loPI   C1A 3431  11.297   3.226   8.960 -0.1657  0.1195  0.1810
  215loPI   C2A 3432  11.268   3.318   8.542  0.1636  0.0789  0.1055
  215loPI   C3A 3433  11.305   3.367   8.054 -0.1862  0.1182  0.0434
  215loPI   C4A 3434  11.368   3.421   7.600  0.1389 -0.3085 -0.1590
  215loPI   C5A 3435  11.203   3.419   7.197  0.0329  0.2320  0.2970
  215loPI   C6A 3436  11.051   3.214   6.979 -0.0706  0.3546  0.0888
  215loPI   C1B 3437  11.913   3.276   9.161 -0.0950 -0.4493  0.0520
  215loPI   C2B 3438  11.779   3.193   8.759  0.2181 -0.1944 -0.3737
  215loPI   C3B 3439  11.748   3.360   8.310  0.0537 -0.3295  0.0451
  215loPI   C4B 3440  11.823   3.367   7.855 -0.1809  0.2403  0.2289
  216loPI    C1 3441   1.146  15.137  10.317  0.2259 -0.2020  0.2108
  216loPI    C2 3442   0.901  15.170  10.632 -0.0333 -0.2996  0.0228
  216loPI    C3 3443   1.185  14.887  10.627  0.0797 -0.1924  0.2374
  216loPI   PO4 3444   0.977  15.082  10.121 -0.2281 -0.0391  0.1787
  216loPI   GL1 3445   0.922  14.760   9.776 -0.0815  0.2949 -0.0022
  216loPI   GL2 3446   1.260  14.810   9.673  0.2392  0.2954 -0.4226
  216loPI   C1A 3447   0.874  14.776   9.281 -0.0488  0.2176 -0.0694
  216loPI   C2A 3448   0.790  14.809   8.906 -0.0403  0.1529 -0.1219
  216loPI   C3A 3449   0.805  14.755   8.510 -0.0445 -0.1432 -0.0832
  216loPI   C4A 3450   0.754  14.823   8.056  0.1482 -0.0821 -0.1667
  216loPI   C5A 3451   0.640  14.776   7.622  0.3174  0.2076 -0.0664
  216loPI   C6A 3452   0.345  14.922   7.393  0.0336 -0.2504  0.1152
  216loPI   C1B 3453   1.359  14.854   9.198 -0.1043  0.0341 -0.2180
  216loPI   C2B 3454   1.283  14.787   8.776 -0.1064 -0.0647 -0.1532
  216loPI   C3B 3455   1.375  14.834   8.348  0.0730  0.1362 -0.3048
  216loPI   C4B 3456   1.379  14.798   7.857  0.1726  0.1235 -0.2344
  217loPI    C1 3457  13.356  12.250  10.637 -0.1291 -0.1241  0.1673
  217loPI    C2 3458  13.118  12.182  10.951 -0.2762  0.0474  0.0950
  217loPI    C3 3459  13.428  12.433  10.985 -0.2764  0.0456  0.1101
  217loPI   PO4 3460  13.374  12.018  10.426  0.3893  0.2912  0.0001
  217loPI   GL1 3461  13.647  11.958  10.075 -0.0022  0.2103  0.4091
  217loPI   GL2 3462  13.480  11.768   9.905 -0.3361 -0.2586  0.2246
  217loPI   C1A 3463  13.743  12.180   9.837  0.1179  0.2521  0.1436
  217loPI   C2A 3464  13.683  12.238   9.400 -0.1937 -0.4519 -0.2472
  217loPI   C3A 3465  13.861  12.329   9.049  0.1284  0.1731  0.0829
  217loPI   C4A 3466  13.812  12.181   8.659  0.1251 -0.2608  0.2046
  217loPI   C5A 3467  13.848  12.195   8.279 -0.0368 -0.0296 -0.1337
  217loPI   C6A 3468  14.032  12.400   7.813  0.2766  0.1526 -0.1105
  217loPI   C1B 3469  13.505  11.852   9.539  0.0980 -0.3478 -0.1371
  217loPI   C2B 3470  13.487  11.863   9.162 -0.0652 -0.0839  0.1823
  217loPI   C3B 3471  13.474  11.799   8.694 -0.0419 -0.2816  0.0152
  217loPI   C4B 3472  13.636  11.655   8.243 -0.1470  0.0243 -0.5316
  218loPI    C1 3473  13.749  18.494  10.296  0.0845 -0.0523  0.1066
  218loPI    C2 3474  13.718  18.309  10.650  0.2856  0.0037  0.1550
  218loPI    C3 3475  13.923  18.651  10.620  0.2276  0.0256 -0.0067
  218loPI   PO4 3476  13.873  18.286  10.110 -0.0199  0.1491 -0.1007
  218loPI   GL1 3477  14.082  18.320   9.792 -0.0707  0.3678  0.2068
  218loPI   GL2 3478  14.291  18.154   9.586  0.0756  0.0338  0.2983
  218loPI   C1A 3479  13.892  18.503   9.472 -0.0919  0.0360  0.0593
  218loPI   C2A 3480  13.961  18.564   9.010  0.3328  0.3513  0.0924
  218loPI   C3A 3481  14.068  18.596   8.499  0.2609  0.0193 -0.0550
  218loPI   C4A 3482  14.074  18.568   8.054  0.1696  0.5317 -0.2617
  218loPI   C5A 3483  14.009  18.786   7.769  0.1608 -0.1271 -0.1350
  218loPI   C6A 3484  13.855  19.255   7.926 -0.0459 -0.2372  0.0900
  218loPI   C1B 3485  14.251  18.221   9.201  0.1723  0.1529  0.0115
  218loPI   C2B 3486  14.281  18.202   8.808 -0.2647 -0.1822 -0.1950
  218loPI   C3B 3487  14.380  18.134   8.339 -0.1833 -0.2729 -0.1404
  218loPI   C4B 3488  14.307  17.983   8.008 -0.0677  0.0783 -0.0921
  219loPI    C1 3489   2.102   0.857  10.348  0.2045 -0.0745 -0.0665
  219loPI    C2 3490   2.382   0.572  10.332  0.0821 -0.1888 -0.2024
  219loPI    C3 3491   2.050   0.515  10.548  0.1602 -0.0554 -0.0452
  219loPI   PO4 3492   2.242   1.063  10.226 -0.1228  0.1745 -0.2297
  219loPI   GL1 3493   2.505   1.009   9.980 -0.0955  0.3750  0.3031
  219loPI   GL2 3494   2.292   0.768   9.830 -0.0256 -0.2304 -0.3035
  219loPI   C1A 3495   2.525   1.142   9.570 -0.0794 -0.0059 -0.2764
  219loPI   C2A 3496   2.555   1.169   9.143 -0.2820 -0.3426  0.2517
  219loPI   C3A 3497   2.458   1.053   8.730  0.2498  0.1378 -0.0769
  219loPI   C4A 3498   2.481   1.092   8.285 -0.2989  0.0259  0.1308
  219loPI   C5A 3499   2.482   1.061   7.795 -0.3649 -0.0434 -0.5909
  219loPI   C6A 3500   2.210   0.733   7.555  0.5030 -0.1628 -0.1644
  219loPI   C1B 3501   2.237   0.625   9.440 -0.0194 -0.3239 -0.0731
  219loPI   C2B 3502   2.172   0.665   8.909  0.1238  0.1927  0.0057
  219loPI   C3B 3503   2.279   0.613   8.414 -0.3164 -0.1577  0.1793
  219loPI   C4B 3504   2.258   0.527   8.044 -0.1383 -0.0444 -0.1583
  220loPI    C1 3505  13.112  13.428  10.287 -0.3364  0.1271  0.0220
  220loPI    C2 3506  13.031  13.578  10.649 -0.0088  0.0657  0.1241
  220loPI    C3 3507  13.122  13.191  10.609 -0.1321  0.0526 -0.0379
  220loPI   PO4 3508  13.302  13.573  10.191  0.1732  0.0399  0.0645
  220loPI   GL1 3509  13.551  13.467   9.798 -0.0516  0.4530  0.1926
  220loPI   GL2 3510  13.743  13.118   9.806 -0.1755  0.4146 -0.0123
  220loPI   C1A 3511  13.469  13.664   9.298 -0.4272  0.1470 -0.3119
  220loPI   C2A 3512  13.489  13.568   8.839  0.1179  0.3814 -0.1204
  220loPI   C3A 3513  13.439  13.591   8.460  0.1097 -0.1680  0.1655
  220loPI   C4A 3514  13.276  13.564   8.084 -0.1632  0.2334  0.1128
  220loPI   C5A 3515  12.987  13.452   7.812 -0.2213  0.1699  0.2520
  220loPI   C6A 3516  12.646  13.202   7.590 -0.1551  0.4075  0.0968
  220loPI   C1B 3517  13.674  13.155   9.441  0.0333 -0.0207  0.1981
  220loPI   C2B 3518  13.770  13.194   8.966 -0.0981  0.2793  0.2393
  220loPI   C3B 3519  13.728  13.025   8.556  0.1425  0.0280  0.0096
  220loPI   C4B 3520  13.758  13.224   8.133  0.0520  0.0836 -0.1751
  221loPI    C1 3521  17.266  10.290  10.850  0.0401 -0.3478 -0.0594
  221loPI    C2 3522  17.587  10.057  10.901  0.1961 -0.1479 -0.1155
  221loPI    C3 3523  17.563  10.298  10.582  0.0387 -0.0834 -0.0560
  221loPI   PO4 3524  17.037  10.115  10.920 -0.2145  0.1949  0.2364
  221loPI   GL1 3525  17.036   9.755  10.614  0.2504  0.0057 -0.1296
  221loPI   GL2 3526  17.292   9.898  10.541  0.0841  0.3336  0.0777
  221loPI   C1A 3527  17.136   9.546  10.268  0.0017  0.4408  0.2448
  221loPI   C2A 3528  17.136   9.734   9.801 -0.1332  0.0247  0.1378
  221loPI   C3A 3529  16.984   9.646   9.336  0.1802  0.0017 -0.1883
  221loPI   C4A 3530  16.982   9.592   8.840  0.0470  0.0570 -0.1274
  221loPI   C5A 3531  17.051   9.617   8.343 -0.0063 -0.0260 -0.2325
  221loPI   C6A 3532  16.949   9.388   7.868 -0.0731  0.0563  0.0505
  221loPI   C1B 3533  17.311  10.050  10.169  0.0377 -0.0757 -0.0291
  221loPI   C2B 3534  17.285  10.218   9.761  0.2402  0.4373 -0.3157
  221loPI   C3B 3535  17.167  10.194   9.414  0.2084 -0.0430 -0.1430
  221loPI   C4B 3536  17.200  10.027   9.087 -0.2566  0.4434 -0.2104
  222loPI    C1 3537  11.934  17.712  10.497  0.1632  0.0319  0.1257
  222loPI    C2 3538  12.059  18.061  10.345 -0.0276  0.0303 -0.0387
  222loPI    C3 3539  12.072  17.999  10.740 -0.2261  0.3206  0.0171
  222loPI   PO4 3540  12.016  17.535  10.293  0.5026 -0.1055  0.0791
  222loPI   GL1 3541  11.911  17.703   9.871 -0.2954  0.0401  0.1039
  222loPI   GL2 3542  11.772  18.037   9.892  0.1381  0.0489  0.2838
  222loPI   C1A 3543  12.000  17.607   9.391 -0.2928 -0.0679 -0.0442
  222loPI   C2A 3544  11.926  17.510   9.010 -0.0636  0.3403  0.1868
  222loPI   C3A 3545  11.974  17.657   8.497 -0.1531 -0.3705  0.2829
  222loPI   C4A 3546  11.936  17.718   8.061  0.1208 -0.3038  0.1727
  222loPI   C5A 3547  12.150  17.711   7.525  0.0228 -0.2644  0.1456
  222loPI   C6A 3548  12.370  17.828   7.171 -0.1063  0.0514 -0.0564
  222loPI   C1B 3549  11.758  18.011   9.420 -0.4539 -0.0539 -0.0238
  222loPI   C2B 3550  11.677  18.001   8.997 -0.1043  0.1077  0.0700
  222loPI   C3B 3551  11.655  18.062   8.523  0.2373  0.0080  0.1210
  222loPI   C4B 3552  11.617  18.129   8.205 -0.5021 -0.0380 -0.0437
  223loPI    C1 3553  11.170   1.879   9.994  0.2599 -0.0509  0.0441
  223loPI    C2 3554  10.849   2.095  10.097  0.1633 -0.1703 -0.0036
  223loPI    C3 3555  11.082   1.935  10.381  0.1452 -0.1359  0.0308
  223loPI   PO4 3556  11.211   2.000   9.811  0.2084  0.2104  0.2040
  223loPI   GL1 3557  11.505   1.900   9.567  0.1538  0.1570  0.1641
  223loPI   GL2 3558  11.638   2.245   9.706 -0.0761 -0.4351  0.0417
  223loPI   C1A 3559  11.522   1.826   9.200  0.2107 -0.0307  0.1961
  223loPI   C2A 3560  11.650   1.920   8.729  0.1575  0.1381 -0.0964
  223loPI   C3A 3561  11.683   2.073   8.262 -0.1047  0.2838 -0.0971
  223loPI   C4A 3562  11.635   1.934   7.822  0.1845  0.3583 -0.1331
  223loPI   C5A 3563  11.909   1.806   7.416 -0.0407  0.2433  0.4289
  223loPI   C6A 3564  11.854   1.624   7.024 -0.1412 -0.2374 -0.0962
  223loPI   C1B 3565  11.876   2.350   9.409 -0.0727 -0.0869 -0.1135
  223loPI   C2B 3566  11.808   2.378   8.972  0.0696 -0.1163 -0.0278
  223loPI   C3B 3567  11.911   2.412   8.454 -0.1599 -0.1927 -0.3319
  223loPI   C4B 3568  11.849   2.436   8.011 -0.1773  0.2161  0.3650
  224loPI    C1 3569   8.797   4.863  10.198  0.0140  0.1075  0.2058
  224loPI    C2 3570   8.967   4.601  10.448  0.1107  0.2063  0.2447
  224loPI    C3 3571   9.022   4.993  10.503  0.0579  0.2315  0.1214
  224loPI   PO4 3572   8.578   4.694  10.008 -0.2083  0.1669  0.0514
  224loPI   GL1 3573   8.587   4.508   9.721 -0.1338 -0.1095  0.2059
  224loPI   GL2 3574   8.317   4.431   9.552 -0.1071 -0.0363  0.1235
  224loPI   C1A 3575   8.746   4.562   9.341 -0.3953 -0.0396  0.1575
  224loPI   C2A 3576   8.797   4.614   8.875  0.1424  0.0675  0.1957
  224loPI   C3A 3577   8.877   4.553   8.411 -0.2241  0.0515 -0.0977
  224loPI   C4A 3578   8.923   4.580   8.081 -0.2766  0.2207  0.0804
  224loPI   C5A 3579   8.873   4.504   7.739 -0.2427  0.2014 -0.0966
  224loPI   C6A 3580   8.546   4.695   7.475 -0.3117 -0.2586  0.4129
  224loPI   C1B 3581   8.298   4.555   9.108  0.0851  0.0976  0.0800
  224loPI   C2B 3582   8.338   4.500   8.721 -0.3311  0.0125 -0.3890
  224loPI   C3B 3583   8.337   4.559   8.375 -0.1450  0.0544  0.1468
  224loPI   C4B 3584   8.341   4.448   7.980  0.1433 -0.0155  0.0250
  225loPI    C1 3585  10.141  13.918   9.684  0.2682 -0.1221 -0.2352
  225loPI    C2 3586  10.354  13.681   9.926  0.3333  0.2175  0.0491
  225loPI    C3 3587  10.318  14.070  10.009 -0.2273  0.2080 -0.1098
  225loPI   PO4 3588  10.217  13.828   9.397  0.2921 -0.2631  0.0992
  225loPI   GL1 3589  10.581  13.926   9.140  0.2801 -0.2318  0.1588
  225loPI   GL2 3590  10.253  13.944   8.912  0.1976 -0.1027 -0.1844
  225loPI   C1A 3591  10.714  13.693   8.826  0.1802 -0.0853 -0.1886
  225loPI   C2A 3592  10.804  13.409   8.414 -0.0904  0.2322 -0.1448
  225loPI   C3A 3593  10.872  13.341   8.081 -0.0332  0.2256 -0.1878
  225loPI   C4A 3594  10.888  13.131   7.596  0.0930  0.0757 -0.2087
  225loPI   C5A 3595  10.632  13.206   7.262  0.2895 -0.2735 -0.0406
  225loPI   C6A 3596  10.314  13.499   7.175  0.2781  0.0345  0.3727
  225loPI   C1B 3597   9.995  14.003   8.614  0.1885  0.2078 -0.3230
  225loPI   C2B 3598  10.045  14.087   8.149  0.0367  0.2389  0.1172
  225loPI   C3B 3599  10.247  13.979   7.793 -0.1277 -0.1038 -0.2868
  225loPI   C4B 3600  10.345  14.019   7.334 -0.0699  0.0441  0.0167
  226loPI    C1 3601   6.736  10.386  10.175  0.2161  0.0407  0.0027
  226loPI    C2 3602   6.998  10.110  10.300  0.1577  0.1218  0.3138
  226loPI    C3 3603   6.621  10.104  10.434  0.0572  0.1377  0.0389
  226loPI   PO4 3604   6.851  10.569  10.128  0.0111 -0.4569  0.3723
  226loPI   GL1 3605   7.075  10.561   9.734  0.2017  0.0246  0.1737
  226loPI   GL2 3606   7.157  10.277   9.637 -0.1136 -0.1162 -0.0217
  226loPI   C1A 3607   6.883  10.699   9.318 -0.0775  0.0060  0.0576
  226loPI   C2A 3608   6.798  10.481   9.048  0.1587 -0.1283 -0.1038
  226loPI   C3A 3609   6.865  10.438   8.564 -0.0297  0.1829  0.1544
  226loPI   C4A 3610   6.732  10.336   8.200  0.1571  0.0634  0.1786
  226loPI   C5A 3611   6.685  10.503   7.833 -0.2017  0.0045  0.2324
  226loPI   C6A 3612   6.609  10.624   7.405  0.0383  0.0833 -0.1915
  226loPI   C1B 3613   7.159  10.108   9.222  0.2341 -0.3116 -0.1934
  226loPI   C2B 3614   6.986  10.015   8.848 -0.0883  0.0773  0.0806
  226loPI   C3B 3615   7.122   9.932   8.476 -0.0397  0.2198 -0.0847
  226loPI   C4B 3616   6.898   9.888   8.179 -0.1924  0.0229 -0.0340
  227loPI    C1 3617   7.359  13.378  10.172  0.0875 -0.0261  0.1224
  227loPI    C2 3618   7.686  13.235  10.353 -0.0437 -0.1130  0.2938
  227loPI    C3 3619   7.428  13.463  10.557  0.0465  0.1829  0.0849
  227loPI   PO4 3620   7.484  13.382   9.904  0.1132 -0.0464 -0.1819
  227loPI   GL1 3621   7.304  13.336   9.494 -0.0330 -0.0325 -0.0594
  227loPI   GL2 3622   7.382  13.603   9.486  0.4050  0.3003  0.0747
  227loPI   C1A 3623   7.410  12.995   9.180  0.0608 -0.1129  0.1711
  227loPI   C2A 3624   7.432  12.969   8.711 -0.0734  0.1308 -0.0766
  227loPI   C3A 3625   7.268  12.895   8.272  0.0848  0.1185  0.2506
  227loPI   C4A 3626   7.257  12.557   7.889 -0.0845 -0.0101 -0.1475
  227loPI   C5A 3627   7.186  12.560   7.473  0.1924 -0.1611  0.0229
  227loPI   C6A 3628   7.074  12.264   7.172 -0.0342  0.2147  0.0901
  227loPI   C1B 3629   7.177  13.544   9.061  0.2340 -0.1259  0.0612
  227loPI   C2B 3630   6.999  13.672   8.692 -0.0045  0.1821  0.0069
  227loPI   C3B 3631   6.847  13.694   8.233  0.0619  0.1555 -0.1948
  227loPI   C4B 3632   6.798  13.679   7.899 -0.0102  0.0254  0.0251
  228loPI    C1 3633  11.514   8.239  10.155  0.0264 -0.1710  0.1887
  228loPI    C2 3634  11.435   7.853  10.222  0.2105 -0.2290  0.0783
  228loPI    C3 3635  11.624   8.069  10.500 -0.1634 -0.1368  0.2674
  228loPI   PO4 3636  11.567   8.282   9.959 -0.0386  0.0741  0.0160
  228loPI   GL1 3637  11.871   8.251   9.625 -0.1491 -0.0501  0.4288
  228loPI   GL2 3638  11.888   7.997   9.524 -0.1115  0.2675  0.0062
  228loPI   C1A 3639  11.769   8.444   9.254  0.2855 -0.0298 -0.4811
  228loPI   C2A 3640  11.795   8.454   8.747  0.0581  0.1906 -0.3010
  228loPI   C3A 3641  11.836   8.421   8.365 -0.0004 -0.0878 -0.3340
  228loPI   C4A 3642  11.834   8.534   7.953 -0.1636 -0.0307 -0.1340
  228loPI   C5A 3643  11.943   8.612   7.515  0.3792 -0.2168  0.1268
  228loPI   C6A 3644  12.157   8.893   7.304 -0.2497  0.4134 -0.0769
  228loPI   C1B 3645  12.119   7.925   9.145  0.0364  0.1400 -0.1438
  228loPI   C2B 3646  12.102   7.970   8.625 -0.1236 -0.5065  0.1258
  228loPI   C3B 3647  12.101   8.024   8.206 -0.0188  0.1313  0.0005
  228loPI   C4B 3648  12.136   8.077   7.816  0.2989  0.0832  0.1496
  229loPI    C1 3649  11.779   2.803  10.179 -0.0772  0.1806 -0.0985
  229loPI    C2 3650  11.421   2.751  10.350 -0.0112  0.0244 -0.0063
  229loPI    C3 3651  11.711   2.941  10.548  0.0819 -0.2038  0.0798
  229loPI   PO4 3652  11.717   2.596   9.994 -0.1605  0.0093  0.0188
  229loPI   GL1 3653  11.635   2.756   9.609  0.2310  0.2040  0.0577
  229loPI   GL2 3654  11.969   2.969   9.728 -0.2500  0.1314 -0.1527
  229loPI   C1A 3655  11.593   2.883   9.181  0.2136 -0.0480  0.0843
  229loPI   C2A 3656  11.489   2.729   8.763 -0.0173 -0.1471  0.1924
  229loPI   C3A 3657  11.586   2.817   8.362  0.0369  0.1204  0.0953
  229loPI   C4A 3658  11.601   2.949   7.892  0.1031 -0.1904 -0.0870
  229loPI   C5A 3659  11.732   2.907   7.550  0.2521  0.2614  0.0046
  229loPI   C6A 3660  12.248   2.879   7.556  0.1254  0.1619 -0.1370
  229loPI   C1B 3661  12.102   2.758   9.332  0.1035  0.2383 -0.3775
  229loPI   C2B 3662  12.116   2.828   8.908 -0.0877  0.0886  0.2226
  229loPI   C3B 3663  12.138   2.859   8.489  0.0627 -0.0016  0.4180
  229loPI   C4B 3664  12.060   2.862   8.137 -0.1562  0.1699  0.1449
  230loPI    C1 3665  17.156   0.890  10.878 -0.1589 -0.2205 -0.0514
  230loPI    C2 3666  17.341   0.538  10.914  0.0053 -0.1341 -0.0394
  230loPI    C3 3667  17.392   0.820  11.193 -0.0406 -0.0620 -0.1035
  230loPI   PO4 3668  17.105   0.930  10.609  0.0072 -0.0782  0.0453
  230loPI   GL1 3669  17.087   0.814  10.154 -0.0103 -0.0064  0.0394
  230loPI   GL2 3670  17.027   1.150  10.146 -0.1886 -0.0975  0.2692
  230loPI   C1A 3671  17.277   0.847   9.689 -0.0979 -0.0270  0.0478
  230loPI   C2A 3672  17.160   0.812   9.283  0.2052 -0.2524  0.1414
  230loPI   C3A 3673  17.229   0.815   8.818  0.1027 -0.2262  0.0533
  230loPI   C4A 3674  17.169   0.842   8.412 -0.0207 -0.1088  0.2811
  230loPI   C5A 3675  16.829   1.026   8.073  0.2174 -0.1954 -0.0053
  230loPI   C6A 3676  16.487   0.942   7.704  0.1359  0.2138 -0.0858
  230loPI   C1B 3677  16.862   1.234   9.664 -0.2540  0.0956  0.0554
  230loPI   C2B 3678  16.830   1.358   9.240  0.0440 -0.2128 -0.1565
  230loPI   C3B 3679  16.927   1.267   8.791  0.1126 -0.0832  0.3741
  230loPI   C4B 3680  16.977   1.334   8.424 -0.0884  0.3683  0.0330
  231loPI    C1 3681  12.813   0.513  10.222  0.1849  0.0314 -0.0802
  231loPI    C2 3682  12.804   0.906  10.148  0.1662  0.0041 -0.2264
  231loPI    C3 3683  12.926   0.772  10.505  0.1545  0.1430 -0.1696
  231loPI   PO4 3684  12.543   0.431  10.224  0.2177 -0.0864 -0.2128
  231loPI   GL1 3685  12.300   0.988  10.062  0.0315  0.0173 -0.1656
  231loPI   GL2 3686  12.338   0.752   9.886  0.0703  0.1852  0.1587
  231loPI   C1A 3687  12.627   1.060   9.624  0.0023  0.2456  0.1279
  231loPI   C2A 3688  12.672   0.944   9.216 -0.0195  0.2935  0.0909
  231loPI   C3A 3689  12.783   1.057   8.741  0.2946 -0.1049  0.0031
  231loPI   C4A 3690  12.718   1.062   8.380 -0.1260  0.2958  0.1537
  231loPI   C5A 3691  12.697   1.107   7.859  0.3517  0.2522  0.4575
  231loPI   C6A 3692  12.907   1.327   7.499 -0.1669 -0.3590 -0.0633
  231loPI   C1B 3693  12.327   0.563   9.474 -0.1300  0.0136 -0.0337
  231loPI   C2B 3694  12.328   0.572   9.102 -0.0015 -0.1745 -0.1491
  231loPI   C3B 3695  12.449   0.622   8.669  0.1555  0.1312 -0.3296
  231loPI   C4B 3696  12.459   0.492   8.257 -0.1951 -0.1011  0.2376
  232loPI    C1 3697   7.226  15.403   9.973 -0.2888  0.2464  0.1312
  232loPI    C2 3698   7.311  15.116  10.238  0.0050  0.2720  0.0682
  232loPI    C3 3699   6.989  15.348  10.291 -0.0874  0.1039  0.2586
  232loPI   PO4 3700   7.355  15.274   9.740  0.1952  0.1400 -0.1409
  232loPI   GL1 3701   7.330  15.283   9.360 -0.6417 -0.2960  0.0257
  232loPI   GL2 3702   7.558  15.126   9.295 -0.1215  0.2637 -0.0963
  232loPI   C1A 3703   7.147  15.351   8.915  0.2960 -0.1147  0.0045
  232loPI   C2A 3704   7.013  15.362   8.440  0.2160 -0.1761  0.0752
  232loPI   C3A 3705   7.018  15.549   7.981 -0.0576 -0.0832 -0.3684
  232loPI   C4A 3706   6.996  15.657   7.549 -0.0326  0.0254  0.0199
  232loPI   C5A 3707   6.757  15.760   7.304 -0.2169  0.2047 -0.1743
  232loPI   C6A 3708   6.297  15.712   7.336 -0.0500  0.0911  0.0022
  232loPI   C1B 3709   7.575  15.183   8.957  0.2403  0.0217 -0.3775
  232loPI   C2B 3710   7.668  15.262   8.627  0.2910 -0.4240 -0.1047
  232loPI   C3B 3711   7.541  15.463   8.306  0.1603  0.0987 -0.1944
  232loPI   C4B 3712   7.496  15.539   7.888  0.0583 -0.1384  0.1105
  233loPI    C1 3713   7.751  10.080   9.863  0.0524  0.1498 -0.0055
  233loPI    C2 3714   7.909  10.285  10.168  0.1871  0.0021  0.0256
  233loPI    C3 3715   8.075   9.940  10.052 -0.1290 -0.1712  0.0757
  233loPI   PO4 3716   7.730  10.252   9.717 -0.3502  0.2353  0.1658
  233loPI   GL1 3717   7.705  10.281   9.291  0.1793  0.2771 -0.0560
  233loPI   GL2 3718   8.016  10.426   9.329  0.0116  0.4056 -0.0453
  233loPI   C1A 3719   7.644  10.153   8.886 -0.1463  0.3056  0.1601
  233loPI   C2A 3720   7.617  10.005   8.466  0.0106 -0.0186 -0.0074
  233loPI   C3A 3721   7.377   9.881   8.052 -0.3576  0.2539 -0.0347
  233loPI   C4A 3722   7.088   9.767   7.681 -0.0205  0.2174  0.3400
  233loPI   C5A 3723   7.157  10.146   7.324  0.4847 -0.0413  0.1413
  233loPI   C6A 3724   7.026  10.507   7.178  0.1047  0.2161 -0.1306
  233loPI   C1B 3725   8.014  10.556   8.838  0.1306  0.1263  0.0759
  233loPI   C2B 3726   7.898  10.388   8.429  0.1232  0.0701  0.0192
  233loPI   C3B 3727   8.090  10.424   8.006 -0.1144  0.0358  0.0069
  233loPI   C4B 3728   8.011  10.526   7.557 -0.2523  0.0793  0.0271
  234loPI    C1 3729  12.371  18.758  10.358 -0.3005 -0.0587 -0.0416
  234loPI    C2 3730  12.084  18.530  10.519 -0.2427  0.0032  0.1520
  234loPI    C3 3731  12.376  18.676  10.750  0.0254 -0.1753 -0.0677
  234loPI   PO4 3732  12.311  18.853  10.108 -0.0157 -0.1469 -0.2778
  234loPI   GL1 3733  12.088  19.197   9.827 -0.0285 -0.2755 -0.2195
  234loPI   GL2 3734  11.842  19.350   9.804  0.3230 -0.0097 -0.1451
  234loPI   C1A 3735  12.074  18.972   9.504 -0.0005  0.1843  0.1531
  234loPI   C2A 3736  12.066  18.948   9.013  0.1211 -0.0702  0.0123
  234loPI   C3A 3737  12.097  19.091   8.552 -0.1819  0.0487  0.0322
  234loPI   C4A 3738  12.231  18.955   8.173 -0.1795  0.0100 -0.0496
  234loPI   C5A 3739  12.386  18.731   7.737 -0.0753  0.1138 -0.0168
  234loPI   C6A 3740  12.423  18.555   7.310  0.2758  0.1009 -0.0393
  234loPI   C1B 3741  11.813  19.341   9.310 -0.0088 -0.2795 -0.0757
  234loPI   C2B 3742  11.848  19.356   8.907 -0.2956 -0.0214 -0.0010
  234loPI   C3B 3743  11.902  19.549   8.443  0.1515 -0.3593  0.0728
  234loPI   C4B 3744  11.948  19.358   8.054  0.2356 -0.1512  0.0160
  235loPI    C1 3745   8.397  12.930   9.879  0.1429 -0.2371  0.1235
  235loPI    C2 3746   8.322  13.284  10.049  0.1897 -0.0037 -0.3261
  235loPI    C3 3747   8.569  13.025  10.227  0.0859  0.1492  0.0513
  235loPI   PO4 3748   8.446  13.084   9.590 -0.0349 -0.1603  0.0401
  235loPI   GL1 3749   8.375  13.160   9.189  0.1960 -0.0844  0.1693
  235loPI   GL2 3750   8.734  13.249   9.168  0.1459 -0.0431 -0.1126
  235loPI   C1A 3751   8.021  13.142   8.875 -0.1724 -0.1089 -0.0649
  235loPI   C2A 3752   7.753  13.124   8.375  0.2222  0.2029 -0.2493
  235loPI   C3A 3753   7.565  13.177   7.976  0.1309  0.2116  0.0338
  235loPI   C4A 3754   7.721  13.374   7.596 -0.1367 -0.4597 -0.0638
  235loPI   C5A 3755   7.983  13.643   7.318  0.2428  0.1310 -0.1224
  235loPI   C6A 3756   8.396  13.621   7.182  0.0296  0.1187 -0.0385
  235loPI   C1B 3757   8.592  13.229   8.724  0.2166  0.3465  0.1886
  235loPI   C2B 3758   8.232  13.245   8.393 -0.0670  0.1711 -0.2080
  235loPI   C3B 3759   8.171  13.422   8.018 -0.1311  0.2259 -0.0399
  235loPI   C4B 3760   8.350  13.547   7.642  0.1903 -0.2356 -0.1026
  236loPI    C1 3761   5.120   3.550  10.863 -0.0992  0.1490 -0.1389
  236loPI    C2 3762   5.316   3.274  10.651 -0.2421 -0.2013  0.1748
  236loPI    C3 3763   5.502   3.469  10.947 -0.0263  0.3269 -0.2915
  236loPI   PO4 3764   4.964   3.607  10.634 -0.1338 -0.2752 -0.0444
  236loPI   GL1 3765   5.130   3.532  10.272 -0.2865 -0.0340  0.1249
  236loPI   GL2 3766   5.264   3.312  10.175  0.1643  0.2913 -0.0582
  236loPI   C1A 3767   4.962   3.742   9.876  0.0893  0.2062  0.0516
  236loPI   C2A 3768   5.010   3.983   9.442  0.2034 -0.1755  0.0109
  236loPI   C3A 3769   4.999   3.910   8.952  0.1285 -0.0536  0.3734
  236loPI   C4A 3770   4.908   3.954   8.583 -0.0567 -0.1360  0.2935
  236loPI   C5A 3771   4.989   3.980   8.195  0.2159 -0.2294  0.1808
  236loPI   C6A 3772   4.825   3.770   7.747 -0.0239 -0.0742  0.2312
  236loPI   C1B 3773   5.344   3.462   9.747  0.3605  0.0445  0.1309
  236loPI   C2B 3774   5.326   3.455   9.296  0.1625 -0.2040  0.1025
  236loPI   C3B 3775   5.312   3.504   8.851  0.1009  0.1127 -0.1330
  236loPI   C4B 3776   5.270   3.605   8.495 -0.1152  0.0687 -0.4154
  237loPI    C1 3777   9.699  12.478   9.649  0.0330  0.0601  0.0530
  237loPI    C2 3778   9.850  12.115   9.572 -0.0209  0.0838 -0.1718
  237loPI    C3 3779   9.922  12.291   9.924  0.1864 -0.0519 -0.1444
  237loPI   PO4 3780   9.770  12.560   9.358 -0.0544  0.2168  0.1703
  237loPI   GL1 3781   9.660  12.252   9.052 -0.0322 -0.2164 -0.2826
  237loPI   GL2 3782   9.929  12.010   9.104 -0.0530 -0.2325  0.0158
  237loPI   C1A 3783   9.670  12.330   8.677  0.2452  0.1230 -0.0689
  237loPI   C2A 3784   9.470  12.250   8.285  0.1572 -0.1995 -0.1946
  237loPI   C3A 3785   9.272  12.296   7.885 -0.3348 -0.0042  0.0203
  237loPI   C4A 3786   9.090  12.349   7.508 -0.2531  0.0460 -0.4362
  237loPI   C5A 3787   8.942  12.723   7.313 -0.2498 -0.3899 -0.3528
  237loPI   C6A 3788   8.614  12.861   7.038  0.0123  0.2794 -0.4842
  237loPI   C1B 3789   9.901  11.840   8.779  0.0692 -0.1941  0.3003
  237loPI   C2B 3790   9.885  12.045   8.347 -0.3357  0.2930 -0.1442
  237loPI   C3B 3791   9.779  12.075   7.927  0.0137  0.0937  0.0992
  237loPI   C4B 3792   9.659  12.183   7.461  0.0297 -0.0850 -0.0883
  238loPI    C1 3793   5.926   7.492  10.257 -0.0110  0.0035  0.0950
  238loPI    C2 3794   6.198   7.504   9.963 -0.1049  0.0314  0.0086
  238loPI    C3 3795   6.303   7.599  10.337  0.0038  0.0434 -0.0247
  238loPI   PO4 3796   5.764   7.318  10.111 -0.1051 -0.0579 -0.0647
  238loPI   GL1 3797   5.771   7.258   9.720 -0.0320  0.0907 -0.2584
  238loPI   GL2 3798   5.719   6.996   9.696 -0.2172  0.1824 -0.2576
  238loPI   C1A 3799   5.598   7.237   9.328  0.2485  0.2137  0.1664
  238loPI   C2A 3800   5.659   7.221   8.838  0.2001 -0.0804 -0.1136
  238loPI   C3A 3801   5.499   7.304   8.478  0.3522 -0.0474 -0.0925
  238loPI   C4A 3802   5.491   7.156   8.049  0.3875  0.3695  0.0608
  238loPI   C5A 3803   5.705   6.890   7.824  0.0131  0.1294 -0.0146
  238loPI   C6A 3804   6.125   6.868   7.661  0.0752  0.1534 -0.3624
  238loPI   C1B 3805   5.881   6.821   9.345  0.0197  0.3126  0.0904
  238loPI   C2B 3806   5.878   6.744   9.012  0.1196 -0.0334  0.2164
  238loPI   C3B 3807   6.006   6.742   8.558  0.1619 -0.0133  0.0149
  238loPI   C4B 3808   6.069   6.730   8.142 -0.0008  0.2072 -0.1821
  239loPI    C1 3809   4.313   8.427  10.232 -0.1356  0.1755 -0.1226
  239loPI    C2 3810   4.218   8.787  10.378 -0.0104  0.1697 -0.0246
  239loPI    C3 3811   4.538   8.593  10.518 -0.1259 -0.0178 -0.0160
  239loPI   PO4 3812   4.324   8.460  10.022 -0.0342  0.1272 -0.1489
  239loPI   GL1 3813   4.382   8.865   9.756 -0.0941 -0.3885 -0.3108
  239loPI   GL2 3814   4.538   8.907   9.617 -0.3901  0.0963  0.0965
  239loPI   C1A 3815   4.003   8.959   9.443  0.0948 -0.1459  0.2323
  239loPI   C2A 3816   3.973   9.023   9.062  0.1405  0.1943  0.3740
  239loPI   C3A 3817   3.901   8.926   8.718 -0.0906 -0.3684  0.2358
  239loPI   C4A 3818   3.759   8.965   8.335 -0.1132 -0.1722  0.5018
  239loPI   C5A 3819   3.644   8.962   7.926 -0.0702  0.0590  0.2838
  239loPI   C6A 3820   3.615   9.192   7.461 -0.2554 -0.1657 -0.2275
  239loPI   C1B 3821   4.428   8.924   9.218 -0.0209 -0.1341 -0.0961
  239loPI   C2B 3822   4.436   9.043   8.871  0.3327  0.2630  0.2857
  239loPI   C3B 3823   4.309   8.931   8.411  0.1509  0.2953 -0.3248
  239loPI   C4B 3824   4.168   8.935   7.954 -0.0102  0.0251  0.0217
  240loPI    C1 3825   5.242  16.140  10.204 -0.0772 -0.0238  0.2212
  240loPI    C2 3826   5.391  15.780  10.296  0.1162  0.0520  0.2078
  240loPI    C3 3827   5.382  16.070  10.572  0.0944  0.0806  0.1770
  240loPI   PO4 3828   5.170  16.015   9.879  0.0407 -0.2562 -0.1832
  240loPI   GL1 3829   5.222  16.122   9.545 -0.1643  0.2432 -0.0230
  240loPI   GL2 3830   4.970  16.183   9.427  0.2682  0.1799 -0.0580
  240loPI   C1A 3831   5.335  15.961   9.181 -0.1041 -0.0451 -0.0561
  240loPI   C2A 3832   5.071  15.884   8.887  0.1115  0.0109 -0.1944
  240loPI   C3A 3833   5.093  15.853   8.424 -0.1384 -0.4040 -0.0306
  240loPI   C4A 3834   4.964  15.876   8.100 -0.1289 -0.2512  0.1209
  240loPI   C5A 3835   4.957  15.891   7.637 -0.1011 -0.0225  0.0203
  240loPI   C6A 3836   4.877  15.890   7.194 -0.2327 -0.0179 -0.1512
  240loPI   C1B 3837   4.688  16.476   9.071  0.0293 -0.0190 -0.1521
  240loPI   C2B 3838   4.682  16.335   8.634  0.1614 -0.1554 -0.3829
  240loPI   C3B 3839   4.815  16.277   8.245  0.3130  0.0101 -0.0191
  240loPI   C4B 3840   4.744  16.319   7.772 -0.1463  0.1273  0.0368
  241loPI    C1 3841  16.251   3.590  10.784 -0.0312  0.0795  0.1670
  241loPI    C2 3842  15.891   3.580  10.958 -0.0853  0.1752  0.0616
  241loPI    C3 3843  16.215   3.674  11.173 -0.1059 -0.0263  0.1833
  241loPI   PO4 3844  16.276   3.340  10.693 -0.0058 -0.0305  0.0538
  241loPI   GL1 3845  16.262   3.254  10.279 -0.1456  0.0800 -0.1064
  241loPI   GL2 3846  16.058   3.555  10.295  0.1432 -0.3096 -0.2017
  241loPI   C1A 3847  16.339   3.101   9.939 -0.0105  0.1674 -0.0781
  241loPI   C2A 3848  16.222   3.124   9.571  0.0962 -0.3279 -0.3859
  241loPI   C3A 3849  16.311   3.052   9.186  0.0012  0.2649  0.1801
  241loPI   C4A 3850  16.308   3.236   8.794  0.1010 -0.0178 -0.0630
  241loPI   C5A 3851  16.404   3.116   8.401 -0.0936  0.2320 -0.0135
  241loPI   C6A 3852  16.451   3.231   7.945  0.3223  0.0978 -0.1351
  241loPI   C1B 3853  16.097   3.518   9.837  0.0548 -0.0012 -0.0944
  241loPI   C2B 3854  15.993   3.563   9.381  0.0228 -0.1235 -0.1311
  241loPI   C3B 3855  16.096   3.696   8.973  0.0595  0.0415 -0.1252
  241loPI   C4B 3856  16.091   3.531   8.508 -0.1968  0.0000 -0.1872
  242loPI    C1 3857   4.217  18.385  10.197  0.0794 -0.2959 -0.1061
  242loPI    C2 3858   4.487  18.179  10.408  0.1407 -0.0210  0.0907
  242loPI    C3 3859   4.115  18.219  10.547  0.1427  0.0426  0.0777
  242loPI   PO4 3860   4.250  18.308   9.944 -0.0386 -0.0893 -0.0864
  242loPI   GL1 3861   4.081  18.218   9.449 -0.0946  0.1205  0.0052
  242loPI   GL2 3862   3.996  18.494   9.576  0.2173  0.1016 -0.1998
  242loPI   C1A 3863   4.112  18.194   8.919  0.0036 -0.1330 -0.3526
  242loPI   C2A 3864   4.228  18.099   8.485  0.0330 -0.3955  0.1895
  242loPI   C3A 3865   4.058  18.198   8.061 -0.0359  0.0214 -0.4206
  242loPI   C4A 3866   3.981  18.159   7.710  0.1269 -0.1349 -0.1983
  242loPI   C5A 3867   3.904  18.335   7.292  0.2314  0.0163  0.1055
  242loPI   C6A 3868   4.071  18.595   7.040 -0.2892  0.1735  0.1228
  242loPI   C1B 3869   4.267  18.610   9.209  0.2140 -0.3833 -0.2677
  242loPI   C2B 3870   4.394  18.616   8.783  0.0421  0.0860  0.0487
  242loPI   C3B 3871   4.394  18.640   8.369 -0.3452 -0.2169  0.0405
  242loPI   C4B 3872   4.411  18.674   7.919  0.0061 -0.2290  0.0996
  243loPI    C1 3873   0.336   3.470  10.417 -0.1289 -0.0544  0.0686
  243loPI    C2 3874   0.386   3.354  10.796 -0.0525 -0.0065  0.0735
  243loPI    C3 3875   0.410   3.742  10.701  0.2455 -0.0477 -0.0297
  243loPI   PO4 3876   0.500   3.298  10.267 -0.1688  0.1517 -0.0916
  243loPI   GL1 3877   0.746   3.606   9.962 -0.2791  0.0979  0.2105
  243loPI   GL2 3878   0.841   3.469   9.956 -0.0931 -0.2928  0.0386
  243loPI   C1A 3879   0.859   3.796   9.546  0.1613  0.2043  0.0506
  243loPI   C2A 3880   0.820   3.845   9.084 -0.2335  0.0729 -0.0545
  243loPI   C3A 3881   0.836   3.712   8.681  0.1551  0.2623 -0.1347
  243loPI   C4A 3882   0.975   3.739   8.293  0.0102  0.3015  0.0714
  243loPI   C5A 3883   0.928   3.756   7.821 -0.0740  0.0734 -0.0281
  243loPI   C6A 3884   0.912   3.974   7.600 -0.1717 -0.0393 -0.0579
  243loPI   C1B 3885   1.143   3.378   9.667  0.2323 -0.0675  0.1353
  243loPI   C2B 3886   1.038   3.264   9.378 -0.1314 -0.0261  0.0020
  243loPI   C3B 3887   1.077   3.322   8.973 -0.0310  0.3689  0.1317
  243loPI   C4B 3888   1.145   3.244   8.578  0.2511  0.2077  0.0004
  244loPI    C1 3889  15.064  17.582  10.079  0.2490 -0.1529 -0.0485
  244loPI    C2 3890  15.209  17.578  10.452  0.0684 -0.2189  0.0222
  244loPI    C3 3891  14.902  17.341  10.355 -0.1379  0.0790 -0.0661
  244loPI   PO4 3892  15.284  17.601   9.940 -0.1892 -0.1982 -0.0160
  244loPI   GL1 3893  15.422  17.789   9.635  0.0447  0.0063 -0.0935
  244loPI   GL2 3894  15.507  17.691   9.310 -0.2239 -0.0647  0.2504
  244loPI   C1A 3895  15.238  18.162   9.387 -0.0336  0.1515 -0.0704
  244loPI   C2A 3896  15.386  18.209   9.031 -0.1858  0.0926 -0.3372
  244loPI   C3A 3897  15.385  18.193   8.620 -0.1710 -0.1618 -0.1737
  244loPI   C4A 3898  15.365  18.021   8.186 -0.0870 -0.0946 -0.1475
  244loPI   C5A 3899  15.343  18.215   7.683  0.0160 -0.2392 -0.0600
  244loPI   C6A 3900  15.568  18.538   7.441  0.0580  0.0102 -0.0371
  244loPI   C1B 3901  15.634  17.567   8.852  0.0558  0.0057  0.0292
  244loPI   C2B 3902  15.637  17.635   8.386  0.2470  0.2871 -0.3443
  244loPI   C3B 3903  15.695  17.661   7.965  0.1580 -0.1766  0.0812
  244loPI   C4B 3904  15.769  17.482   7.543  0.1437 -0.1425  0.1951
  245loPI    C1 3905   6.967  17.301   9.527 -0.2767 -0.0817 -0.2674
  245loPI    C2 3906   6.952  17.250   9.923  0.1064 -0.1066 -0.2523
  245loPI    C3 3907   6.834  17.596   9.761 -0.4431 -0.2410 -0.1589
  245loPI   PO4 3908   6.889  16.980   9.442 -0.1633 -0.1584 -0.0293
  245loPI   GL1 3909   6.509  16.852   9.086 -0.0173  0.2668 -0.0672
  245loPI   GL2 3910   6.573  17.213   9.083  0.1894 -0.1366 -0.0919
  245loPI   C1A 3911   6.429  16.804   8.716  0.2329 -0.3387  0.1130
  245loPI   C2A 3912   6.435  16.809   8.300 -0.0459 -0.2657  0.0683
  245loPI   C3A 3913   6.535  16.855   7.863  0.2614  0.0235 -0.1031
  245loPI   C4A 3914   6.385  17.061   7.545 -0.0179 -0.2689  0.1035
  245loPI   C5A 3915   5.973  17.151   7.367  0.1063 -0.0633  0.2542
  245loPI   C6A 3916   5.740  17.396   7.054  0.2765 -0.0152  0.1075
  245loPI   C1B 3917   6.320  17.266   8.834 -0.0412 -0.2466 -0.1249
  245loPI   C2B 3918   6.175  17.230   8.451 -0.0089  0.1131  0.3859
  245loPI   C3B 3919   6.201  17.167   8.005  0.1345  0.0289 -0.2349
  245loPI   C4B 3920   6.138  17.515   7.700 -0.0844  0.2745  0.0897
  246loPI    C1 3921  14.736  16.496  10.379  0.0930  0.2996  0.0878
  246loPI    C2 3922  14.340  16.536  10.339  0.0347 -0.1764  0.1372
  246loPI    C3 3923  14.530  16.722  10.637 -0.1564  0.0218  0.1381
  246loPI   PO4 3924  14.818  16.486  10.133  0.0308  0.2380 -0.1725
  246loPI   GL1 3925  14.640  16.698   9.774 -0.1786 -0.0327 -0.2588
  246loPI   GL2 3926  14.990  16.758   9.639  0.0961 -0.3013 -0.0844
  246loPI   C1A 3927  14.579  16.844   9.388 -0.0716  0.1058 -0.2429
  246loPI   C2A 3928  14.422  16.764   8.995  0.3209  0.1253  0.0745
  246loPI   C3A 3929  14.569  16.824   8.533  0.0392  0.1974 -0.0607
  246loPI   C4A 3930  14.459  16.797   8.121 -0.2216  0.0534 -0.1096
  246loPI   C5A 3931  14.599  16.797   7.684 -0.0278 -0.0183 -0.0837
  246loPI   C6A 3932  15.004  16.793   7.432 -0.0228  0.0410 -0.1892
  246loPI   C1B 3933  15.043  16.770   9.206  0.0189  0.0292  0.0359
  246loPI   C2B 3934  15.048  16.884   8.846  0.2324  0.0151 -0.1059
  246loPI   C3B 3935  15.160  16.823   8.436  0.1412 -0.1446  0.1034
  246loPI   C4B 3936  14.955  16.798   8.068  0.1811  0.3088  0.0397
  247loPI    C1 3937  12.455  17.605  10.771  0.1977 -0.1666  0.1358
  247loPI    C2 3938  12.232  17.293  10.655  0.3097 -0.1409 -0.1573
  247loPI    C3 3939  12.618  17.241  10.747  0.2640 -0.1314  0.0460
  247loPI   PO4 3940  12.471  17.731  10.586  0.3076 -0.1458 -0.0120
  247loPI   GL1 3941  12.430  17.769  10.131  0.1566  0.1802 -0.2565
  247loPI   GL2 3942  12.608  18.102   9.945  0.0760 -0.3518 -0.0359
  247loPI   C1A 3943  12.445  17.658   9.748  0.1174 -0.2825 -0.0435
  247loPI   C2A 3944  12.454  17.602   9.249  0.3014 -0.0775 -0.0666
  247loPI   C3A 3945  12.435  17.632   8.760  0.0826 -0.3336  0.0320
  247loPI   C4A 3946  12.515  17.731   8.308 -0.1420 -0.1166 -0.0841
  247loPI   C5A 3947  12.476  17.808   7.942 -0.0525  0.2256 -0.0630
  247loPI   C6A 3948  12.325  18.173   7.755 -0.1691 -0.0767  0.3350
  247loPI   C1B 3949  12.732  18.108   9.508 -0.1305  0.1964 -0.0834
  247loPI   C2B 3950  12.711  18.047   9.061 -0.0058  0.0631  0.2267
  247loPI   C3B 3951  12.662  18.123   8.649  0.1266  0.1347 -0.0650
  247loPI   C4B 3952  12.731  18.142   8.237 -0.4277 -0.0453  0.1498
  248loPI    C1 3953   2.684   4.173  10.611 -0.4440 -0.1804  0.1418
  248loPI    C2 3954   2.626   4.495  10.840  0.0142 -0.0391  0.0687
  248loPI    C3 3955   2.812   4.175  10.990  0.0779 -0.0474 -0.0271
  248loPI   PO4 3956   2.713   4.338  10.368  0.1666  0.0674 -0.1164
  248loPI   GL1 3957   2.876   4.319  10.018  0.2472 -0.3578 -0.1242
  248loPI   GL2 3958   3.070   4.625   9.988  0.0346  0.0754  0.0311
  248loPI   C1A 3959   2.763   4.325   9.513  0.0125 -0.2262  0.1059
  248loPI   C2A 3960   2.610   4.437   9.119  0.3200  0.1236 -0.2521
  248loPI   C3A 3961   2.609   4.253   8.747  0.0624 -0.1174  0.2871
  248loPI   C4A 3962   2.636   4.295   8.300 -0.0400  0.0540  0.3871
  248loPI   C5A 3963   2.820   4.382   7.807  0.1689 -0.0352 -0.0891
  248loPI   C6A 3964   2.888   4.852   7.619 -0.2146 -0.0978 -0.3158
  248loPI   C1B 3965   3.274   4.511   9.605 -0.2965  0.0660  0.0601
  248loPI   C2B 3966   3.148   4.371   9.172  0.0833  0.0627  0.1159
  248loPI   C3B 3967   3.087   4.359   8.727 -0.2883  0.1076  0.0478
  248loPI   C4B 3968   3.123   4.259   8.377  0.1032  0.0950 -0.1296
  249loPI    C1 3969   3.575  16.997  10.242 -0.1303  0.2810 -0.0780
  249loPI    C2 3970   3.969  16.991  10.176 -0.1153  0.2307  0.0138
  249loPI    C3 3971   3.830  17.020  10.550 -0.1987  0.3625 -0.0266
  249loPI   PO4 3972   3.505  17.085   9.915 -0.1969  0.0765 -0.2671
  249loPI   GL1 3973   3.656  17.278   9.420  0.0050 -0.0232  0.0111
  249loPI   GL2 3974   3.755  17.468   9.550 -0.0951 -0.1481  0.2215
  249loPI   C1A 3975   3.647  17.143   8.916 -0.1473 -0.0382  0.3657
  249loPI   C2A 3976   3.617  17.237   8.521  0.0059  0.2393 -0.0412
  249loPI   C3A 3977   3.585  17.137   8.117  0.1524  0.2044 -0.0854
  249loPI   C4A 3978   3.585  17.154   7.680 -0.1747 -0.3145  0.1719
  249loPI   C5A 3979   3.684  17.142   7.236 -0.4963 -0.2199 -0.1461
  249loPI   C6A 3980   4.145  17.267   7.049 -0.0649  0.2465  0.1409
  249loPI   C1B 3981   3.868  17.790   9.221 -0.2819 -0.0069 -0.2632
  249loPI   C2B 3982   3.917  17.708   8.717  0.1836  0.0009 -0.0187
  249loPI   C3B 3983   3.886  17.597   8.285 -0.0356 -0.0354  0.1855
  249loPI   C4B 3984   3.772  17.691   7.780 -0.0179 -0.2794  0.3133
  250loPI    C1 3985   8.247   7.795  10.199  0.1707  0.2003  0.2121
  250loPI    C2 3986   8.187   7.894  10.581 -0.1622 -0.0581  0.2317
  250loPI    C3 3987   8.105   7.524  10.456  0.1789 -0.0473 -0.0394
  250loPI   PO4 3988   8.463   7.813  10.153  0.2364 -0.0842 -0.0475
  250loPI   GL1 3989   8.566   7.635   9.811  0.0486 -0.0484 -0.2090
  250loPI   GL2 3990   8.691   7.469   9.678 -0.4020  0.0481 -0.1958
  250loPI   C1A 3991   8.482   7.767   9.335 -0.2210  0.1020 -0.1725
  250loPI   C2A 3992   8.349   7.828   8.874  0.3562  0.4405  0.2587
  250loPI   C3A 3993   8.463   7.723   8.384  0.1167 -0.0814 -0.0164
  250loPI   C4A 3994   8.550   7.733   7.924 -0.0730  0.1793 -0.2165
  250loPI   C5A 3995   8.687   7.798   7.548 -0.0872 -0.3022  0.1279
  250loPI   C6A 3996   8.479   8.024   7.210  0.2232 -0.1828  0.0639
  250loPI   C1B 3997   8.678   7.267   9.345 -0.3945 -0.0763 -0.1816
  250loPI   C2B 3998   8.715   7.448   9.008  0.0190 -0.0552  0.1495
  250loPI   C3B 3999   8.709   7.335   8.527 -0.1205 -0.0689 -0.0791
  250loPI   C4B 4000   8.854   7.323   8.095 -0.0226  0.1159  0.0048
  251loPI    C1 4001   5.077   9.099  10.541  0.2094 -0.2522  0.1533
  251loPI    C2 4002   4.687   9.087  10.629  0.1326  0.1106 -0.1136
  251loPI    C3 4003   4.937   9.303  10.855  0.1708 -0.0675  0.0173
  251loPI   PO4 4004   5.064   9.207  10.242  0.0249  0.0240  0.2246
  251loPI   GL1 4005   5.004   9.215   9.847  0.1533  0.2225  0.0559
  251loPI   GL2 4006   4.789   9.488   9.807 -0.4457  0.3295  0.0757
  251loPI   C1A 4007   4.995   8.920   9.432  0.0963 -0.0860  0.0650
  251loPI   C2A 4008   4.924   8.992   9.046  0.1135  0.0120 -0.0896
  251loPI   C3A 4009   4.976   8.972   8.666 -0.1897  0.0497 -0.0867
  251loPI   C4A 4010   4.939   9.093   8.217 -0.1529 -0.0518 -0.1712
  251loPI   C5A 4011   4.756   8.857   7.867 -0.1643  0.0756  0.2128
  251loPI   C6A 4012   4.623   8.358   7.794 -0.1536 -0.5240 -0.0260
  251loPI   C1B 4013   4.733   9.337   9.379  0.2916  0.1510 -0.1073
  251loPI   C2B 4014   4.706   9.460   9.007 -0.0230 -0.1764  0.1505
  251loPI   C3B 4015   4.723   9.431   8.509  0.1027  0.1886 -0.2670
  251loPI   C4B 4016   4.482   9.294   8.139  0.1887  0.0647 -0.1394
  252loPI    C1 4017  13.300  16.654  10.325 -0.1103  0.0914 -0.2078
  252loPI    C2 4018  13.492  16.993  10.413 -0.3237  0.1047  0.2335
  252loPI    C3 4019  13.501  16.686  10.669  0.0650 -0.3191 -0.2658
  252loPI   PO4 4020  13.401  16.632  10.062  0.2598 -0.2271  0.1159
  252loPI   GL1 4021  13.396  16.765   9.770 -0.0545  0.2579 -0.0695
  252loPI   GL2 4022  13.250  17.100   9.950  0.0578  0.0125 -0.0669
  252loPI   C1A 4023  13.464  16.768   9.409 -0.1732  0.2129  0.0830
  252loPI   C2A 4024  13.521  16.766   8.929 -0.1414 -0.2223  0.1180
  252loPI   C3A 4025  13.512  16.781   8.531 -0.1161 -0.2376  0.1336
  252loPI   C4A 4026  13.490  16.858   8.091 -0.0083  0.1140 -0.1639
  252loPI   C5A 4027  13.485  16.967   7.664  0.0737 -0.1956  0.1250
  252loPI   C6A 4028  13.766  16.991   7.490  0.0934 -0.0387  0.1998
  252loPI   C1B 4029  13.261  17.195   9.483  0.0158  0.0533 -0.0309
  252loPI   C2B 4030  13.210  17.180   8.995  0.0664 -0.1144 -0.0086
  252loPI   C3B 4031  13.173  17.172   8.555  0.2174 -0.2879  0.2609
  252loPI   C4B 4032  13.238  17.290   8.173 -0.0710  0.1098 -0.0295
  253loPI    C1 4033  12.378   9.342  10.319  0.0421  0.0307  0.1232
  253loPI    C2 4034  12.303   9.732  10.370 -0.1703 -0.0339  0.3205
  253loPI    C3 4035  12.081   9.459  10.560 -0.0119 -0.2519  0.1968
  253loPI   PO4 4036  12.515   9.327  10.133 -0.1672  0.0690  0.0180
  253loPI   GL1 4037  12.781   9.149   9.882 -0.0842  0.3105 -0.0398
  253loPI   GL2 4038  13.155   9.088   9.935  0.0577  0.2460 -0.0158
  253loPI   C1A 4039  12.475   8.992   9.470  0.0417  0.0529 -0.1151
  253loPI   C2A 4040  12.507   8.947   9.082 -0.1551  0.0297 -0.2141
  253loPI   C3A 4041  12.642   9.006   8.766 -0.0132  0.0973  0.1228
  253loPI   C4A 4042  12.638   8.819   8.448  0.0467 -0.0203  0.1655
  253loPI   C5A 4043  12.697   8.942   7.990 -0.0549  0.3081 -0.1079
  253loPI   C6A 4044  12.985   8.897   7.601 -0.2987  0.1248  0.0799
  253loPI   C1B 4045  12.981   8.973   9.518 -0.2100  0.0369 -0.2770
  253loPI   C2B 4046  13.005   8.937   9.096  0.0907 -0.2943 -0.0961
  253loPI   C3B 4047  13.126   9.008   8.654  0.0667  0.1094 -0.3503
  253loPI   C4B 4048  13.134   8.953   8.211  0.0942  0.0280 -0.0658
  254loPI    C1 4049   7.835  18.540  10.162  0.0968 -0.1662  0.2645
  254loPI    C2 4050   7.484  18.705  10.258  0.0705 -0.1520  0.1449
  254loPI    C3 4051   7.516  18.308  10.230 -0.0275 -0.1395 -0.1946
  254loPI   PO4 4052   7.925  18.772  10.014 -0.5454  0.1131 -0.0850
  254loPI   GL1 4053   8.069  18.670   9.654  0.0199 -0.0683 -0.0567
  254loPI   GL2 4054   7.822  18.722   9.464 -0.1829  0.0370  0.0592
  254loPI   C1A 4055   8.327  18.662   9.327 -0.2971  0.0531  0.0354
  254loPI   C2A 4056   8.481  18.770   8.910 -0.2842 -0.1472 -0.0840
  254loPI   C3A 4057   8.537  18.896   8.429  0.0898  0.2788  0.0888
  254loPI   C4A 4058   8.545  18.961   7.992 -0.1397  0.1401  0.1042
  254loPI   C5A 4059   8.620  19.062   7.639  0.0367 -0.2436  0.1246
  254loPI   C6A 4060   8.550  19.253   7.261  0.0626  0.0929 -0.1054
  254loPI   C1B 4061   7.927  18.799   9.090  0.0865  0.3608  0.3433
  254loPI   C2B 4062   7.962  18.835   8.555  0.2686  0.0569 -0.1965
  254loPI   C3B 4063   7.934  18.897   8.106 -0.1517  0.2582 -0.0271
  254loPI   C4B 4064   8.057  18.866   7.679  0.2186  0.2723 -0.1437
  255loPI    C1 4065  14.146  17.444  10.324  0.0025 -0.0759 -0.0887
  255loPI    C2 4066  14.393  17.310  10.609  0.0811  0.2191 -0.0141
  255loPI    C3 4067  14.215  17.665  10.651 -0.2089  0.0936 -0.1567
  255loPI   PO4 4068  14.342  17.365  10.098  0.2875 -0.2933 -0.0118
  255loPI   GL1 4069  14.445  17.193   9.740 -0.3983  0.1160 -0.0239
  255loPI   GL2 4070  14.770  17.214   9.627 -0.1550  0.1514  0.1474
  255loPI   C1A 4071  14.275  17.237   9.323  0.0838 -0.0237  0.3750
  255loPI   C2A 4072  14.259  17.245   8.873  0.0197  0.3329 -0.0229
  255loPI   C3A 4073  14.233  17.255   8.300  0.2227 -0.0257 -0.1745
  255loPI   C4A 4074  14.232  17.524   7.787 -0.2292  0.0225  0.1282
  255loPI   C5A 4075  14.448  17.878   7.498 -0.0873  0.1031  0.1587
  255loPI   C6A 4076  14.691  18.084   7.152  0.0405 -0.0098  0.0664
  255loPI   C1B 4077  14.733  17.207   9.153 -0.3878  0.1661 -0.3353
  255loPI   C2B 4078  14.686  17.250   8.734 -0.0808 -0.1411  0.3725
  255loPI   C3B 4079  14.801  17.187   8.297 -0.2585 -0.1206 -0.1259
  255loPI   C4B 4080  14.637  17.262   7.911 -0.2148 -0.2988 -0.1455
  256loPI    C1 4081  12.921   1.942  10.423  0.2644 -0.1453  0.0220
  256loPI    C2 4082  12.817   1.632  10.654  0.1680 -0.1460 -0.0218
  256loPI    C3 4083  12.901   1.986  10.820 -0.0780 -0.0975  0.0024
  256loPI   PO4 4084  12.871   1.893  10.236  0.1984  0.0053 -0.1557
  256loPI   GL1 4085  12.895   1.929   9.883  0.0574 -0.0284  0.0328
  256loPI   GL2 4086  13.060   2.065   9.780 -0.0636  0.2029 -0.0150
  256loPI   C1A 4087  12.682   1.822   9.582  0.1606 -0.0841  0.1911
  256loPI   C2A 4088  12.618   1.907   9.151 -0.0877  0.1927 -0.0769
  256loPI   C3A 4089  12.626   1.968   8.789  0.2589 -0.0817  0.0720
  256loPI   C4A 4090  12.702   1.962   8.340  0.0414  0.1834  0.0892
  256loPI   C5A 4091  12.724   2.052   7.949  0.0685 -0.1626  0.0654
  256loPI   C6A 4092  12.860   2.314   7.596 -0.3619  0.1177  0.2035
  256loPI   C1B 4093  13.128   1.888   9.386 -0.2178  0.0169 -0.2924
  256loPI   C2B 4094  13.179   2.040   8.966  0.1567  0.0374  0.2122
  256loPI   C3B 4095  13.132   1.944   8.566  0.0823 -0.0282 -0.1708
  256loPI   C4B 4096  13.193   1.958   8.192 -0.0490  0.1344  0.2652
  257loPI    C1 4097  16.777  13.103  10.800 -0.0192 -0.1560 -0.0991
  257loPI    C2 4098  16.730  12.751  10.985 -0.1199 -0.0377  0.1038
  257loPI    C3 4099  16.904  13.056  11.176  0.2634 -0.0698 -0.1816
  257loPI   PO4 4100  16.650  12.940  10.481  0.0065  0.0472  0.0733
  257loPI   GL1 4101  16.733  13.084  10.169 -0.0138 -0.0170 -0.1134
  257loPI   GL2 4102  16.330  13.145  10.164  0.0559 -0.0342 -0.1091
  257loPI   C1A 4103  16.888  13.204   9.850 -0.1092 -0.0376  0.3119
  257loPI   C2A 4104  16.967  13.268   9.347  0.3901  0.0488  0.1078
  257loPI   C3A 4105  16.847  13.255   8.834 -0.1956  0.0339 -0.2206
  257loPI   C4A 4106  16.799  13.319   8.334  0.1037  0.2098 -0.2340
  257loPI   C5A 4107  16.479  13.414   8.070 -0.0661  0.2331 -0.2623
  257loPI   C6A 4108  16.051  13.420   7.865 -0.0549  0.4567  0.2912
  257loPI   C1B 4109  16.305  13.378   9.824  0.0906 -0.0014  0.2515
  257loPI   C2B 4110  16.354  13.346   9.422 -0.1094 -0.0050 -0.3987
  257loPI   C3B 4111  16.360  13.241   9.030 -0.3549 -0.1104  0.0576
  257loPI   C4B 4112  16.344  13.242   8.624  0.1520  0.0740  0.2386
  258loPI    C1 4113   0.345  12.489  10.398 -0.0092 -0.4625 -0.1080
  258loPI    C2 4114   0.196  12.527  10.767 -0.0176 -0.0792 -0.1465
  258loPI    C3 4115   0.592  12.539  10.709  0.0041 -0.4828 -0.1153
  258loPI   PO4 4116   0.265  12.639  10.276  0.1477  0.2914  0.0591
  258loPI   GL1 4117   0.353  12.882   9.829 -0.1014  0.0552  0.0902
  258loPI   GL2 4118   0.366  12.508   9.818  0.1249  0.1244 -0.1709
  258loPI   C1A 4119   0.467  12.970   9.490  0.0323  0.0957  0.2333
  258loPI   C2A 4120   0.313  12.909   9.153  0.1209 -0.1280  0.1869
  258loPI   C3A 4121   0.368  13.023   8.754 -0.0181  0.0501  0.0369
  258loPI   C4A 4122   0.303  13.055   8.284 -0.1680 -0.1856  0.0445
  258loPI   C5A 4123   0.180  13.183   7.846  0.3049 -0.1506  0.1694
  258loPI   C6A 4124   0.243  13.327   7.454 -0.2139  0.3787 -0.1275
  258loPI   C1B 4125   0.016  12.467   9.535  0.1968 -0.4799 -0.1900
  258loPI   C2B 4126   0.103  12.469   9.084 -0.0465 -0.1392  0.0594
  258loPI   C3B 4127   0.059  12.454   8.687 -0.1587 -0.1138 -0.1591
  258loPI   C4B 4128   0.058  12.640   8.308 -0.2238  0.0768  0.1482
  259loPI    C1 4129  16.467  15.089  10.773  0.0733  0.2762 -0.0016
  259loPI    C2 4130  16.148  15.030  11.007  0.0672  0.1013 -0.0521
  259loPI    C3 4131  16.504  15.111  11.171  0.0422  0.0778  0.0135
  259loPI   PO4 4132  16.401  15.070  10.570 -0.1622 -0.1208  0.1911
  259loPI   GL1 4133  16.212  15.113  10.184  0.2585  0.5601 -0.1718
  259loPI   GL2 4134  16.535  15.236  10.134  0.2696  0.0422 -0.1449
  259loPI   C1A 4135  16.332  15.107   9.749  0.1856  0.1107  0.3841
  259loPI   C2A 4136  16.315  15.096   9.230 -0.1614  0.0967  0.1004
  259loPI   C3A 4137  16.245  15.137   8.923  0.4581 -0.1787 -0.1406
  259loPI   C4A 4138  16.239  15.100   8.533  0.1018 -0.1442 -0.1433
  259loPI   C5A 4139  16.249  15.047   8.056 -0.2951  0.0259 -0.3021
  259loPI   C6A 4140  16.655  14.909   7.863  0.0137 -0.1410  0.1700
  259loPI   C1B 4141  16.565  15.519   9.828  0.3318 -0.0089 -0.0411
  259loPI   C2B 4142  16.521  15.493   9.420  0.1913 -0.0053 -0.3218
  259loPI   C3B 4143  16.622  15.520   8.938  0.0699 -0.1773 -0.2193
  259loPI   C4B 4144  16.551  15.473   8.496  0.2741 -0.2811 -0.0374
  260loPI    C1 4145   0.806  11.430  10.372 -0.1230 -0.2891  0.0764
  260loPI    C2 4146   0.513  11.575  10.602 -0.1019 -0.0493 -0.0445
  260loPI    C3 4147   0.874  11.506  10.758 -0.1514 -0.1052  0.0461
  260loPI   PO4 4148   0.772  11.520  10.104  0.2409 -0.1612 -0.0448
  260loPI   GL1 4149   0.520  11.626   9.777  0.1191 -0.2718  0.0572
  260loPI   GL2 4150   0.573  11.943   9.642 -0.4073 -0.3744  0.0144
  260loPI   C1A 4151   0.496  11.683   9.186 -0.3923  0.1585  0.0753
  260loPI   C2A 4152   0.604  11.563   8.799  0.0454  0.1236 -0.2095
  260loPI   C3A 4153   0.610  11.621   8.344 -0.0591  0.2941 -0.1089
  260loPI   C4A 4154   0.406  11.839   7.982 -0.0762 -0.0460 -0.1230
  260loPI   C5A 4155   0.323  12.219   7.736 -0.0851 -0.0030 -0.1764
  260loPI   C6A 4156   0.390  11.996   7.273 -0.1052  0.2546 -0.2538
  260loPI   C1B 4157   0.475  12.196   9.295 -0.2935  0.1711  0.0672
  260loPI   C2B 4158   0.335  12.086   8.867  0.1836 -0.0419 -0.0539
  260loPI   C3B 4159   0.263  12.136   8.370 -0.1294  0.3381 -0.3172
  260loPI   C4B 4160  -0.002  12.130   8.079 -0.0323  0.0660  0.4117
  261loPI    C1 4161   8.499   6.230  10.255 -0.1133  0.0443 -0.0702
  261loPI    C2 4162   8.209   5.983  10.377  0.1379 -0.1777  0.0871
  261loPI    C3 4163   8.353   6.260  10.627 -0.0440  0.0359 -0.0421
  261loPI   PO4 4164   8.411   6.279   9.991 -0.1611 -0.2328  0.1559
  261loPI   GL1 4165   8.417   6.284   9.602 -0.0311  0.2002 -0.4438
  261loPI   GL2 4166   8.630   6.027   9.574 -0.0543 -0.1439 -0.0919
  261loPI   C1A 4167   8.218   6.293   9.207  0.2276 -0.1236 -0.1787
  261loPI   C2A 4168   8.248   6.522   8.774  0.0555  0.0277  0.0282
  261loPI   C3A 4169   8.307   6.436   8.400  0.0064 -0.2112 -0.0108
  261loPI   C4A 4170   8.281   6.516   7.966 -0.2547 -0.1108 -0.0617
  261loPI   C5A 4171   8.176   6.579   7.565  0.2616  0.0539 -0.0829
  261loPI   C6A 4172   8.194   6.810   7.198 -0.3075 -0.0060  0.0640
  261loPI   C1B 4173   8.480   5.906   9.188 -0.6230 -0.2534 -0.1502
  261loPI   C2B 4174   8.499   5.931   8.811  0.5747 -0.0391  0.0089
  261loPI   C3B 4175   8.568   6.026   8.342 -0.1689  0.1245 -0.1008
  261loPI   C4B 4176   8.698   6.034   7.970 -0.0794  0.1002 -0.0339
  262loPI    C1 4177   9.148   1.453  10.304 -0.2401  0.1312  0.2408
  262loPI    C2 4178   9.045   1.089  10.433 -0.0412 -0.0007  0.0350
  262loPI    C3 4179   9.429   1.199  10.431 -0.0809  0.1385 -0.0871
  262loPI   PO4 4180   9.068   1.422  10.073  0.0538  0.0240 -0.0102
  262loPI   GL1 4181   9.093   1.319   9.667 -0.0986 -0.1748 -0.1922
  262loPI   GL2 4182   9.327   1.216   9.531 -0.0829  0.1141  0.0532
  262loPI   C1A 4183   8.783   1.251   9.342  0.1003  0.3278 -0.4637
  262loPI   C2A 4184   8.694   1.283   8.936 -0.2931 -0.0166  0.0954
  262loPI   C3A 4185   8.740   1.285   8.488  0.1977  0.2072  0.2287
  262loPI   C4A 4186   8.761   1.369   7.979  0.1308 -0.1882 -0.4088
  262loPI   C5A 4187   8.710   1.454   7.582 -0.3733  0.0934 -0.0245
  262loPI   C6A 4188   8.955   1.424   7.352 -0.0837 -0.0540  0.1187
  262loPI   C1B 4189   9.201   1.322   9.084  0.0025  0.0541 -0.3657
  262loPI   C2B 4190   9.258   1.358   8.699 -0.2437  0.0023 -0.2975
  262loPI   C3B 4191   9.244   1.315   8.380 -0.0564  0.0065 -0.1719
  262loPI   C4B 4192   9.235   1.528   7.946 -0.0838 -0.1091  0.1272
  263loPI    C1 4193   8.020   9.705   9.533 -0.0128 -0.1271 -0.1267
  263loPI    C2 4194   7.726   9.576   9.771  0.0887  0.1305  0.1442
  263loPI    C3 4195   7.853   9.347   9.469 -0.0588 -0.1913  0.3208
  263loPI   PO4 4196   8.058   9.938   9.461 -0.2892 -0.0138 -0.1001
  263loPI   GL1 4197   8.029   9.777   9.057  0.2366 -0.1303 -0.0129
  263loPI   GL2 4198   8.212  10.062   8.935 -0.4779  0.1414  0.0362
  263loPI   C1A 4199   7.932   9.528   8.670  0.0234  0.0469  0.1504
  263loPI   C2A 4200   7.726   9.506   8.315 -0.3254 -0.0651  0.0380
  263loPI   C3A 4201   7.696   9.463   7.890 -0.2305 -0.0899  0.2456
  263loPI   C4A 4202   7.476   9.501   7.547  0.1609 -0.2808 -0.0265
  263loPI   C5A 4203   7.302   9.168   7.239  0.3216  0.0217  0.0050
  263loPI   C6A 4204   7.021   8.859   7.245  0.0108 -0.0131  0.4211
  263loPI   C1B 4205   8.112   9.956   8.559  0.1499 -0.1609  0.0772
  263loPI   C2B 4206   7.960   9.915   8.095 -0.0178 -0.2502 -0.4046
  263loPI   C3B 4207   7.800   9.908   7.726  0.0423 -0.0536  0.2824
  263loPI   C4B 4208   7.595  10.112   7.452  0.1914  0.4821  0.4162
  264loPI    C1 4209   0.787  14.101  10.723  0.1093 -0.0321  0.1447
  264loPI    C2 4210   0.980  14.287  11.019  0.1053  0.0580  0.0911
  264loPI    C3 4211   0.911  13.894  11.041  0.1211  0.0612  0.2012
  264loPI   PO4 4212   0.737  14.174  10.485 -0.3368 -0.0217  0.2159
  264loPI   GL1 4213   0.696  14.294  10.104 -0.1046 -0.0667  0.0459
  264loPI   GL2 4214   0.457  13.995  10.056 -0.1417 -0.0305 -0.0812
  264loPI   C1A 4215   0.601  14.371   9.643 -0.0656 -0.1078  0.2969
  264loPI   C2A 4216   0.600  14.345   9.275  0.3264 -0.1367  0.2963
  264loPI   C3A 4217   0.516  14.333   8.804 -0.1445  0.1371  0.0668
  264loPI   C4A 4218   0.516  14.347   8.348  0.1159 -0.0564  0.0799
  264loPI   C5A 4219   0.552  14.253   7.847  0.0188  0.1019  0.1020
  264loPI   C6A 4220   0.421  14.295   7.477  0.0327 -0.1615  0.1339
  264loPI   C1B 4221   0.384  13.853   9.630 -0.0021  0.1476  0.1022
  264loPI   C2B 4222   0.364  13.886   9.116 -0.1236 -0.2196  0.0466
  264loPI   C3B 4223   0.230  13.833   8.726 -0.1000  0.0544 -0.2691
  264loPI   C4B 4224   0.281  13.787   8.261 -0.1245 -0.1124  0.0543
  265loPI    C1 4225  10.461   8.589  10.289 -0.1498 -0.2919 -0.0658
  265loPI    C2 4226  10.759   8.671  10.543 -0.0726 -0.3672 -0.1314
  265loPI    C3 4227  10.399   8.570  10.684 -0.0802 -0.2309 -0.0517
  265loPI   PO4 4228  10.589   8.418  10.079 -0.2305 -0.2066  0.0480
  265loPI   GL1 4229  10.689   8.333   9.639  0.1026 -0.0008  0.0335
  265loPI   GL2 4230  10.327   8.243   9.505  0.4309  0.1630 -0.0571
  265loPI   C1A 4231  10.647   8.367   9.135  0.0729 -0.2980  0.3326
  265loPI   C2A 4232  10.799   8.406   8.824 -0.2300  0.2244 -0.2077
  265loPI   C3A 4233  10.810   8.380   8.400 -0.0549  0.0331  0.0751
  265loPI   C4A 4234  10.876   8.422   7.931  0.1196 -0.1589 -0.0246
  265loPI   C5A 4235  10.786   8.202   7.471 -0.2509 -0.1687 -0.0503
  265loPI   C6A 4236  10.417   8.143   7.346  0.2431  0.0924  0.0612
  265loPI   C1B 4237  10.472   7.914   9.296 -0.2285 -0.3514  0.0319
  265loPI   C2B 4238  10.491   7.944   8.887  0.0451  0.2977  0.1042
  265loPI   C3B 4239  10.578   7.949   8.414  0.1294 -0.2291 -0.0242
  265loPI   C4B 4240  10.694   7.991   7.930  0.2507 -0.4355 -0.1167
  266loPI    C1 4241   3.905  11.253  10.098 -0.2948 -0.2151  0.0006
  266loPI    C2 4242   3.972  10.963  10.365 -0.2062 -0.0481  0.1623
  266loPI    C3 4243   4.045  11.344  10.461 -0.0347  0.0013 -0.1499
  266loPI   PO4 4244   3.866  11.029   9.864  0.0913 -0.0214  0.0249
  266loPI   GL1 4245   3.793  10.856   9.498 -0.0195 -0.1262  0.2505
  266loPI   GL2 4246   3.537  10.738   9.685  0.3287 -0.0950 -0.2458
  266loPI   C1A 4247   3.911  10.844   9.005  0.1822 -0.0973 -0.0422
  266loPI   C2A 4248   3.853  10.745   8.546  0.2349 -0.0937  0.1403
  266loPI   C3A 4249   3.804  10.766   8.102  0.0035  0.0617  0.0775
  266loPI   C4A 4250   3.711  10.414   7.850  0.0539  0.0527  0.1171
  266loPI   C5A 4251   3.814  10.143   7.394  0.2703  0.1877  0.0204
  266loPI   C6A 4252   3.942   9.989   7.031 -0.0466 -0.0113  0.1487
  266loPI   C1B 4253   3.353  10.749   9.206  0.0285 -0.0850 -0.1855
  266loPI   C2B 4254   3.443  10.765   8.772  0.2871  0.2198  0.2707
  266loPI   C3B 4255   3.391  10.822   8.352 -0.0178 -0.0755 -0.0578
  266loPI   C4B 4256   3.300  10.661   7.953 -0.0517  0.1151 -0.0801
  267loPI    C1 4257   6.769   2.061  10.071 -0.3243 -0.0206  0.1005
  267loPI    C2 4258   6.957   2.042  10.424 -0.1134 -0.2179 -0.0202
  267loPI    C3 4259   6.783   2.383  10.309  0.4108  0.0590 -0.0255
  267loPI   PO4 4260   6.939   2.057   9.857 -0.1006 -0.0481 -0.1165
  267loPI   GL1 4261   7.186   2.402   9.833 -0.0056  0.2753 -0.1895
  267loPI   GL2 4262   7.636   2.435   9.854  0.1485 -0.1988 -0.2749
  267loPI   C1A 4263   7.046   2.675   9.396 -0.0706 -0.0948 -0.0006
  267loPI   C2A 4264   6.888   2.582   8.994  0.4198 -0.0198 -0.3843
  267loPI   C3A 4265   6.787   2.649   8.574  0.0252  0.0832 -0.2042
  267loPI   C4A 4266   6.824   2.659   8.275 -0.3931 -0.4813 -0.1569
  267loPI   C5A 4267   6.861   2.637   7.789 -0.2063 -0.0073  0.1835
  267loPI   C6A 4268   7.252   2.669   7.602  0.0495  0.0303 -0.1543
  267loPI   C1B 4269   7.537   2.463   9.481 -0.0118 -0.1863  0.3378
  267loPI   C2B 4270   7.466   2.558   9.052  0.2224  0.0361  0.3867
  267loPI   C3B 4271   7.373   2.630   8.638 -0.0590  0.0677  0.1179
  267loPI   C4B 4272   7.306   2.725   8.187 -0.1038  0.3569  0.1971
  268loPI    C1 4273   7.343  13.928   9.898  0.2174  0.1914 -0.0719
  268loPI    C2 4274   7.436  14.268  10.087 -0.3272  0.2900  0.0365
  268loPI    C3 4275   7.325  13.946  10.297 -0.1199  0.1386 -0.0818
  268loPI   PO4 4276   7.069  13.938   9.763 -0.3598 -0.1414 -0.0250
  268loPI   GL1 4277   7.116  14.041   9.340 -0.1788  0.0188 -0.1828
  268loPI   GL2 4278   7.423  14.031   9.112 -0.0134 -0.0252  0.4711
  268loPI   C1A 4279   6.877  14.058   8.997 -0.0609  0.2996  0.1752
  268loPI   C2A 4280   6.811  14.125   8.542 -0.1681  0.1945 -0.0842
  268loPI   C3A 4281   6.681  14.109   8.040  0.0055  0.2143 -0.4558
  268loPI   C4A 4282   6.634  14.015   7.619 -0.0369  0.0958 -0.0786
  268loPI   C5A 4283   6.614  13.734   7.263 -0.0601  0.0920  0.0231
  268loPI   C6A 4284   6.837  13.606   6.809 -0.0854  0.0578  0.2403
  268loPI   C1B 4285   7.291  14.061   8.653  0.1361  0.0217 -0.0611
  268loPI   C2B 4286   7.177  14.094   8.204 -0.1839 -0.1545 -0.1520
  268loPI   C3B 4287   7.116  14.136   7.771  0.1188 -0.3043  0.0386
  268loPI   C4B 4288   7.080  14.123   7.273 -0.2368  0.3583 -0.1802
  269loPI    C1 4289  15.577   7.456  10.650 -0.0827 -0.1836 -0.0535
  269loPI    C2 4290  15.585   7.536  11.042  0.0534  0.0548 -0.1032
  269loPI    C3 4291  15.720   7.184  10.907 -0.3071 -0.1648  0.0936
  269loPI   PO4 4292  15.646   7.631  10.506  0.0544  0.1324  0.1989
  269loPI   GL1 4293  15.920   7.732  10.186 -0.1324  0.0174  0.0734
  269loPI   GL2 4294  15.810   8.031  10.119  0.0870  0.0234  0.1663
  269loPI   C1A 4295  16.001   7.699   9.837  0.2238  0.0091  0.2863
  269loPI   C2A 4296  16.131   7.717   9.356 -0.0726 -0.2782  0.1111
  269loPI   C3A 4297  16.171   7.691   8.960 -0.1119 -0.1931 -0.0294
  269loPI   C4A 4298  16.042   7.648   8.515 -0.0516 -0.3083 -0.0244
  269loPI   C5A 4299  16.064   7.383   8.144  0.1791 -0.0394 -0.2345
  269loPI   C6A 4300  16.136   7.181   7.746 -0.0624 -0.2269  0.1065
  269loPI   C1B 4301  15.710   8.150   9.708 -0.0524  0.2438  0.2682
  269loPI   C2B 4302  15.711   8.166   9.338  0.1047 -0.0456 -0.0901
  269loPI   C3B 4303  15.812   8.105   8.919 -0.1270 -0.3931  0.2334
  269loPI   C4B 4304  15.778   8.143   8.426 -0.0036  0.3029 -0.1872
  270loPI    C1 4305   0.939   3.937  10.781 -0.1651  0.1624  0.0444
  270loPI    C2 4306   0.820   4.022  11.153  0.1098 -0.1890  0.2191
  270loPI    C3 4307   0.798   3.647  11.017 -0.1026 -0.0426 -0.1661
  270loPI   PO4 4308   0.945   4.236  10.679 -0.1741  0.2396 -0.0255
  270loPI   GL1 4309   0.936   4.390  10.306 -0.0166 -0.2395  0.3440
  270loPI   GL2 4310   1.153   4.109  10.112  0.0003 -0.1187 -0.1296
  270loPI   C1A 4311   0.770   4.562  10.081  0.1106 -0.1532  0.1585
  270loPI   C2A 4312   0.723   4.642   9.642 -0.1216  0.0244  0.1725
  270loPI   C3A 4313   0.777   4.651   9.203 -0.3533  0.4184  0.4429
  270loPI   C4A 4314   0.774   4.735   8.846 -0.1858  0.2212  0.0344
  270loPI   C5A 4315   0.811   4.555   8.486  0.2445  0.0598 -0.1397
  270loPI   C6A 4316   0.827   4.270   8.149  0.0855  0.0130 -0.0281
  270loPI   C1B 4317   1.023   4.213   9.768  0.1541  0.1333 -0.2692
  270loPI   C2B 4318   1.056   4.199   9.300  0.0986 -0.1674  0.3384
  270loPI   C3B 4319   1.077   4.319   8.869 -0.1155 -0.2600 -0.2528
  270loPI   C4B 4320   1.087   4.194   8.579 -0.0471 -0.0271 -0.1505
  271loPI    C1 4321   5.595   0.548  10.154  0.0066  0.0584 -0.0814
  271loPI    C2 4322   5.885   0.297  10.266  0.0506  0.0422 -0.2296
  271loPI    C3 4323   5.505   0.173  10.258  0.0338  0.0740 -0.0005
  271loPI   PO4 4324   5.682   0.626   9.945 -0.1532  0.2859 -0.0084
  271loPI   GL1 4325   5.417   0.699   9.583  0.2301  0.1229 -0.2789
  271loPI   GL2 4326   5.423   1.034   9.786 -0.0986 -0.1650  0.3689
  271loPI   C1A 4327   5.466   0.773   9.172 -0.1818  0.3858  0.4198
  271loPI   C2A 4328   5.382   0.764   8.700 -0.1882 -0.1316  0.0738
  271loPI   C3A 4329   5.344   0.743   8.368  0.2865 -0.1529 -0.4351
  271loPI   C4A 4330   5.353   0.696   7.923  0.0353  0.0425 -0.1565
  271loPI   C5A 4331   5.391   0.564   7.530  0.0195 -0.2186 -0.3802
  271loPI   C6A 4332   5.671   0.493   7.125  0.2247  0.1260 -0.0590
  271loPI   C1B 4333   5.734   1.159   9.382 -0.2591 -0.2137 -0.1691
  271loPI   C2B 4334   5.676   1.227   8.957 -0.2027  0.0064 -0.3072
  271loPI   C3B 4335   5.566   1.195   8.551 -0.0846 -0.2646 -0.0497
  271loPI   C4B 4336   5.580   1.275   8.168  0.1349  0.1215  0.1752
  272loPI    C1 4337  17.366  15.135  10.699  0.0077  0.0195 -0.2301
  272loPI    C2 4338  17.292  15.490  10.868 -0.1174 -0.0982 -0.0329
  272loPI    C3 4339  17.463  15.199  11.082  0.0294 -0.1424 -0.2078
  272loPI   PO4 4340  17.417  15.238  10.456  0.1353 -0.0253  0.1488
  272loPI   GL1 4341  17.602  15.196  10.086 -0.2117 -0.1376 -0.1334
  272loPI   GL2 4342  17.664  15.448   9.970  0.0826 -0.1248 -0.1204
  272loPI   C1A 4343  17.404  15.043   9.766 -0.1437 -0.5333 -0.1818
  272loPI   C2A 4344  17.362  15.017   9.267  0.3741 -0.1521 -0.5569
  272loPI   C3A 4345  17.321  15.030   8.861  0.0591 -0.0383 -0.2144
  272loPI   C4A 4346  17.359  15.063   8.417 -0.1487  0.0034 -0.2746
  272loPI   C5A 4347  17.370  15.061   7.926 -0.5075 -0.2827 -0.0255
  272loPI   C6A 4348  17.101  15.054   7.641 -0.5873 -0.0040  0.0144
  272loPI   C1B 4349  17.651  15.514   9.539 -0.0358 -0.0949 -0.1497
  272loPI   C2B 4350  17.645  15.608   9.080 -0.1739 -0.0200 -0.0870
  272loPI   C3B 4351  17.609  15.524   8.713 -0.0941 -0.1203  0.0397
  272loPI   C4B 4352  17.512  15.462   8.210 -0.1131 -0.1278  0.3505
  273loPI    C1 4353   6.613   9.434  10.012  0.0470 -0.0812 -0.2524
  273loPI    C2 4354   6.565   9.414  10.408  0.1955 -0.0571 -0.2323
  273loPI    C3 4355   6.832   9.667  10.252  0.0720  0.0001 -0.3531
  273loPI   PO4 4356   6.408   9.466   9.843  0.1624 -0.0225 -0.2078
  273loPI   GL1 4357   6.239   9.731   9.642 -0.1142  0.2074 -0.0541
  273loPI   GL2 4358   5.980   9.796   9.792  0.0538  0.2293  0.2587
  273loPI   C1A 4359   6.294   9.646   9.251  0.2784 -0.0731 -0.3041
  273loPI   C2A 4360   6.277   9.589   8.802  0.2063  0.0464  0.0595
  273loPI   C3A 4361   6.178   9.422   8.329  0.2273 -0.2849  0.1288
  273loPI   C4A 4362   6.298   9.491   7.901  0.0727 -0.4979  0.0185
  273loPI   C5A 4363   6.335   9.137   7.615 -0.1500 -0.1217  0.1163
  273loPI   C6A 4364   6.563   9.040   7.196  0.0659 -0.0491  0.3421
  273loPI   C1B 4365   5.981  10.071   9.366 -0.1141  0.0145 -0.0534
  273loPI   C2B 4366   5.977   9.981   8.971  0.3207 -0.2328  0.0227
  273loPI   C3B 4367   5.982  10.109   8.535 -0.2787 -0.0312  0.0177
  273loPI   C4B 4368   5.887   9.920   8.218  0.0557  0.1618 -0.3457
  274loPI    C1 4369  15.969  15.969  10.645 -0.1992  0.1137 -0.1517
  274loPI    C2 4370  15.859  15.863  11.015  0.1767  0.3316  0.0287
  274loPI    C3 4371  16.224  16.015  10.950  0.1237  0.2751 -0.4383
  274loPI   PO4 4372  15.787  16.146  10.527 -0.2427 -0.0055 -0.6223
  274loPI   GL1 4373  15.599  15.967  10.119  0.1145  0.2464 -0.0942
  274loPI   GL2 4374  15.475  15.687  10.105 -0.0901 -0.0438 -0.0981
  274loPI   C1A 4375  15.825  15.931   9.760  0.1438 -0.0006  0.2377
  274loPI   C2A 4376  15.807  16.014   9.462 -0.3065  0.2766  0.0618
  274loPI   C3A 4377  15.596  16.115   9.302  0.7140  0.3676  0.1437
  274loPI   C4A 4378  15.371  16.355   9.032  0.0456  0.2671  0.0462
  274loPI   C5A 4379  15.326  16.452   8.647  0.3816 -0.0863  0.1689
  274loPI   C6A 4380  15.360  16.429   8.183 -0.1946 -0.0290 -0.1381
  274loPI   C1B 4381  15.542  15.474   9.697 -0.0076 -0.2595 -0.3950
  274loPI   C2B 4382  15.563  15.613   9.297  0.0779 -0.0190 -0.3296
  274loPI   C3B 4383  15.525  15.772   8.907 -0.0192  0.0260 -0.0782
  274loPI   C4B 4384  15.380  15.608   8.483  0.2359  0.1299 -0.1308
  275loPI    C1 4385   4.300   3.079  10.567  0.1961 -0.2247 -0.1650
  275loPI    C2 4386   4.505   3.369  10.750 -0.3195 -0.0763  0.1979
  275loPI    C3 4387   4.514   2.996  10.895 -0.3035 -0.0703  0.2122
  275loPI   PO4 4388   4.398   3.094  10.226  0.0679 -0.1645 -0.0767
  275loPI   GL1 4389   4.369   3.359   9.812  0.0170  0.1152 -0.1565
  275loPI   GL2 4390   4.513   3.562   9.807 -0.1216  0.0881 -0.0094
  275loPI   C1A 4391   4.321   3.408   9.389  0.0787 -0.3342 -0.1338
  275loPI   C2A 4392   4.232   3.478   8.907 -0.0303  0.4380 -0.2394
  275loPI   C3A 4393   4.235   3.445   8.498 -0.0725 -0.1354  0.0807
  275loPI   C4A 4394   4.185   3.525   8.064 -0.1420 -0.3911 -0.0996
  275loPI   C5A 4395   4.271   3.777   7.705 -0.1301 -0.0591  0.0300
  275loPI   C6A 4396   4.293   4.164   7.622 -0.0467  0.0474  0.3055
  275loPI   C1B 4397   4.536   3.823   9.346  0.2017  0.0240 -0.0216
  275loPI   C2B 4398   4.452   3.911   8.861 -0.3587  0.2607 -0.0640
  275loPI   C3B 4399   4.433   3.955   8.567  0.1866  0.0029  0.1814
  275loPI   C4B 4400   4.491   3.973   8.190 -0.3441  0.0258 -0.3385
  276loPI    C1 4401   6.029   8.916  10.522 -0.0297 -0.1682  0.1092
  276loPI    C2 4402   5.700   8.973  10.742 -0.0971  0.0044 -0.0341
  276loPI    C3 4403   5.968   9.268  10.703 -0.0195 -0.0711 -0.0739
  276loPI   PO4 4404   5.813   8.867  10.218 -0.0923 -0.3478 -0.0717
  276loPI   GL1 4405   5.488   8.983   9.939 -0.2422  0.2334 -0.3510
  276loPI   GL2 4406   5.328   8.702   9.876 -0.1941  0.3892 -0.0746
  276loPI   C1A 4407   5.521   9.023   9.523  0.0625 -0.2227  0.1362
  276loPI   C2A 4408   5.446   9.016   9.212 -0.0055 -0.1124  0.0973
  276loPI   C3A 4409   5.477   8.957   8.680 -0.0096 -0.0077  0.0381
  276loPI   C4A 4410   5.465   8.974   8.225  0.0407  0.0562  0.1974
  276loPI   C5A 4411   5.353   9.180   7.889  0.2045 -0.0482  0.0176
  276loPI   C6A 4412   4.943   9.265   7.595 -0.0349  0.1250  0.1211
  276loPI   C1B 4413   5.341   8.588   9.510  0.3609  0.0500  0.0090
  276loPI   C2B 4414   5.331   8.618   9.037  0.2995  0.1365  0.4716
  276loPI   C3B 4415   5.351   8.459   8.644 -0.1588  0.1024 -0.2370
  276loPI   C4B 4416   5.186   8.522   8.200 -0.0774  0.0829 -0.2731
  277loPI    C1 4417   5.540   6.319  10.578  0.0128  0.1902  0.1831
  277loPI    C2 4418   5.221   6.436  10.789 -0.2283 -0.1046 -0.0096
  277loPI    C3 4419   5.550   6.310  10.978 -0.3141 -0.0332  0.1902
  277loPI   PO4 4420   5.562   6.535  10.380  0.2793  0.0953 -0.1422
  277loPI   GL1 4421   5.758   6.319  10.016  0.0267 -0.1049  0.1965
  277loPI   GL2 4422   5.903   6.516   9.767  0.0597  0.0295 -0.0113
  277loPI   C1A 4423   5.536   6.266   9.610  0.1608 -0.3756 -0.1454
  277loPI   C2A 4424   5.655   6.264   9.159 -0.0703  0.0932 -0.1094
  277loPI   C3A 4425   5.770   6.315   8.740 -0.0342 -0.0843  0.0967
  277loPI   C4A 4426   5.787   6.331   8.279 -0.2084  0.0288  0.0307
  277loPI   C5A 4427   5.858   6.378   7.844  0.0228  0.0213 -0.0541
  277loPI   C6A 4428   5.772   6.528   7.456  0.1503  0.2265 -0.3077
  277loPI   C1B 4429   6.193   6.377   9.313  0.1902 -0.0914 -0.2083
  277loPI   C2B 4430   6.211   6.367   8.971  0.1026  0.2253 -0.0895
  277loPI   C3B 4431   6.283   6.242   8.495  0.2368 -0.3800  0.2221
  277loPI   C4B 4432   6.334   6.287   8.099  0.0527 -0.1319  0.1979
  278loPI    C1 4433  14.598   6.151  10.472  0.3020 -0.0647  0.1719
  278loPI    C2 4434  14.873   6.441  10.490  0.1282  0.1011  0.1868
  278loPI    C3 4435  14.596   6.409  10.777  0.2233 -0.1599  0.2525
  278loPI   PO4 4436  14.628   6.005  10.266  0.2788 -0.3357 -0.0183
  278loPI   GL1 4437  14.643   5.992   9.900 -0.3494  0.1757  0.1749
  278loPI   GL2 4438  14.582   5.709   9.728 -0.2620  0.0537 -0.2072
  278loPI   C1A 4439  14.723   6.227   9.589  0.2275 -0.3437 -0.0366
  278loPI   C2A 4440  14.831   6.193   9.113 -0.1576 -0.1968  0.0678
  278loPI   C3A 4441  14.818   6.400   8.627 -0.2059 -0.2912 -0.0714
  278loPI   C4A 4442  15.126   6.495   8.258 -0.1105  0.1106 -0.1894
  278loPI   C5A 4443  15.515   6.665   8.217  0.0162 -0.2203  0.0181
  278loPI   C6A 4444  15.685   7.012   7.961  0.3108 -0.2212  0.1724
  278loPI   C1B 4445  14.646   5.745   9.282 -0.0967 -0.3250  0.0851
  278loPI   C2B 4446  14.507   5.782   8.826 -0.0978  0.0568  0.0158
  278loPI   C3B 4447  14.636   5.866   8.398 -0.3173 -0.0284  0.1801
  278loPI   C4B 4448  14.842   6.061   8.061  0.0545 -0.2781 -0.2441
  279loPI    C1 4449   3.488   2.814  10.211  0.1336  0.3034  0.1230
  279loPI    C2 4450   3.239   2.955  10.490 -0.1568 -0.2659  0.1672
  279loPI    C3 4451   3.532   2.704  10.593  0.2085  0.1041  0.0584
  279loPI   PO4 4452   3.344   2.743  10.071 -0.3382  0.2598  0.2829
  279loPI   GL1 4453   3.314   2.638   9.688  0.2466 -0.2911  0.0868
  279loPI   GL2 4454   2.969   2.592   9.741  0.0718 -0.0307  0.4434
  279loPI   C1A 4455   3.248   2.554   9.291 -0.1011 -0.1034 -0.3875
  279loPI   C2A 4456   3.187   2.552   8.825  0.1065 -0.1733  0.2283
  279loPI   C3A 4457   3.226   2.523   8.372  0.1612  0.2051  0.1182
  279loPI   C4A 4458   3.233   2.451   7.891  0.2355  0.0952  0.0511
  279loPI   C5A 4459   3.590   2.430   7.576 -0.1228 -0.1691  0.1386
  279loPI   C6A 4460   3.637   2.658   7.221 -0.5117 -0.1523 -0.0912
  279loPI   C1B 4461   2.765   2.556   9.364 -0.1096 -0.0039 -0.2066
  279loPI   C2B 4462   2.697   2.504   8.920 -0.4259  0.4112 -0.0361
  279loPI   C3B 4463   2.772   2.411   8.499 -0.0163  0.0689 -0.0732
  279loPI   C4B 4464   2.771   2.429   8.064  0.1467 -0.0987 -0.1861
  280loPI    C1 4465  17.343  13.842  10.660 -0.0400  0.0720  0.3113
  280loPI    C2 4466  17.575  14.148  10.773  0.0207  0.1395  0.0115
  280loPI    C3 4467  17.701  13.773  10.825  0.0536  0.1697  0.1525
  280loPI   PO4 4468  17.202  13.861  10.353  0.1004 -0.0403  0.0043
  280loPI   GL1 4469  17.317  13.736   9.886  0.1157 -0.1980 -0.3419
  280loPI   GL2 4470  17.262  13.424   9.988 -0.2582 -0.0718 -0.0561
  280loPI   C1A 4471  17.198  13.668   9.507  0.2772  0.2507 -0.2321
  280loPI   C2A 4472  17.121  13.731   9.036 -0.1802  0.1733  0.6568
  280loPI   C3A 4473  17.084  13.723   8.591 -0.1819 -0.0383  0.1967
  280loPI   C4A 4474  16.988  13.688   8.155  0.1222 -0.0987  0.3064
  280loPI   C5A 4475  16.873  13.408   7.755  0.0269 -0.1210  0.0132
  280loPI   C6A 4476  16.651  13.630   7.279  0.0448  0.0071 -0.2197
  280loPI   C1B 4477  17.495  13.273   9.569 -0.3224  0.1744  0.0523
  280loPI   C2B 4478  17.354  13.273   9.087 -0.0784 -0.1168  0.3169
  280loPI   C3B 4479  17.343  13.285   8.543 -0.0603 -0.4252 -0.1100
  280loPI   C4B 4480  17.267  13.229   8.162 -0.2530  0.0281  0.2046
  281loPI    C1 4481   2.712  13.081  10.097  0.2007  0.0065  0.0666
  281loPI    C2 4482   2.629  13.418  10.295  0.2620 -0.0639  0.2140
  281loPI    C3 4483   2.894  13.159  10.444  0.1185 -0.2397  0.1672
  281loPI   PO4 4484   2.719  13.143   9.851 -0.0869  0.0301  0.1309
  281loPI   GL1 4485   2.908  13.096   9.455 -0.2305  0.2101  0.0079
  281loPI   GL2 4486   3.003  12.778   9.585 -0.2343  0.1701  0.2288
  281loPI   C1A 4487   3.085  13.084   9.063  0.0423  0.3662 -0.2485
  281loPI   C2A 4488   3.011  13.010   8.689  0.2748  0.1632  0.1618
  281loPI   C3A 4489   2.851  12.894   8.219  0.1982 -0.1335 -0.1281
  281loPI   C4A 4490   2.933  12.833   7.784  0.2802  0.1516 -0.1225
  281loPI   C5A 4491   2.685  12.924   7.421 -0.0030  0.1342 -0.1916
  281loPI   C6A 4492   2.374  13.177   7.338 -0.1548 -0.1210 -0.0036
  281loPI   C1B 4493   2.811  12.648   9.251  0.0635  0.0297  0.1830
  281loPI   C2B 4494   2.701  12.579   8.975 -0.0853  0.0913  0.0911
  281loPI   C3B 4495   2.761  12.466   8.569  0.4289 -0.2603  0.0238
  281loPI   C4B 4496   2.647  12.414   8.125  0.0629 -0.0150 -0.0481
  282loPI    C1 4497   2.138  14.405  10.070 -0.0970 -0.0371 -0.0759
  282loPI    C2 4498   2.085  14.530  10.447 -0.1919 -0.0718 -0.0774
  282loPI    C3 4499   2.163  14.145  10.373 -0.1244 -0.0559 -0.0899
  282loPI   PO4 4500   2.328  14.596   9.919 -0.0496  0.5122 -0.0600
  282loPI   GL1 4501   2.554  14.717   9.546  0.1321  0.0953  0.0893
  282loPI   GL2 4502   2.732  14.522   9.418 -0.1907  0.0445  0.5360
  282loPI   C1A 4503   2.458  14.955   9.224  0.2498  0.2308 -0.0624
  282loPI   C2A 4504   2.455  14.944   8.717 -0.0761  0.1526  0.0460
  282loPI   C3A 4505   2.393  14.756   8.275  0.6342  0.1277 -0.3373
  282loPI   C4A 4506   2.281  14.748   7.817 -0.2034  0.0554 -0.0784
  282loPI   C5A 4507   2.090  14.963   7.570 -0.1328 -0.1617 -0.3588
  282loPI   C6A 4508   2.183  15.386   7.436  0.3390  0.1330 -0.0232
  282loPI   C1B 4509   2.728  14.551   8.895  0.1329  0.1284 -0.0961
  282loPI   C2B 4510   2.735  14.413   8.455  0.2966  0.1201 -0.0026
  282loPI   C3B 4511   2.535  14.344   8.027 -0.1537 -0.0723 -0.1752
  282loPI   C4B 4512   2.507  14.311   7.637 -0.3229 -0.1814 -0.0005
  283loPI    C1 4513  17.710   5.863  10.617  0.1148 -0.0841 -0.0401
  283loPI    C2 4514  17.734   5.750  11.000  0.0080 -0.0160 -0.0131
  283loPI    C3 4515  17.400   5.921  10.862  0.0022 -0.1492 -0.1663
  283loPI   PO4 4516  17.747   5.693  10.518  0.1766 -0.1847  0.0082
  283loPI   GL1 4517  17.818   5.766  10.076 -0.1282  0.1143 -0.2232
  283loPI   GL2 4518  17.832   5.551  10.077  0.1051  0.4376  0.1143
  283loPI   C1A 4519  17.651   5.811   9.622 -0.1388  0.0603 -0.1723
  283loPI   C2A 4520  17.786   5.902   9.140 -0.0333  0.2055 -0.3350
  283loPI   C3A 4521  17.793   5.937   8.722  0.0394 -0.1917  0.3869
  283loPI   C4A 4522  17.665   5.954   8.249 -0.1978  0.0273 -0.3106
  283loPI   C5A 4523  17.377   5.682   8.001 -0.0727  0.3031  0.2625
  283loPI   C6A 4524  16.936   5.454   7.892 -0.1286  0.0834 -0.0049
  283loPI   C1B 4525  18.039   5.441   9.664 -0.2677 -0.1515  0.1258
  283loPI   C2B 4526  18.082   5.463   9.229 -0.0970  0.1295  0.1778
  283loPI   C3B 4527  18.123   5.345   8.843  0.0130  0.3137 -0.0724
  283loPI   C4B 4528  18.066   5.578   8.449 -0.4413 -0.1975  0.1318
  284loPI    C1 4529  11.093   2.547   9.952 -0.0635 -0.0970 -0.2934
  284loPI    C2 4530  10.828   2.806   9.800 -0.4052 -0.2434  0.0381
  284loPI    C3 4531  10.987   2.871  10.162  0.0255 -0.1527 -0.1616
  284loPI   PO4 4532  11.239   2.521   9.808 -0.1536 -0.0689  0.0957
  284loPI   GL1 4533  11.295   2.439   9.370  0.0513  0.0438 -0.1815
  284loPI   GL2 4534  11.104   2.708   9.350 -0.1222  0.1232  0.1352
  284loPI   C1A 4535  11.307   2.311   8.967 -0.1682  0.1015  0.1687
  284loPI   C2A 4536  11.290   2.258   8.481 -0.0336  0.0661 -0.3533
  284loPI   C3A 4537  11.328   2.421   8.069  0.2421  0.1406 -0.1905
  284loPI   C4A 4538  11.428   2.358   7.709  0.0926 -0.2544  0.1405
  284loPI   C5A 4539  11.181   2.356   7.325 -0.2541 -0.1066  0.1720
  284loPI   C6A 4540  11.138   2.554   6.883  0.1920  0.2361 -0.1577
  284loPI   C1B 4541  11.032   2.692   8.967 -0.0544  0.0414  0.1321
  284loPI   C2B 4542  11.072   2.779   8.528  0.1639 -0.0787  0.0708
  284loPI   C3B 4543  11.112   2.871   8.082  0.1267 -0.1616 -0.0539
  284loPI   C4B 4544  11.151   2.858   7.694 -0.2618 -0.3408  0.0964
  285loPI    C1 4545  17.691  16.104  10.251 -0.0402 -0.1000  0.1273
  285loPI    C2 4546  17.440  16.402  10.342 -0.0161 -0.0213 -0.0606
  285loPI    C3 4547  17.594  16.174  10.633 -0.2651 -0.0379  0.0601
  285loPI   PO4 4548  17.508  15.911  10.070  0.0719  0.0861 -0.1040
  285loPI   GL1 4549  17.436  16.000   9.698  0.2858  0.2486  0.3965
  285loPI   GL2 4550  17.772  15.954   9.668 -0.1538 -0.0749 -0.0045
  285loPI   C1A 4551  17.386  16.043   9.219  0.1166  0.1083  0.0268
  285loPI   C2A 4552  17.281  15.908   8.820 -0.2907 -0.1347 -0.0874
  285loPI   C3A 4553  17.258  15.951   8.380 -0.1776  0.1791  0.0571
  285loPI   C4A 4554  17.079  15.957   8.048  0.0662 -0.1393 -0.1303
  285loPI   C5A 4555  16.940  16.304   7.897  0.1649 -0.1640  0.0881
  285loPI   C6A 4556  16.826  16.648   7.487 -0.0504 -0.2773  0.0673
  285loPI   C1B 4557  17.857  16.034   9.185 -0.0925 -0.2985  0.0956
  285loPI   C2B 4558  17.779  15.979   8.721  0.3725 -0.0214  0.1114
  285loPI   C3B 4559  17.760  15.971   8.355 -0.3633 -0.0064  0.1663
  285loPI   C4B 4560  17.588  15.985   7.923 -0.3373  0.0324  0.0317
  286loPI    C1 4561   2.356   5.336  10.548 -0.2006  0.0246 -0.1946
  286loPI    C2 4562   2.664   5.130  10.698 -0.1642  0.0092 -0.2895
  286loPI    C3 4563   2.389   5.285  10.943 -0.1586 -0.0997 -0.2134
  286loPI   PO4 4564   2.359   5.281  10.338 -0.0138  0.1634  0.1278
  286loPI   GL1 4565   2.576   5.265   9.992 -0.0057 -0.0233  0.0401
  286loPI   GL2 4566   2.717   4.950   9.804 -0.0641  0.3053  0.0510
  286loPI   C1A 4567   2.565   5.284   9.521 -0.1148  0.0282  0.0446
  286loPI   C2A 4568   2.685   5.190   9.077  0.0778 -0.1881 -0.0985
  286loPI   C3A 4569   2.595   5.199   8.688 -0.0539  0.0450  0.0674
  286loPI   C4A 4570   2.608   5.183   8.253  0.0215 -0.0363 -0.3137
  286loPI   C5A 4571   2.541   5.288   7.823 -0.0925 -0.1109 -0.1904
  286loPI   C6A 4572   2.619   5.383   7.430  0.0833  0.2753  0.1119
  286loPI   C1B 4573   2.814   4.779   9.401 -0.1313 -0.0295 -0.0362
  286loPI   C2B 4574   2.918   4.756   8.995 -0.2462  0.1939 -0.2670
  286loPI   C3B 4575   2.833   4.725   8.574  0.0882  0.2884  0.2024
  286loPI   C4B 4576   2.963   4.702   8.156 -0.2373 -0.1800 -0.0342
  287loPI    C1 4577   5.149   2.729  10.695 -0.0876  0.1802  0.0214
  287loPI    C2 4578   5.105   3.001  10.985  0.2538 -0.0138  0.2609
  287loPI    C3 4579   5.227   2.630  11.074  0.0851 -0.1604 -0.0989
  287loPI   PO4 4580   5.342   2.803  10.435  0.2160  0.0475  0.0285
  287loPI   GL1 4581   5.279   2.860  10.035 -0.3315 -0.1605  0.0513
  287loPI   GL2 4582   5.581   2.993   9.824  0.2705  0.0950 -0.1216
  287loPI   C1A 4583   5.112   2.948   9.603 -0.2251 -0.1396  0.0973
  287loPI   C2A 4584   5.135   3.050   9.156 -0.0050  0.1509 -0.2923
  287loPI   C3A 4585   5.021   3.130   8.758  0.1021  0.3443 -0.0082
  287loPI   C4A 4586   5.079   3.124   8.369  0.0360 -0.2209  0.0752
  287loPI   C5A 4587   4.973   3.127   7.912 -0.0384  0.0957 -0.1462
  287loPI   C6A 4588   4.829   2.986   7.565 -0.2236 -0.1298 -0.2248
  287loPI   C1B 4589   5.533   2.998   9.394  0.0467  0.0662 -0.1248
  287loPI   C2B 4590   5.685   3.102   8.942  0.1566 -0.0084  0.2996
  287loPI   C3B 4591   5.544   3.153   8.571  0.1547 -0.1592 -0.2005
  287loPI   C4B 4592   5.503   3.055   8.099 -0.1152 -0.0876  0.0158
  288loPI    C1 4593  12.781  10.312  10.180 -0.0498 -0.1244  0.2789
  288loPI    C2 4594  12.777  10.426  10.564  0.0357 -0.2500  0.3177
  288loPI    C3 4595  12.534  10.134  10.439  0.1709 -0.3674  0.3265
  288loPI   PO4 4596  12.699  10.460   9.963 -0.0485 -0.3293 -0.0967
  288loPI   GL1 4597  12.636  10.258   9.501 -0.2021 -0.2953 -0.3051
  288loPI   GL2 4598  12.841  10.072   9.636  0.0665 -0.0924  0.1652
  288loPI   C1A 4599  12.788  10.426   9.175  0.0974  0.0131  0.2431
  288loPI   C2A 4600  12.798  10.309   8.742 -0.2965 -0.2486 -0.0640
  288loPI   C3A 4601  12.957  10.336   8.318 -0.1084 -0.2791  0.1124
  288loPI   C4A 4602  12.916  10.288   7.937  0.1817  0.1670  0.3263
  288loPI   C5A 4603  12.655  10.066   7.623  0.0187  0.0934 -0.1634
  288loPI   C6A 4604  12.430   9.708   7.474 -0.2110 -0.1596 -0.0276
  288loPI   C1B 4605  13.040   9.869   9.276 -0.0194 -0.1239 -0.0805
  288loPI   C2B 4606  13.156   9.998   8.811 -0.2540  0.0326 -0.2027
  288loPI   C3B 4607  13.170   9.903   8.417 -0.0762  0.1128  0.1218
  288loPI   C4B 4608  13.278   9.904   7.897  0.2308 -0.1009  0.2588
  289loPI    C1 4609  18.101   6.339  10.584 -0.0453  0.0656 -0.0199
  289loPI    C2 4610  17.843   6.235  10.872  0.0247 -0.2237 -0.0580
  289loPI    C3 4611  17.707   6.359  10.516 -0.0626 -0.3475 -0.0683
  289loPI   PO4 4612  18.293   6.192  10.561  0.0444  0.0174 -0.0987
  289loPI   GL1 4613  18.476   6.029  10.087 -0.2223 -0.0235  0.1121
  289loPI   GL2 4614  18.681   6.046  10.213 -0.1263 -0.0805 -0.3852
  289loPI   C1A 4615  18.241   5.912   9.784 -0.1204  0.0275 -0.0429
  289loPI   C2A 4616  18.279   5.883   9.432  0.0231 -0.3558 -0.4005
  289loPI   C3A 4617  18.280   5.912   9.059 -0.1230  0.0663 -0.1718
  289loPI   C4A 4618  18.356   6.031   8.627 -0.1838 -0.1066  0.2869
  289loPI   C5A 4619  18.193   6.030   8.244 -0.2040 -0.0171  0.4765
  289loPI   C6A 4620  18.311   5.714   7.832 -0.2216  0.3952 -0.1832
  289loPI   C1B 4621  18.874   6.004   9.771 -0.0666  0.2983  0.0431
  289loPI   C2B 4622  18.816   5.977   9.326 -0.1358  0.0498  0.0483
  289loPI   C3B 4623  18.881   6.027   8.831  0.0256 -0.1018 -0.3877
  289loPI   C4B 4624  18.798   6.013   8.342 -0.1428 -0.1618 -0.2985
  290loPI    C1 4625   1.559   1.696  10.209 -0.0919 -0.0127  0.0355
  290loPI    C2 4626   1.579   1.934  10.529  0.1722 -0.1012  0.0876
  290loPI    C3 4627   1.556   1.538  10.577  0.0241 -0.1040 -0.0020
  290loPI   PO4 4628   1.432   1.987  10.065  0.1636  0.1285 -0.2279
  290loPI   GL1 4629   1.568   2.265   9.744  0.0825 -0.0122  0.1362
  290loPI   GL2 4630   1.539   2.011   9.573 -0.0862  0.1350 -0.0843
  290loPI   C1A 4631   1.297   2.492   9.400 -0.0265 -0.3199  0.1747
  290loPI   C2A 4632   1.176   2.443   8.997  0.0133  0.0790  0.1514
  290loPI   C3A 4633   1.117   2.357   8.602 -0.0895  0.0842  0.3322
  290loPI   C4A 4634   1.274   2.379   8.143 -0.3904  0.0566 -0.1687
  290loPI   C5A 4635   1.042   2.190   7.766 -0.0445 -0.1937 -0.0285
  290loPI   C6A 4636   0.802   2.316   7.459  0.0808 -0.2958 -0.1265
  290loPI   C1B 4637   1.479   1.809   9.204  0.3712  0.0087 -0.0369
  290loPI   C2B 4638   1.352   1.899   8.826  0.1613  0.0967  0.1014
  290loPI   C3B 4639   1.431   1.837   8.387  0.1327 -0.0253  0.0183
  290loPI   C4B 4640   1.388   1.921   7.963 -0.0561  0.1578 -0.2066
  291loPI    C1 4641   6.082   9.523  10.232  0.2579 -0.2477  0.1359
  291loPI    C2 4642   5.815   9.715  10.460  0.1777 -0.0319 -0.1336
  291loPI    C3 4643   6.202   9.717  10.561  0.2079  0.4472 -0.2359
  291loPI   PO4 4644   6.032   9.374  10.191  0.0125 -0.2599 -0.1600
  291loPI   GL1 4645   5.903   9.234   9.777 -0.4840 -0.1290  0.1400
  291loPI   GL2 4646   5.969   9.032   9.760  0.2032  0.3179  0.0888
  291loPI   C1A 4647   5.825   9.495   9.426  0.0739 -0.0039 -0.1572
  291loPI   C2A 4648   5.717   9.570   9.006 -0.0834  0.1712 -0.3306
  291loPI   C3A 4649   5.761   9.421   8.599 -0.2300 -0.0089 -0.0086
  291loPI   C4A 4650   5.701   9.411   8.128  0.0174 -0.0931 -0.1664
  291loPI   C5A 4651   5.848   9.676   7.743  0.0266 -0.0713  0.1168
  291loPI   C6A 4652   6.016   9.440   7.429 -0.1333  0.1828  0.2511
  291loPI   C1B 4653   5.963   9.050   9.291  0.0158  0.0950 -0.0145
  291loPI   C2B 4654   5.964   9.077   8.907 -0.1874  0.1038 -0.0563
  291loPI   C3B 4655   5.945   8.941   8.511 -0.3041  0.0006  0.0224
  291loPI   C4B 4656   6.045   8.988   7.994 -0.0897  0.2237 -0.0619
  292loPI    C1 4657  11.448  18.711  10.492  0.2856  0.0140 -0.0595
  292loPI    C2 4658  11.734  18.852  10.734 -0.0275  0.2561  0.1777
  292loPI    C3 4659  11.442  19.094  10.607 -0.0249  0.0594 -0.2170
  292loPI   PO4 4660  11.542  18.501  10.317 -0.1379 -0.1329  0.1155
  292loPI   GL1 4661  11.960  18.480  10.051 -0.1255  0.0946  0.2443
  292loPI   GL2 4662  12.191  18.357   9.939 -0.0689  0.1549 -0.0017
  292loPI   C1A 4663  11.809  18.504   9.615  0.0515 -0.1125 -0.0024
  292loPI   C2A 4664  11.913  18.548   9.284  0.1279  0.3561  0.0196
  292loPI   C3A 4665  11.879  18.519   8.892  0.2248  0.1338 -0.0298
  292loPI   C4A 4666  11.889  18.551   8.442 -0.0387 -0.0434 -0.0682
  292loPI   C5A 4667  11.935  18.548   7.999 -0.3704  0.2635 -0.3823
  292loPI   C6A 4668  11.945  18.500   7.572  0.2736  0.1673 -0.1563
  292loPI   C1B 4669  12.204  18.093   9.593 -0.0644  0.0723  0.3147
  292loPI   C2B 4670  12.165  18.067   9.094 -0.0920 -0.1466 -0.1258
  292loPI   C3B 4671  12.128  18.109   8.650  0.1088  0.2254 -0.0069
  292loPI   C4B 4672  12.158  18.146   8.257  0.1705  0.1557  0.1191
  293loPI    C1 4673  17.681   8.604  10.603  0.0200 -0.2111 -0.0093
  293loPI    C2 4674  17.728   8.367  10.921 -0.4531 -0.1545  0.1103
  293loPI    C3 4675  17.663   8.758  10.971 -0.1350 -0.0741 -0.0732
  293loPI   PO4 4676  17.885   8.509  10.475 -0.0888 -0.0008 -0.0691
  293loPI   GL1 4677  17.845   8.271  10.125  0.2873 -0.1788 -0.3094
  293loPI   GL2 4678  18.014   7.999   9.960 -0.0495  0.2571 -0.1494
  293loPI   C1A 4679  17.793   8.412   9.707 -0.2392 -0.1032 -0.1734
  293loPI   C2A 4680  17.875   8.226   9.376  0.1545 -0.0081 -0.0015
  293loPI   C3A 4681  17.831   8.114   8.963 -0.1133 -0.1803 -0.0628
  293loPI   C4A 4682  17.871   8.057   8.541 -0.5460  0.0399 -0.0587
  293loPI   C5A 4683  17.929   8.104   8.172  0.0655  0.0813  0.1186
  293loPI   C6A 4684  17.931   8.028   7.693  0.2113  0.0271  0.1259
  293loPI   C1B 4685  18.101   7.744   9.647 -0.1606  0.0438 -0.0075
  293loPI   C2B 4686  18.084   7.726   9.291 -0.0123 -0.0319 -0.0487
  293loPI   C3B 4687  18.138   7.742   8.826  0.2798 -0.0948  0.0663
  293loPI   C4B 4688  18.289   7.718   8.459  0.1725  0.0072  0.0554
  294loPI    C1 4689   2.975   3.423  10.459 -0.0033  0.0851 -0.2610
  294loPI    C2 4690   3.084   3.739  10.678  0.0397 -0.0941 -0.0189
  294loPI    C3 4691   2.726   3.569  10.737  0.1574 -0.3048  0.0999
  294loPI   PO4 4692   3.052   3.373  10.269 -0.1690 -0.2040 -0.4171
  294loPI   GL1 4693   3.283   3.248   9.992 -0.1073 -0.2044  0.1233
  294loPI   GL2 4694   3.467   3.138   9.754  0.0021  0.0018  0.2284
  294loPI   C1A 4695   3.052   3.056   9.541  0.0124 -0.0489 -0.0099
  294loPI   C2A 4696   3.005   2.930   9.090 -0.0296 -0.1075  0.1154
  294loPI   C3A 4697   2.932   2.988   8.694 -0.1123 -0.0548  0.1760
  294loPI   C4A 4698   2.984   2.930   8.258 -0.5177  0.0166  0.2183
  294loPI   C5A 4699   2.863   2.873   7.852 -0.1177  0.0051  0.1004
  294loPI   C6A 4700   2.593   2.986   7.460 -0.0822  0.1862 -0.2676
  294loPI   C1B 4701   3.462   3.007   9.267 -0.1865 -0.2321  0.0723
  294loPI   C2B 4702   3.409   3.018   8.811 -0.2233 -0.0328 -0.2995
  294loPI   C3B 4703   3.476   2.986   8.386 -0.0046  0.1684 -0.1961
  294loPI   C4B 4704   3.420   2.978   7.967  0.0409 -0.1443 -0.1981
  295loPI    C1 4705  15.143  16.828  10.294  0.1921 -0.1919  0.0309
  295loPI    C2 4706  14.962  16.955  10.627  0.2654  0.0891 -0.0339
  295loPI    C3 4707  15.249  16.678  10.649  0.2573  0.0927  0.1345
  295loPI   PO4 4708  15.097  17.008  10.031  0.2842  0.0122  0.1565
  295loPI   GL1 4709  15.341  17.166   9.667 -0.0495 -0.0576  0.2097
  295loPI   GL2 4710  15.513  17.301   9.564 -0.1623  0.2729  0.0074
  295loPI   C1A 4711  15.461  16.806   9.491  0.1247  0.0520 -0.2019
  295loPI   C2A 4712  15.527  16.819   8.961  0.1639  0.0143 -0.3388
  295loPI   C3A 4713  15.674  16.827   8.541  0.0530 -0.1801  0.0352
  295loPI   C4A 4714  15.908  16.632   8.309 -0.2500  0.1263 -0.0792
  295loPI   C5A 4715  15.993  16.453   7.938  0.0945  0.1000  0.0406
  295loPI   C6A 4716  15.966  16.595   7.560 -0.1869  0.5031 -0.2808
  295loPI   C1B 4717  15.323  17.254   9.151 -0.3856  0.0411 -0.1924
  295loPI   C2B 4718  15.387  17.199   8.647  0.1155  0.3533 -0.0433
  295loPI   C3B 4719  15.461  17.062   8.157  0.1174 -0.1001 -0.0742
  295loPI   C4B 4720  15.366  17.217   7.751  0.0543  0.0288 -0.2841
  296loPI    C1 4721  13.815  10.320  10.464  0.2101 -0.0433  0.0959
  296loPI    C2 4722  13.952   9.951  10.537 -0.0541 -0.1539  0.0458
  296loPI    C3 4723  13.989  10.237  10.814  0.1421 -0.2197  0.0889
  296loPI   PO4 4724  13.703  10.267  10.147 -0.1455  0.0465  0.0855
  296loPI   GL1 4725  13.652   9.872   9.964  0.0002  0.0699 -0.0269
  296loPI   GL2 4726  13.525   9.649  10.021 -0.0305  0.1781 -0.0834
  296loPI   C1A 4727  13.497  10.012   9.559 -0.1266  0.2449 -0.2743
  296loPI   C2A 4728  13.538   9.885   9.109  0.1422  0.1766 -0.0637
  296loPI   C3A 4729  13.637   9.980   8.687  0.1410 -0.0339  0.1773
  296loPI   C4A 4730  13.648   9.834   8.268  0.1421 -0.2018 -0.1649
  296loPI   C5A 4731  13.719   9.701   7.882 -0.0009 -0.2485  0.4258
  296loPI   C6A 4732  13.819  10.119   7.678  0.4259  0.0427  0.1127
  296loPI   C1B 4733  13.708   9.550   9.553  0.1546 -0.2909  0.1979
  296loPI   C2B 4734  13.887   9.535   9.202 -0.3066  0.1768  0.2762
  296loPI   C3B 4735  13.767   9.451   8.731  0.1318 -0.3025  0.0919
  296loPI   C4B 4736  13.979   9.432   8.333 -0.0407 -0.1450 -0.1286
  297loPI    C1 4737   2.151  11.641  10.509  0.1347 -0.1558  0.3263
  297loPI    C2 4738   2.338  11.926  10.718 -0.1652  0.1381  0.2021
  297loPI    C3 4739   2.239  11.581  10.894  0.4074  0.0101  0.2925
  297loPI   PO4 4740   2.124  11.703  10.222  0.0581 -0.1847  0.2693
  297loPI   GL1 4741   2.084  11.488   9.840 -0.1502 -0.0491  0.0502
  297loPI   GL2 4742   2.481  11.335   9.775 -0.2579  0.0889 -0.0687
  297loPI   C1A 4743   1.767  11.616   9.505 -0.2727 -0.2300 -0.2245
  297loPI   C2A 4744   1.687  11.634   9.124  0.1261  0.2106 -0.0115
  297loPI   C3A 4745   1.693  11.661   8.669 -0.0823  0.4426  0.0254
  297loPI   C4A 4746   1.659  11.726   8.151 -0.4174 -0.2193  0.0005
  297loPI   C5A 4747   1.719  11.787   7.816  0.3771  0.0129 -0.0349
  297loPI   C6A 4748   2.038  11.802   7.490 -0.2707 -0.1897  0.0780
  297loPI   C1B 4749   2.533  11.223   9.433 -0.0448  0.0839 -0.0269
  297loPI   C2B 4750   2.561  11.136   9.034 -0.3475 -0.1501 -0.0278
  297loPI   C3B 4751   2.519  11.126   8.652  0.2522  0.0256  0.0131
  297loPI   C4B 4752   2.624  11.169   8.227 -0.0438 -0.2362 -0.1049
  298loPI    C1 4753   9.286  13.420   9.758  0.1587 -0.2496 -0.1273
  298loPI    C2 4754   8.914  13.328   9.643  0.0710 -0.1133  0.0436
  298loPI    C3 4755   8.989  13.683   9.812  0.3192 -0.0546 -0.1834
  298loPI   PO4 4756   9.422  13.374   9.507  0.4026 -0.1355 -0.1533
  298loPI   GL1 4757   9.333  13.242   9.150  0.1455  0.1254  0.1204
  298loPI   GL2 4758   9.510  13.480   9.052  0.3810  0.2112 -0.1516
  298loPI   C1A 4759   9.052  13.122   8.870  0.0377  0.4116  0.0794
  298loPI   C2A 4760   9.131  13.254   8.362  0.1875  0.2919 -0.0188
  298loPI   C3A 4761   9.333  13.385   8.126 -0.1587 -0.0646 -0.1153
  298loPI   C4A 4762   9.531  13.197   7.704  0.0664  0.1499  0.1123
  298loPI   C5A 4763   9.453  13.296   7.253 -0.1209  0.0560  0.1389
  298loPI   C6A 4764   9.389  13.634   7.051  0.1711 -0.1090  0.1105
  298loPI   C1B 4765   9.341  13.510   8.718 -0.0971 -0.2063 -0.3823
  298loPI   C2B 4766   9.287  13.855   8.453 -0.2416  0.0230  0.0143
  298loPI   C3B 4767   9.506  13.931   8.089 -0.3614  0.1331  0.0651
  298loPI   C4B 4768   9.673  14.133   7.657  0.0489 -0.2666  0.1292
  299loPI    C1 4769  11.106   4.717  10.187  0.1395 -0.1519 -0.0597
  299loPI    C2 4770  11.125   5.116  10.173 -0.5529 -0.1157 -0.4281
  299loPI    C3 4771  10.998   4.934  10.505 -0.1105 -0.0471 -0.2130
  299loPI   PO4 4772  11.326   4.705   9.977 -0.0650 -0.2154 -0.1420
  299loPI   GL1 4773  11.611   4.634   9.640 -0.1313  0.0353 -0.1588
  299loPI   GL2 4774  11.388   4.401   9.537  0.1096  0.1891  0.3034
  299loPI   C1A 4775  11.537   4.674   9.207 -0.0162 -0.3678 -0.2402
  299loPI   C2A 4776  11.433   4.717   8.720  0.2054  0.1874 -0.0773
  299loPI   C3A 4777  11.475   4.691   8.198  0.1242  0.2640  0.1675
  299loPI   C4A 4778  11.384   4.611   7.803  0.0300  0.1845 -0.0755
  299loPI   C5A 4779  11.482   4.767   7.306  0.1497  0.3189 -0.0197
  299loPI   C6A 4780  11.601   4.625   6.851  0.3297 -0.0005 -0.3405
  299loPI   C1B 4781  11.367   4.167   9.216  0.1193  0.0901  0.0586
  299loPI   C2B 4782  11.282   4.182   8.850 -0.1744 -0.0428 -0.1532
  299loPI   C3B 4783  11.153   4.211   8.418  0.1470 -0.1191 -0.0505
  299loPI   C4B 4784  11.090   4.174   7.910 -0.0002 -0.0125  0.3082
  300loPI    C1 4785  14.805   7.100  10.573 -0.0105  0.0342 -0.1701
  300loPI    C2 4786  15.115   7.210  10.799 -0.0170 -0.2811 -0.0024
  300loPI    C3 4787  14.750   7.186  10.960 -0.1185  0.0145 -0.1807
  300loPI   PO4 4788  14.999   6.988  10.344  0.1174  0.0383 -0.0575
  300loPI   GL1 4789  14.870   6.923   9.878 -0.3765 -0.0117  0.0310
  300loPI   GL2 4790  14.849   6.597   9.959  0.4707  0.1812  0.1159
  300loPI   C1A 4791  14.850   6.644   9.434  0.0485  0.0942  0.0323
  300loPI   C2A 4792  15.081   6.625   9.066 -0.1824 -0.0383 -0.0245
  300loPI   C3A 4793  15.030   6.825   8.655 -0.0272 -0.0114  0.3082
  300loPI   C4A 4794  14.994   6.987   8.188 -0.1566 -0.2733  0.3129
  300loPI   C5A 4795  14.740   7.042   7.738 -0.5019  0.1815  0.1910
  300loPI   C6A 4796  14.370   6.847   7.809  0.1417  0.2646 -0.0320
  300loPI   C1B 4797  14.438   6.732   9.652 -0.0417 -0.2087  0.0005
  300loPI   C2B 4798  14.379   6.635   9.253  0.3391  0.7309 -0.0871
  300loPI   C3B 4799  14.471   6.785   8.899 -0.3046 -0.0321  0.1607
  300loPI   C4B 4800  14.558   6.762   8.448  0.0524  0.0196  0.0277
  301loPI    C1 4801   7.665  12.573   9.838 -0.0119  0.0401 -0.0153
  301loPI    C2 4802   7.505  12.896   9.664  0.0701  0.0941  0.0093
  301loPI    C3 4803   7.446  12.828  10.054  0.1121  0.1178  0.0199
  301loPI   PO4 4804   7.951  12.590   9.780  0.0492  0.0581 -0.2063
  301loPI   GL1 4805   8.081  12.782   9.405 -0.1404  0.0906  0.0270
  301loPI   GL2 4806   7.838  12.716   9.265  0.1220  0.1468  0.0353
  301loPI   C1A 4807   8.338  12.688   9.071  0.4069 -0.1297  0.1718
  301loPI   C2A 4808   8.265  12.772   8.532  0.0323  0.0484 -0.1805
  301loPI   C3A 4809   8.226  12.857   8.107  0.1216  0.4822  0.0233
  301loPI   C4A 4810   8.110  13.043   7.675  0.1398 -0.3017 -0.2839
  301loPI   C5A 4811   8.160  13.183   7.231 -0.4568 -0.2730  0.2678
  301loPI   C6A 4812   8.371  13.210   6.949 -0.0209 -0.1616 -0.1416
  301loPI   C1B 4813   7.867  12.691   8.882 -0.1503  0.0829 -0.2594
  301loPI   C2B 4814   7.703  12.618   8.411 -0.3794 -0.2514  0.0325
  301loPI   C3B 4815   7.762  12.668   7.909  0.0486 -0.2580 -0.0081
  301loPI   C4B 4816   7.696  12.768   7.418 -0.2323  0.1749  0.2410
  302loPI    C1 4817  18.038   5.336  10.771  0.0602  0.0436  0.1880
  302loPI    C2 4818  17.685   5.201  10.901  0.0523 -0.0304  0.0906
  302loPI    C3 4819  17.996   5.222  11.152  0.0562 -0.2389  0.1048
  302loPI   PO4 4820  18.046   5.225  10.582 -0.2128  0.1254  0.0959
  302loPI   GL1 4821  18.242   5.220  10.126 -0.1050  0.3716 -0.0033
  302loPI   GL2 4822  18.415   5.512   9.983 -0.0451  0.3238 -0.3374
  302loPI   C1A 4823  18.358   5.079   9.695 -0.1179 -0.0545  0.1046
  302loPI   C2A 4824  18.404   5.049   9.274 -0.0112  0.2891 -0.0006
  302loPI   C3A 4825  18.452   5.004   8.873 -0.0985  0.0794 -0.1820
  302loPI   C4A 4826  18.388   5.020   8.500  0.2594  0.2147 -0.3245
  302loPI   C5A 4827  18.455   4.669   8.090  0.0142 -0.1464 -0.2158
  302loPI   C6A 4828  18.577   4.776   7.608 -0.1664  0.2454 -0.2733
  302loPI   C1B 4829  18.590   5.556   9.626 -0.2753  0.0340  0.1266
  302loPI   C2B 4830  18.615   5.566   9.206 -0.0007  0.1069 -0.1485
  302loPI   C3B 4831  18.590   5.526   8.751  0.0651  0.1760 -0.0942
  302loPI   C4B 4832  18.580   5.489   8.303 -0.0714  0.2261 -0.1968
  303loPI    C1 4833  10.719  14.916   9.667 -0.0981 -0.1909  0.0749
  303loPI    C2 4834  11.115  14.943   9.615 -0.0933  0.0526  0.2273
  303loPI    C3 4835  10.966  14.856   9.976 -0.1794 -0.0198  0.1745
  303loPI   PO4 4836  10.634  14.746   9.574 -0.2674 -0.4362  0.1625
  303loPI   GL1 4837  10.387  14.748   9.334  0.2757  0.1045  0.2417
  303loPI   GL2 4838  10.488  14.500   9.026  0.6888 -0.1978  0.1119
  303loPI   C1A 4839  10.372  14.989   8.982 -0.2209  0.3099 -0.0248
  303loPI   C2A 4840  10.316  15.159   8.611  0.1063  0.1806  0.1452
  303loPI   C3A 4841  10.262  14.993   8.221 -0.2211 -0.0592  0.1717
  303loPI   C4A 4842  10.386  14.816   7.903 -0.2454 -0.6034  0.1100
  303loPI   C5A 4843  10.132  14.460   7.827 -0.2285 -0.0723  0.4874
  303loPI   C6A 4844  10.052  14.388   7.415 -0.0722  0.0086 -0.1778
  303loPI   C1B 4845  10.703  14.165   8.734 -0.1703  0.3024  0.1423
  303loPI   C2B 4846  10.643  13.929   8.376 -0.2862 -0.0263 -0.0636
  303loPI   C3B 4847  10.695  13.730   7.910  0.0346 -0.0480  0.2231
  303loPI   C4B 4848  10.648  13.714   7.494 -0.2411  0.2482  0.0870
  304loPI    C1 4849  15.588   1.297  10.403  0.0489  0.0480  0.2271
  304loPI    C2 4850  15.641   1.230  10.794 -0.1321  0.2083  0.2806
  304loPI    C3 4851  15.873   1.494  10.604 -0.0069  0.0892  0.2662
  304loPI   PO4 4852  15.612   1.075  10.308 -0.1106 -0.0565 -0.0846
  304loPI   GL1 4853  15.708   0.928   9.880 -0.1339 -0.5113  0.1802
  304loPI   GL2 4854  15.882   1.187   9.937 -0.0735  0.3704  0.1252
  304loPI   C1A 4855  15.652   0.798   9.450  0.1882 -0.1182  0.1272
  304loPI   C2A 4856  15.625   0.682   9.047  0.0875  0.1209 -0.0040
  304loPI   C3A 4857  15.680   0.536   8.508 -0.1805 -0.0622  0.0659
  304loPI   C4A 4858  15.797   0.718   8.125  0.0028 -0.0900 -0.2436
  304loPI   C5A 4859  16.016   0.878   7.708  0.1260  0.0113 -0.2948
  304loPI   C6A 4860  15.973   1.084   7.319 -0.4632  0.1695  0.4049
  304loPI   C1B 4861  15.879   1.267   9.445 -0.3125  0.2496  0.0479
  304loPI   C2B 4862  15.858   1.142   9.073  0.2425 -0.2349  0.2443
  304loPI   C3B 4863  15.889   1.107   8.546 -0.1055 -0.1851 -0.1781
  304loPI   C4B 4864  16.149   1.131   8.101 -0.1606 -0.1525 -0.2400
  305loPI    C1 4865   2.214   3.709  10.726 -0.0802  0.0117  0.0005
  305loPI    C2 4866   1.818   3.751  10.681 -0.1043  0.0183  0.2087
  305loPI    C3 4867   1.965   3.570  11.006  0.0563 -0.1960  0.0211
  305loPI   PO4 4868   2.277   3.938  10.425 -0.4472  0.5825  0.1323
  305loPI   GL1 4869   2.364   3.823  10.009 -0.0552 -0.0715  0.3933
  305loPI   GL2 4870   2.510   4.036   9.922  0.1957 -0.0388  0.2662
  305loPI   C1A 4871   1.975   3.772   9.745 -0.1193  0.0316 -0.0236
  305loPI   C2A 4872   1.892   3.806   9.363 -0.0011  0.0885 -0.0470
  305loPI   C3A 4873   1.923   3.813   8.984  0.1963  0.1423  0.3915
  305loPI   C4A 4874   1.843   3.873   8.436 -0.0922  0.0582  0.0459
  305loPI   C5A 4875   1.877   3.752   7.968  0.3407  0.1551 -0.2136
  305loPI   C6A 4876   2.351   3.684   7.731  0.2696  0.0992 -0.1241
  305loPI   C1B 4877   2.505   3.949   9.558 -0.1658 -0.0180  0.3615
  305loPI   C2B 4878   2.424   3.872   9.042  0.3927 -0.0714  0.0932
  305loPI   C3B 4879   2.333   3.874   8.622 -0.1122  0.2989 -0.0375
  305loPI   C4B 4880   2.309   3.814   8.245 -0.3587  0.2470 -0.0434
  306loPI    C1 4881   7.346  17.016   9.699 -0.1254 -0.3330  0.3337
  306loPI    C2 4882   7.335  16.723   9.426  0.2869  0.0640 -0.1281
  306loPI    C3 4883   7.517  16.663   9.777  0.2863 -0.2590 -0.1799
  306loPI   PO4 4884   7.490  17.205   9.565 -0.0830 -0.0041 -0.0632
  306loPI   GL1 4885   7.466  17.134   9.134 -0.0809  0.0788  0.2715
  306loPI   GL2 4886   7.514  17.480   9.145 -0.1365 -0.2207 -0.1550
  306loPI   C1A 4887   7.339  17.232   8.692 -0.1459  0.1384 -0.2867
  306loPI   C2A 4888   7.392  17.145   8.263 -0.1224  0.1173  0.3370
  306loPI   C3A 4889   7.278  17.303   7.946 -0.0613  0.2505  0.1188
  306loPI   C4A 4890   7.354  17.450   7.645  0.0175  0.4244  0.0690
  306loPI   C5A 4891   7.083  17.544   7.277  0.0892 -0.1992 -0.0945
  306loPI   C6A 4892   6.779  17.907   7.130  0.0859 -0.3505  0.1717
  306loPI   C1B 4893   7.539  17.678   8.866  0.1601 -0.0837  0.1728
  306loPI   C2B 4894   7.568  17.650   8.394  0.1002  0.1072 -0.0372
  306loPI   C3B 4895   7.531  17.731   7.984  0.1943  0.2916 -0.3151
  306loPI   C4B 4896   7.626  17.920   7.666 -0.1397  0.2169  0.1002
  307loPI    C1 4897   8.841   9.739   9.819  0.0511  0.0793 -0.0211
  307loPI    C2 4898   8.445   9.718   9.766  0.0611 -0.1965 -0.0063
  307loPI    C3 4899   8.595   9.914  10.081 -0.0575  0.0172 -0.0810
  307loPI   PO4 4900   8.910   9.735   9.519 -0.2044  0.1152  0.1754
  307loPI   GL1 4901   8.959   9.451   9.190 -0.0168 -0.2084 -0.0632
  307loPI   GL2 4902   9.268   9.321   9.019 -0.1826 -0.1365 -0.2376
  307loPI   C1A 4903   8.655   9.249   8.895  0.1276 -0.0409  0.1176
  307loPI   C2A 4904   8.666   9.161   8.455 -0.0706 -0.0640 -0.0237
  307loPI   C3A 4905   8.634   9.224   8.088 -0.0554 -0.0653 -0.0026
  307loPI   C4A 4906   8.515   9.060   7.615 -0.2847  0.1399 -0.1594
  307loPI   C5A 4907   8.378   9.226   7.211  0.3148  0.1253 -0.2690
  307loPI   C6A 4908   8.202   9.520   7.007  0.0857  0.0671  0.0172
  307loPI   C1B 4909   9.211   9.248   8.595 -0.1957  0.1820 -0.1024
  307loPI   C2B 4910   9.146   9.177   8.115  0.0036 -0.1822 -0.3489
  307loPI   C3B 4911   9.006   9.145   7.800 -0.0465  0.0316 -0.1248
  307loPI   C4B 4912   8.964   8.806   7.539  0.2357 -0.1342 -0.2779
  308loPI    C1 4913  18.736   7.979  10.317  0.0383 -0.1292  0.3239
  308loPI    C2 4914  18.744   8.370  10.233  0.3287 -0.1542  0.2252
  308loPI    C3 4915  18.398   8.193  10.328  0.1290  0.0469 -0.1060
  308loPI   PO4 4916  18.837   7.814  10.193  0.0115  0.2318 -0.2261
  308loPI   GL1 4917  18.958   7.913   9.829 -0.2186 -0.1780  0.0213
  308loPI   GL2 4918  19.270   7.739   9.775  0.2234 -0.1866  0.1101
  308loPI   C1A 4919  18.807   8.250   9.644 -0.0494  0.1377 -0.1100
  308loPI   C2A 4920  18.857   8.310   9.208  0.3191 -0.0799 -0.2704
  308loPI   C3A 4921  18.882   8.264   8.783 -0.0190  0.2597 -0.2037
  308loPI   C4A 4922  18.984   8.261   8.383 -0.3858 -0.3447  0.3582
  308loPI   C5A 4923  18.817   8.173   7.980 -0.0615  0.6240  0.0980
  308loPI   C6A 4924  18.450   8.249   7.758 -0.3446 -0.3153  0.0710
  308loPI   C1B 4925  19.166   7.944   9.379 -0.0522 -0.0898 -0.2968
  308loPI   C2B 4926  19.185   7.857   8.999  0.1739  0.0985  0.2154
  308loPI   C3B 4927  19.290   7.746   8.557 -0.0100 -0.0376  0.1614
  308loPI   C4B 4928  19.231   7.837   8.137  0.1814 -0.2552  0.1681
  309loPI    C1 4929  11.397  15.166  10.138  0.0005  0.1103 -0.0975
  309loPI    C2 4930  11.661  15.009  10.395  0.2428  0.2735 -0.2426
  309loPI    C3 4931  11.281  14.885  10.398  0.2986  0.1012  0.0305
  309loPI   PO4 4932  11.433  15.151   9.947 -0.0978  0.2204 -0.0552
  309loPI   GL1 4933  11.443  15.494   9.669  0.0664  0.2600  0.0169
  309loPI   GL2 4934  11.745  15.732   9.710  0.1524 -0.0833 -0.2543
  309loPI   C1A 4935  11.439  15.601   9.269  0.0284 -0.1025 -0.3616
  309loPI   C2A 4936  11.485  15.671   8.836 -0.1012  0.2632 -0.3779
  309loPI   C3A 4937  11.489  15.647   8.429 -0.5563  0.1597 -0.2278
  309loPI   C4A 4938  11.475  15.717   7.934  0.0107  0.0189  0.3813
  309loPI   C5A 4939  11.135  15.902   7.681 -0.2016 -0.3047  0.2299
  309loPI   C6A 4940  10.825  15.977   7.358  0.0028 -0.0303  0.0953
  309loPI   C1B 4941  12.012  15.746   9.367 -0.2515 -0.2732  0.1303
  309loPI   C2B 4942  11.929  15.770   8.973  0.0641  0.0658  0.1749
  309loPI   C3B 4943  12.004  15.754   8.597  0.0727  0.0734  0.0975
  309loPI   C4B 4944  11.955  15.723   8.148  0.0858 -0.1332  0.1973
  310loPI    C1 4945  13.451   2.802  10.468  0.1978  0.1432  0.0357
  310loPI    C2 4946  13.297   2.806  10.837  0.1458  0.2329  0.0133
  310loPI    C3 4947  13.642   2.618  10.767  0.0545  0.0427  0.0667
  310loPI   PO4 4948  13.274   2.777  10.263  0.0990 -0.0751 -0.2099
  310loPI   GL1 4949  13.047   2.911   9.923 -0.0057  0.1470 -0.0334
  310loPI   GL2 4950  12.944   3.198   9.867 -0.1924 -0.0604  0.1405
  310loPI   C1A 4951  13.087   2.803   9.473  0.0700  0.2146  0.2174
  310loPI   C2A 4952  13.177   2.887   9.066 -0.0489  0.0407  0.2130
  310loPI   C3A 4953  13.150   2.873   8.587 -0.1584  0.0557 -0.1399
  310loPI   C4A 4954  13.120   3.000   8.160  0.3418 -0.3151 -0.0476
  310loPI   C5A 4955  13.449   3.208   7.815 -0.0839 -0.1921 -0.0549
  310loPI   C6A 4956  13.762   3.238   7.745 -0.0295 -0.0620 -0.0616
  310loPI   C1B 4957  12.988   3.325   9.412 -0.0620 -0.2019 -0.2658
  310loPI   C2B 4958  12.841   3.306   8.921 -0.1782  0.0777 -0.0708
  310loPI   C3B 4959  12.766   3.390   8.508 -0.3050  0.0947  0.0571
  310loPI   C4B 4960  12.880   3.485   8.082 -0.3694 -0.2266  0.0535
  311loPI    C1 4961   6.340   5.621  10.397 -0.0469  0.0250 -0.0144
  311loPI    C2 4962   6.383   5.241  10.513 -0.1490  0.0185  0.0033
  311loPI    C3 4963   6.554   5.535  10.724 -0.1942 -0.0061  0.0744
  311loPI   PO4 4964   6.356   5.603  10.112  0.2007  0.1947  0.0160
  311loPI   GL1 4965   6.405   5.687   9.679  0.3398  0.0017  0.1555
  311loPI   GL2 4966   6.652   5.810   9.720 -0.0721 -0.2856  0.2002
  311loPI   C1A 4967   6.310   5.382   9.375  0.1212  0.2859 -0.0801
  311loPI   C2A 4968   6.203   5.372   8.890 -0.2347  0.1527  0.1251
  311loPI   C3A 4969   6.297   5.328   8.593 -0.1230 -0.0321 -0.1665
  311loPI   C4A 4970   6.244   5.336   8.210  0.2022  0.4304 -0.2447
  311loPI   C5A 4971   6.517   5.215   7.922  0.0160  0.0394 -0.2121
  311loPI   C6A 4972   7.017   5.181   7.881 -0.2069 -0.0358 -0.0567
  311loPI   C1B 4973   6.535   5.979   9.306  0.0777  0.2271  0.1602
  311loPI   C2B 4974   6.358   5.942   8.872 -0.1863 -0.0211  0.2005
  311loPI   C3B 4975   6.511   5.845   8.494 -0.2955 -0.0666  0.0725
  311loPI   C4B 4976   6.521   5.693   8.105 -0.4095 -0.1567  0.3601
  312loPI    C1 4977  12.235  10.087  10.046 -0.0641  0.1124 -0.2491
  312loPI    C2 4978  12.183  10.456  10.193 -0.3188  0.0986 -0.3010
  312loPI    C3 4979  11.954  10.155  10.323  0.2702 -0.1652  0.1709
  312loPI   PO4 4980  12.324  10.129   9.862  0.0549  0.2403 -0.0701
  312loPI   GL1 4981  12.143  10.187   9.496  0.2103 -0.2485 -0.5044
  312loPI   GL2 4982  11.812  10.287   9.241  0.0480  0.0362  0.1123
  312loPI   C1A 4983  12.290  10.343   9.067 -0.1654  0.1057 -0.0975
  312loPI   C2A 4984  12.291  10.336   8.489  0.0560  0.3472 -0.1380
  312loPI   C3A 4985  12.481  10.463   8.015  0.3192 -0.1192  0.0858
  312loPI   C4A 4986  12.575  10.700   7.705  0.0150  0.0451 -0.1756
  312loPI   C5A 4987  12.588  10.822   7.342  0.1948 -0.0221 -0.3688
  312loPI   C6A 4988  12.578  10.833   6.902  0.0852  0.3463 -0.4849
  312loPI   C1B 4989  11.867  10.278   8.760 -0.4197  0.1907 -0.1202
  312loPI   C2B 4990  11.832  10.252   8.384  0.0020 -0.3159  0.1607
  312loPI   C3B 4991  11.869  10.186   7.914  0.0351  0.0554 -0.1766
  312loPI   C4B 4992  12.015  10.348   7.572  0.1627 -0.0266 -0.0421
  313loPI    C1 4993  14.620   5.478  10.396 -0.1797  0.0346 -0.0696
  313loPI    C2 4994  14.398   5.479  10.729 -0.1043  0.0914 -0.0193
  313loPI    C3 4995  14.777   5.607  10.741 -0.1714  0.3109 -0.1744
  313loPI   PO4 4996  14.425   5.531  10.247  0.0697 -0.2650 -0.0410
  313loPI   GL1 4997  14.104   5.345   9.898  0.1551  0.2852  0.0642
  313loPI   GL2 4998  13.962   5.173   9.847  0.1272  0.3737  0.0224
  313loPI   C1A 4999  14.378   5.343   9.496 -0.3258  0.1413  0.1838
  313loPI   C2A 5000  14.399   5.318   9.090 -0.1806 -0.1524  0.5617
  313loPI   C3A 5001  14.415   5.344   8.644  0.1105 -0.1085  0.4152
  313loPI   C4A 5002  14.358   5.174   8.150 -0.1259 -0.2174 -0.1082
  313loPI   C5A 5003  14.612   5.170   7.854  0.0083  0.0091  0.1495
  313loPI   C6A 5004  14.956   5.362   7.601  0.0709 -0.1838  0.2857
  313loPI   C1B 5005  13.775   5.290   9.448  0.0080  0.1155 -0.1254
  313loPI   C2B 5006  13.782   5.199   8.957 -0.0179  0.0406 -0.0626
  313loPI   C3B 5007  13.760   5.175   8.571 -0.0801 -0.2273  0.2814
  313loPI   C4B 5008  13.786   5.278   8.146  0.4229 -0.1129  0.1071
  314loPI    C1 5009   1.281  18.834  10.227  0.1396  0.0842  0.1900
  314loPI    C2 5010   1.526  18.573  10.404  0.0160  0.0687  0.3410
  314loPI    C3 5011   1.132  18.506  10.400  0.0184  0.0591  0.0405
  314loPI   PO4 5012   1.367  18.874   9.967 -0.2998  0.1790  0.0768
  314loPI   GL1 5013   1.528  19.165   9.818  0.1623 -0.1604  0.3999
  314loPI   GL2 5014   1.831  19.133   9.557  0.1600 -0.0821 -0.0881
  314loPI   C1A 5015   1.193  19.322   9.448 -0.0143 -0.2843  0.1772
  314loPI   C2A 5016   1.173  19.389   9.018 -0.0109 -0.2419  0.0398
  314loPI   C3A 5017   1.174  19.423   8.558  0.0309 -0.2427 -0.0210
  314loPI   C4A 5018   1.160  19.436   8.103  0.1632 -0.0049 -0.0883
  314loPI   C5A 5019   1.201  19.772   7.768 -0.0735 -0.0737 -0.1610
  314loPI   C6A 5020   0.837  19.953   7.508  0.0669  0.2990 -0.1671
  314loPI   C1B 5021   2.075  19.090   9.201  0.1226 -0.3079 -0.0105
  314loPI   C2B 5022   2.091  18.979   8.711 -0.1228  0.1070 -0.2357
  314loPI   C3B 5023   2.026  19.027   8.402  0.1420  0.0614 -0.0562
  314loPI   C4B 5024   1.934  18.940   7.970  0.1523  0.0307 -0.0619
  315loPI    C1 5025  18.555   0.029  10.340  0.0749 -0.0993 -0.0869
  315loPI    C2 5026  18.550   0.279  10.652 -0.3325 -0.1696 -0.0313
  315loPI    C3 5027  18.776  -0.051  10.663  0.2144  0.1891 -0.1078
  315loPI   PO4 5028  18.584   0.159  10.068 -0.2763  0.1118 -0.2902
  315loPI   GL1 5029  18.929   0.258   9.796 -0.1648 -0.3987 -0.1714
  315loPI   GL2 5030  18.831   0.008   9.580 -0.3917  0.0340  0.1196
  315loPI   C1A 5031  19.153   0.470   9.454  0.0368 -0.0721  0.1487
  315loPI   C2A 5032  19.070   0.565   9.084 -0.2195 -0.1757  0.2671
  315loPI   C3A 5033  19.061   0.455   8.737 -0.1524 -0.1435  0.0951
  315loPI   C4A 5034  18.964   0.484   8.358  0.0699  0.2452 -0.1477
  315loPI   C5A 5035  18.864   0.475   7.859 -0.2602  0.0060 -0.2541
  315loPI   C6A 5036  19.008   0.239   7.425  0.2556  0.1516 -0.1372
  315loPI   C1B 5037  18.866   0.038   9.142 -0.0095 -0.4258  0.0295
  315loPI   C2B 5038  18.729   0.017   8.631  0.3532 -0.0935 -0.4185
  315loPI   C3B 5039  18.795  -0.035   8.251  0.2077 -0.2145  0.4337
  315loPI   C4B 5040  19.125   0.010   7.835 -0.0162 -0.0099 -0.0423
  316loPI    C1 5041  13.470   3.534  10.369 -0.0286 -0.1229  0.1770
  316loPI    C2 5042  13.525   3.363  10.726  0.0753  0.0051  0.2230
  316loPI    C3 5043  13.270   3.669  10.688  0.0524 -0.0188  0.1841
  316loPI   PO4 5044  13.541   3.300  10.229  0.0422  0.0421 -0.0574
  316loPI   GL1 5045  13.862   3.083   9.994  0.1647 -0.2036  0.0246
  316loPI   GL2 5046  13.625   2.930   9.887 -0.0800 -0.0321 -0.0404
  316loPI   C1A 5047  13.900   3.341   9.632 -0.2249 -0.1337  0.0483
  316loPI   C2A 5048  13.966   3.343   9.151  0.2303 -0.1103  0.0928
  316loPI   C3A 5049  13.820   3.403   8.801 -0.0015 -0.1605  0.0992
  316loPI   C4A 5050  13.925   3.458   8.457  0.3145 -0.2374  0.1834
  316loPI   C5A 5051  14.181   3.428   8.118  0.0142 -0.0358  0.0634
  316loPI   C6A 5052  14.643   3.457   8.185  0.0469 -0.1207  0.0131
  316loPI   C1B 5053  13.599   2.852   9.518  0.1557 -0.1416  0.0992
  316loPI   C2B 5054  13.713   2.923   9.136 -0.0706 -0.6576 -0.2158
  316loPI   C3B 5055  13.674   2.876   8.800 -0.0083 -0.1243  0.0190
  316loPI   C4B 5056  13.585   3.014   8.422 -0.1941  0.2739  0.1757
  317loPI    C1 5057   9.737   2.847  10.249 -0.0746 -0.0325 -0.0055
  317loPI    C2 5058  10.122   2.802  10.349 -0.1466 -0.0726  0.2608
  317loPI    C3 5059   9.890   3.056  10.553 -0.2762 -0.0912  0.1384
  317loPI   PO4 5060   9.719   2.889   9.943  0.1799  0.1841  0.0564
  317loPI   GL1 5061   9.917   3.101   9.630 -0.0250  0.0056 -0.4503
  317loPI   GL2 5062  10.172   3.382   9.596  0.0555 -0.0659  0.1759
  317loPI   C1A 5063   9.726   3.318   9.248  0.0616 -0.1585  0.2032
  317loPI   C2A 5064   9.671   3.265   8.782 -0.1329  0.2739  0.5505
  317loPI   C3A 5065   9.728   3.301   8.309  0.1227 -0.0071 -0.0946
  317loPI   C4A 5066   9.844   3.343   7.884 -0.1416 -0.0349 -0.1125
  317loPI   C5A 5067   9.884   3.156   7.522 -0.0308  0.1174 -0.1098
  317loPI   C6A 5068   9.750   3.394   7.119  0.2206  0.4480 -0.3029
  317loPI   C1B 5069  10.260   3.259   9.306 -0.1150 -0.1925 -0.3135
  317loPI   C2B 5070  10.198   3.286   8.861  0.3319  0.0099 -0.3032
  317loPI   C3B 5071  10.243   3.230   8.409  0.2406  0.0584  0.0375
  317loPI   C4B 5072  10.363   3.396   8.026  0.0144 -0.0301 -0.1652
  318loPI    C1 5073  11.930  17.015  10.389  0.0785  0.2355  0.1318
  318loPI    C2 5074  11.548  17.000  10.506  0.0392  0.1368 -0.0059
  318loPI    C3 5075  11.832  16.833  10.732 -0.0719 -0.3209 -0.1922
  318loPI   PO4 5076  12.012  16.881  10.084  0.3240  0.5164  0.0021
  318loPI   GL1 5077  11.793  17.158   9.694 -0.1052  0.2110 -0.5028
  318loPI   GL2 5078  12.157  17.230   9.662  0.0940  0.0844 -0.1093
  318loPI   C1A 5079  11.679  17.064   9.349 -0.0711  0.2368 -0.3400
  318loPI   C2A 5080  11.733  17.080   8.939 -0.1878 -0.0016  0.0125
  318loPI   C3A 5081  11.627  17.180   8.536 -0.4583  0.1139  0.0001
  318loPI   C4A 5082  11.619  17.215   7.997 -0.1632  0.0620 -0.1708
  318loPI   C5A 5083  11.649  17.559   7.701  0.0233  0.0782  0.0647
  318loPI   C6A 5084  11.705  17.951   7.634  0.1956 -0.2820  0.1775
  318loPI   C1B 5085  12.157  17.125   9.257  0.0840  0.0387 -0.2198
  318loPI   C2B 5086  12.166  17.132   8.728  0.1038  0.1782 -0.1732
  318loPI   C3B 5087  12.126  17.134   8.297 -0.0641 -0.0683 -0.0498
  318loPI   C4B 5088  12.149  17.283   7.922 -0.2020 -0.1381  0.3166
  319loPI    C1 5089  14.286   1.554  10.757  0.0252 -0.0604  0.2304
  319loPI    C2 5090  13.987   1.309  10.654  0.0752 -0.0735  0.1141
  319loPI    C3 5091  14.214   1.226  10.973  0.0605 -0.1522  0.1044
  319loPI   PO4 5092  14.407   1.601  10.563 -0.0773 -0.1634 -0.1637
  319loPI   GL1 5093  14.230   1.685  10.026  0.2771 -0.0761  0.2768
  319loPI   GL2 5094  14.514   1.551  10.088  0.0977 -0.0786  0.2200
  319loPI   C1A 5095  14.186   2.000   9.722 -0.0867  0.3714  0.0696
  319loPI   C2A 5096  14.253   2.007   9.243  0.0032 -0.2259  0.4153
  319loPI   C3A 5097  14.171   2.071   8.793 -0.0549 -0.1114  0.0453
  319loPI   C4A 5098  14.449   1.965   8.454  0.0388  0.2130  0.1823
  319loPI   C5A 5099  14.551   2.155   7.978 -0.1777 -0.1071  0.0581
  319loPI   C6A 5100  14.463   2.514   7.704  0.3503  0.3786  0.1774
  319loPI   C1B 5101  14.516   1.589   9.633  0.0584  0.1509 -0.0626
  319loPI   C2B 5102  14.527   1.615   9.174  0.0463 -0.4561 -0.1016
  319loPI   C3B 5103  14.592   1.542   8.697 -0.1616 -0.1286 -0.0343
  319loPI   C4B 5104  14.774   1.606   8.182 -0.2078  0.1117 -0.6222
  320loPI    C1 5105  10.951   1.457   9.930  0.1177 -0.3115 -0.0711
  320loPI    C2 5106  11.349   1.425   9.951  0.1124 -0.3121  0.0362
  320loPI    C3 5107  11.131   1.427  10.286  0.0412 -0.0628 -0.0091
  320loPI   PO4 5108  10.904   1.329   9.708 -0.0398  0.2859 -0.2794
  320loPI   GL1 5109  10.877   1.500   9.232  0.0294  0.0230 -0.3425
  320loPI   GL2 5110  10.995   1.870   9.209  0.1780 -0.0217 -0.3995
  320loPI   C1A 5111  10.900   1.333   8.911  0.2168  0.6053  0.0788
  320loPI   C2A 5112  10.925   1.340   8.513 -0.5208  0.3680  0.0361
  320loPI   C3A 5113  10.870   1.452   8.078  0.3475 -0.2990 -0.0854
  320loPI   C4A 5114  11.014   1.410   7.677 -0.1686  0.0392  0.2332
  320loPI   C5A 5115  10.930   1.114   7.302 -0.1577  0.2674  0.0790
  320loPI   C6A 5116  11.117   1.008   6.773 -0.0580 -0.0371  0.1133
  320loPI   C1B 5117  11.096   1.836   8.827 -0.2327 -0.2247  0.3513
  320loPI   C2B 5118  11.126   1.825   8.370 -0.2240  0.1598 -0.1230
  320loPI   C3B 5119  11.145   1.946   7.996  0.0263 -0.1738  0.1002
  320loPI   C4B 5120  11.163   1.938   7.616 -0.0016  0.1019  0.1599
  321loPI    C1 5121  10.429  15.454  10.064  0.0725  0.2265 -0.0566
  321loPI    C2 5122  10.090  15.257  10.143  0.2021  0.0857  0.1601
  321loPI    C3 5123  10.177  15.592  10.343  0.1209  0.2059 -0.0027
  321loPI   PO4 5124  10.460  15.437   9.807  0.1299 -0.0411 -0.3089
  321loPI   GL1 5125  10.619  15.288   9.374 -0.0799  0.0967 -0.2313
  321loPI   GL2 5126  10.908  15.312   9.260  0.1094 -0.0818 -0.1965
  321loPI   C1A 5127  10.520  15.607   9.056 -0.4863  0.1473  0.0959
  321loPI   C2A 5128  10.443  15.632   8.648 -0.1152 -0.0264 -0.0993
  321loPI   C3A 5129  10.397  15.651   8.242  0.0300  0.1942 -0.0349
  321loPI   C4A 5130  10.230  15.414   7.768 -0.2865  0.1671 -0.0556
  321loPI   C5A 5131  10.323  15.086   7.524  0.0346  0.1483  0.2596
  321loPI   C6A 5132  10.327  14.836   7.194 -0.0798  0.2272  0.0223
  321loPI   C1B 5133  10.760  15.234   8.805  0.0795  0.1575  0.2418
  321loPI   C2B 5134  10.758  15.268   8.330 -0.0896 -0.0739 -0.1068
  321loPI   C3B 5135  10.611  15.224   7.969  0.0535  0.1873  0.4266
  321loPI   C4B 5136  10.640  15.519   7.548 -0.1958 -0.2460 -0.1682
  322loPI    C1 5137   2.645  11.134  10.199 -0.1737  0.0619 -0.0087
  322loPI    C2 5138   2.387  10.857  10.071 -0.1829  0.0569  0.0206
  322loPI    C3 5139   2.252  11.212  10.198 -0.1724  0.0687 -0.0012
  322loPI   PO4 5140   2.880  11.058  10.151  0.0345  0.2315 -0.1853
  322loPI   GL1 5141   3.057  11.079   9.775  0.2608 -0.1856 -0.2019
  322loPI   GL2 5142   2.790  10.785   9.786 -0.1226 -0.3605  0.1116
  322loPI   C1A 5143   3.071  11.193   9.409  0.0241 -0.2074  0.2989
  322loPI   C2A 5144   3.052  11.160   8.900 -0.0356 -0.2161  0.1954
  322loPI   C3A 5145   3.168  11.300   8.403  0.0180 -0.3236  0.0493
  322loPI   C4A 5146   2.996  11.121   7.943  0.0045  0.2102 -0.1953
  322loPI   C5A 5147   2.864  11.244   7.538  0.1639  0.3996 -0.0837
  322loPI   C6A 5148   2.920  11.388   7.087 -0.3675  0.0287  0.0597
  322loPI   C1B 5149   2.751  10.745   9.337 -0.1431 -0.1874  0.0838
  322loPI   C2B 5150   2.831  10.745   8.855  0.2046 -0.4062 -0.0918
  322loPI   C3B 5151   2.917  10.816   8.476  0.2737  0.1350  0.4006
  322loPI   C4B 5152   2.697  10.731   7.980 -0.0086  0.0624  0.1735
  323loPI    C1 5153  17.994   3.605  10.787  0.1232 -0.0060 -0.1417
  323loPI    C2 5154  18.114   3.238  10.684  0.0920 -0.1727  0.3830
  323loPI    C3 5155  18.017   3.317  11.064 -0.1826  0.3071  0.2224
  323loPI   PO4 5156  18.031   3.683  10.527  0.0099 -0.1057  0.1305
  323loPI   GL1 5157  18.212   3.625  10.131 -0.2088 -0.1852 -0.3861
  323loPI   GL2 5158  18.301   3.316  10.232  0.0594 -0.2117  0.2376
  323loPI   C1A 5159  18.028   3.681   9.744 -0.1950 -0.2472  0.0939
  323loPI   C2A 5160  18.006   3.799   9.331 -0.1671  0.1401  0.0667
  323loPI   C3A 5161  18.158   3.637   8.997 -0.1755 -0.0077  0.0129
  323loPI   C4A 5162  18.144   3.581   8.609 -0.0093 -0.0730  0.2690
  323loPI   C5A 5163  17.966   3.429   8.178 -0.1041  0.3381  0.0589
  323loPI   C6A 5164  17.875   3.056   8.158  0.2417  0.0229  0.0144
  323loPI   C1B 5165  18.353   3.271   9.799 -0.0908  0.0411  0.4351
  323loPI   C2B 5166  18.321   3.344   9.378 -0.2649 -0.1338  0.0502
  323loPI   C3B 5167  18.423   3.184   9.007  0.2257 -0.0480  0.2750
  323loPI   C4B 5168  18.510   3.184   8.601  0.1299  0.2145  0.0190
  324loPI    C1 5169   6.024  13.837   9.875 -0.1212  0.0704 -0.0515
  324loPI    C2 5170   6.119  13.768  10.257 -0.0746  0.0552 -0.0657
  324loPI    C3 5171   5.867  14.065  10.164 -0.2955 -0.1096 -0.0022
  324loPI   PO4 5172   6.303  13.789   9.765 -0.2814  0.2529 -0.1783
  324loPI   GL1 5173   6.515  13.934   9.473 -0.0017 -0.0433  0.0131
  324loPI   GL2 5174   6.739  13.704   9.404  0.0809 -0.2871  0.3933
  324loPI   C1A 5175   6.272  14.048   9.219  0.2499 -0.0245 -0.1885
  324loPI   C2A 5176   6.166  14.000   8.837  0.0128 -0.2414 -0.0169
  324loPI   C3A 5177   6.244  14.068   8.448  0.1566 -0.2355 -0.0039
  324loPI   C4A 5178   6.066  14.054   8.005  0.2439  0.1088  0.1078
  324loPI   C5A 5179   6.078  14.070   7.495 -0.1525  0.0126 -0.2103
  324loPI   C6A 5180   6.231  13.997   7.089  0.0680  0.0663 -0.2357
  324loPI   C1B 5181   6.540  13.610   9.002 -0.3113 -0.0641 -0.2704
  324loPI   C2B 5182   6.459  13.569   8.659 -0.0446  0.2314  0.2052
  324loPI   C3B 5183   6.379  13.565   8.270  0.0201 -0.3049  0.2013
  324loPI   C4B 5184   6.316  13.625   7.845  0.1903  0.1020  0.1886
  325loPI    C1 5185  15.736  11.796  10.679  0.0203  0.1291 -0.2732
  325loPI    C2 5186  15.960  12.038  10.905 -0.0372  0.2822 -0.3782
  325loPI    C3 5187  16.122  11.712  10.739 -0.0367  0.0704  0.0255
  325loPI   PO4 5188  15.660  11.910  10.507 -0.1569  0.3381 -0.2411
  325loPI   GL1 5189  15.707  11.833  10.132 -0.1040  0.2412  0.0736
  325loPI   GL2 5190  15.962  11.665  10.120 -0.2100 -0.2907 -0.2123
  325loPI   C1A 5191  15.645  11.860   9.742  0.2801 -0.1207 -0.1785
  325loPI   C2A 5192  15.637  11.908   9.249 -0.2262  0.0472 -0.0833
  325loPI   C3A 5193  15.600  11.862   8.873  0.2043 -0.0152 -0.1645
  325loPI   C4A 5194  15.701  12.004   8.358 -0.1504  0.1045  0.0076
  325loPI   C5A 5195  15.884  12.164   8.009 -0.2762 -0.0097  0.1326
  325loPI   C6A 5196  15.860  12.391   7.649 -0.0100  0.0093 -0.2173
  325loPI   C1B 5197  15.899  11.382   9.808 -0.0733  0.0603  0.0435
  325loPI   C2B 5198  15.865  11.403   9.426  0.1424  0.0645 -0.0122
  325loPI   C3B 5199  15.921  11.462   8.982  0.2473 -0.2035 -0.0447
  325loPI   C4B 5200  15.922  11.536   8.552  0.1033 -0.1719 -0.1308
  326loPI    C1 5201   4.416  10.603  10.455 -0.1393  0.1594  0.0305
  326loPI    C2 5202   4.029  10.521  10.515 -0.1334  0.2446  0.1882
  326loPI    C3 5203   4.293  10.466  10.810 -0.0557  0.3752  0.1437
  326loPI   PO4 5204   4.390  10.668  10.215 -0.0817  0.1086  0.0361
  326loPI   GL1 5205   4.160  10.630   9.821  0.0296 -0.0714  0.0708
  326loPI   GL2 5206   4.428  10.866   9.715 -0.0481  0.0310  0.0867
  326loPI   C1A 5207   4.149  10.505   9.456 -0.3451 -0.0433 -0.1477
  326loPI   C2A 5208   4.207  10.335   9.097  0.4502  0.2599 -0.2293
  326loPI   C3A 5209   4.178  10.352   8.661  0.0794 -0.1383  0.0724
  326loPI   C4A 5210   4.175  10.296   8.246 -0.4960 -0.1082 -0.2199
  326loPI   C5A 5211   4.157  10.215   7.740 -0.1934  0.0392  0.2061
  326loPI   C6A 5212   4.521  10.158   7.539  0.1031  0.1855  0.1290
  326loPI   C1B 5213   4.419  10.923   9.233  0.1251 -0.2456 -0.1003
  326loPI   C2B 5214   4.379  10.909   8.763  0.0726  0.0020  0.1591
  326loPI   C3B 5215   4.424  10.758   8.380 -0.3124 -0.2898  0.1303
  326loPI   C4B 5216   4.270  10.697   7.900  0.1565 -0.1089 -0.0974
  327loPI    C1 5217   8.468   7.242  10.199  0.0210 -0.4195  0.2244
  327loPI    C2 5218   8.800   7.461  10.244 -0.1069 -0.0666 -0.4270
  327loPI    C3 5219   8.731   7.149  10.485  0.3124  0.3164  0.2159
  327loPI   PO4 5220   8.442   7.159   9.996 -0.1748  0.2567 -0.0213
  327loPI   GL1 5221   8.201   7.238   9.681 -0.0248 -0.0792  0.1741
  327loPI   GL2 5222   8.103   7.546   9.734  0.1646  0.1050 -0.0961
  327loPI   C1A 5223   8.178   7.321   9.290  0.0192  0.0217 -0.2547
  327loPI   C2A 5224   8.152   7.337   8.866 -0.1103 -0.0400 -0.3213
  327loPI   C3A 5225   8.219   7.224   8.546 -0.0116  0.0151  0.2248
  327loPI   C4A 5226   8.318   7.291   8.110  0.2777  0.2271  0.2428
  327loPI   C5A 5227   8.195   7.466   7.762  0.1064 -0.2265 -0.1173
  327loPI   C6A 5228   8.186   7.811   7.558 -0.0385 -0.1337 -0.1087
  327loPI   C1B 5229   7.953   7.736   9.302 -0.1497  0.3531 -0.1432
  327loPI   C2B 5230   7.839   7.722   8.931 -0.5077  0.0830  0.0880
  327loPI   C3B 5231   7.928   7.849   8.522  0.0452  0.0715  0.4751
  327loPI   C4B 5232   8.018   7.829   8.007 -0.1219 -0.0867 -0.0021
  328loPI    C1 5233  18.115  12.832  10.692 -0.4750  0.0895  0.2247
  328loPI    C2 5234  17.993  13.211  10.728 -0.2933  0.1444  0.2669
  328loPI    C3 5235  18.304  13.079  10.942 -0.1109  0.0786 -0.0326
  328loPI   PO4 5236  18.060  12.794  10.437 -0.1857  0.0821  0.0177
  328loPI   GL1 5237  18.197  12.879  10.066  0.2892 -0.2643 -0.2052
  328loPI   GL2 5238  18.319  13.162   9.943  0.0498  0.2585  0.1155
  328loPI   C1A 5239  18.278  12.783   9.616  0.0809 -0.3136  0.4777
  328loPI   C2A 5240  18.229  12.704   9.104  0.2890 -0.1634  0.0906
  328loPI   C3A 5241  18.158  12.808   8.746 -0.1307  0.0838 -0.0985
  328loPI   C4A 5242  18.112  13.033   8.503  0.2075 -0.3842  0.1859
  328loPI   C5A 5243  18.008  13.099   8.032  0.0261  0.1487  0.3434
  328loPI   C6A 5244  17.699  13.193   7.874  0.0142 -0.1372 -0.2392
  328loPI   C1B 5245  18.455  13.374   9.554  0.3241  0.3273  0.0158
  328loPI   C2B 5246  18.474  13.291   9.171 -0.0806 -0.2007 -0.0087
  328loPI   C3B 5247  18.403  13.393   8.746  0.1576  0.0992 -0.4317
  328loPI   C4B 5248  18.381  13.420   8.363  0.1189  0.1310 -0.0167
  329loPI    C1 5249  13.872  16.970  10.788  0.0647 -0.0792 -0.1347
  329loPI    C2 5250  14.214  16.947  10.994  0.1306  0.0362 -0.2303
  329loPI    C3 5251  13.888  16.757  11.126  0.2051  0.0076 -0.0861
  329loPI   PO4 5252  14.036  16.966  10.533 -0.1169  0.0577 -0.1377
  329loPI   GL1 5253  13.879  16.892  10.055 -0.1722  0.2043  0.1167
  329loPI   GL2 5254  14.189  16.808   9.979 -0.0457  0.1301  0.2592
  329loPI   C1A 5255  13.829  17.136   9.593 -0.0298  0.0782 -0.1566
  329loPI   C2A 5256  13.720  17.143   9.176  0.0056 -0.1361 -0.0481
  329loPI   C3A 5257  13.694  17.222   8.821 -0.0447 -0.0794  0.1149
  329loPI   C4A 5258  13.747  17.209   8.396  0.1901 -0.2335  0.0047
  329loPI   C5A 5259  13.798  17.280   7.976  0.1751  0.1084 -0.0929
  329loPI   C6A 5260  13.549  17.432   7.589  0.0720  0.1981  0.1673
  329loPI   C1B 5261  14.170  16.779   9.660 -0.0484 -0.1905  0.2456
  329loPI   C2B 5262  14.063  16.782   9.336  0.0527 -0.0642  0.1462
  329loPI   C3B 5263  13.980  16.851   8.790 -0.0066  0.0661 -0.2787
  329loPI   C4B 5264  14.033  16.717   8.416  0.1941 -0.1411  0.0160
  330loPI    C1 5265   5.437   3.979  10.755 -0.2968  0.0255  0.0313
  330loPI    C2 5266   5.362   4.291  10.994  0.2539 -0.0554  0.3287
  330loPI    C3 5267   5.324   3.918  11.134 -0.0816 -0.1227  0.0735
  330loPI   PO4 5268   5.321   3.943  10.567 -0.1898 -0.2823  0.4531
  330loPI   GL1 5269   5.348   4.043  10.104 -0.2373 -0.0737  0.3761
  330loPI   GL2 5270   5.599   3.892  10.067 -0.5548 -0.6265  0.0784
  330loPI   C1A 5271   5.167   4.305   9.768 -0.3997  0.2716 -0.0047
  330loPI   C2A 5272   5.313   4.394   9.391  0.0555 -0.1343  0.1143
  330loPI   C3A 5273   5.238   4.356   8.996 -0.0043 -0.1942  0.0384
  330loPI   C4A 5274   5.245   4.427   8.642 -0.0575  0.0581  0.1386
  330loPI   C5A 5275   5.232   4.427   8.198 -0.0080  0.0230 -0.0006
  330loPI   C6A 5276   5.295   4.188   7.846 -0.0611  0.2487 -0.3179
  330loPI   C1B 5277   5.559   3.991   9.596  0.1750  0.0734 -0.0863
  330loPI   C2B 5278   5.490   3.932   9.133 -0.0331 -0.2366  0.1311
  330loPI   C3B 5279   5.570   3.934   8.766 -0.0177  0.2691 -0.3040
  330loPI   C4B 5280   5.431   4.030   8.293  0.0072  0.0501  0.1167
  331loPI    C1 5281   7.688   1.001  10.437 -0.0297 -0.0843 -0.0030
  331loPI    C2 5282   7.353   1.079  10.642 -0.0056 -0.0079  0.0080
  331loPI    C3 5283   7.655   1.341  10.646 -0.0489  0.0477 -0.2178
  331loPI   PO4 5284   7.600   0.923  10.232  0.2218  0.2134  0.3775
  331loPI   GL1 5285   7.398   0.676   9.759  0.0149 -0.3098  0.0824
  331loPI   GL2 5286   7.706   0.799   9.701 -0.2198 -0.0455  0.2128
  331loPI   C1A 5287   7.502   0.715   9.235  0.0179  0.0183  0.1613
  331loPI   C2A 5288   7.502   0.854   8.773  0.0943 -0.3523  0.0547
  331loPI   C3A 5289   7.427   0.886   8.376 -0.0451 -0.1427  0.1942
  331loPI   C4A 5290   7.441   0.971   8.014 -0.1858  0.2260  0.0426
  331loPI   C5A 5291   7.764   1.099   7.724 -0.1578  0.1536  0.2048
  331loPI   C6A 5292   8.050   1.042   7.389 -0.3205 -0.0562  0.0156
  331loPI   C1B 5293   8.024   0.739   9.470  0.0810 -0.0448 -0.0203
  331loPI   C2B 5294   8.021   0.805   9.093 -0.0523  0.0953  0.1394
  331loPI   C3B 5295   8.032   0.884   8.630  0.1778  0.2604  0.0680
  331loPI   C4B 5296   7.978   0.943   8.163 -0.0398  0.0327 -0.0058
  332loPI    C1 5297  11.088  13.307   9.764 -0.1509 -0.1669 -0.1298
  332loPI    C2 5298  11.333  13.009   9.872 -0.0245  0.0056  0.0693
  332loPI    C3 5299  11.110  13.194  10.147 -0.1247  0.0762 -0.0578
  332loPI   PO4 5300  11.082  13.407   9.566 -0.3067 -0.0668  0.1043
  332loPI   GL1 5301  10.944  13.401   9.174 -0.0602  0.3490  0.0756
  332loPI   GL2 5302  10.871  13.139   9.180 -0.3818  0.0423 -0.2995
  332loPI   C1A 5303  11.243  13.288   8.773  0.0352  0.0335  0.2510
  332loPI   C2A 5304  11.154  12.999   8.516 -0.1101  0.0499  0.0186
  332loPI   C3A 5305  11.124  12.863   8.162 -0.2339 -0.0190  0.2012
  332loPI   C4A 5306  11.236  12.718   7.715  0.0565  0.1754  0.2420
  332loPI   C5A 5307  11.224  12.439   7.361  0.1460  0.0131  0.1429
  332loPI   C6A 5308  11.034  12.263   6.992 -0.0039 -0.0250  0.0291
  332loPI   C1B 5309  10.708  13.032   8.742 -0.2072 -0.1118 -0.3079
  332loPI   C2B 5310  10.634  12.932   8.286 -0.0633 -0.3942  0.0380
  332loPI   C3B 5311  10.683  12.672   7.846  0.2040 -0.2473 -0.0248
  332loPI   C4B 5312  10.755  12.585   7.518  0.0695  0.2592  0.4947
  333loPI    C1 5313  15.152  14.340  11.062  0.0394 -0.0026  0.0358
  333loPI    C2 5314  14.869  14.539  10.861 -0.0070 -0.0357  0.0682
  333loPI    C3 5315  14.774  14.338  11.194  0.1048  0.1790  0.2320
  333loPI   PO4 5316  15.251  14.233  10.804 -0.3043  0.0813  0.1146
  333loPI   GL1 5317  15.150  13.910  10.479 -0.2649 -0.1782 -0.3600
  333loPI   GL2 5318  15.271  13.508  10.395 -0.0966  0.0704 -0.0800
  333loPI   C1A 5319  14.927  13.865  10.082  0.1901  0.0868  0.3346
  333loPI   C2A 5320  14.903  13.708   9.711 -0.1096  0.1489 -0.1013
  333loPI   C3A 5321  14.942  13.686   9.308  0.1293 -0.0602  0.1543
  333loPI   C4A 5322  15.077  13.743   8.907 -0.1609  0.2031 -0.1528
  333loPI   C5A 5323  14.991  13.788   8.524 -0.0728  0.3480  0.1007
  333loPI   C6A 5324  15.170  14.007   8.302  0.0829 -0.0364 -0.0343
  333loPI   C1B 5325  15.242  13.409   9.927 -0.1777  0.2166  0.3253
  333loPI   C2B 5326  15.203  13.171   9.486  0.0738 -0.2684  0.0457
  333loPI   C3B 5327  15.281  13.321   9.108 -0.1253  0.0656  0.2137
  333loPI   C4B 5328  15.248  13.338   8.651  0.2052  0.3429  0.0506
  334loPI    C1 5329   9.181   5.962  10.525 -0.0922  0.1945 -0.0747
  334loPI    C2 5330   8.924   6.268  10.526 -0.0283  0.2484  0.0737
  334loPI    C3 5331   9.247   6.277  10.762 -0.0687  0.0306  0.1399
  334loPI   PO4 5332   9.095   5.827  10.309 -0.0138  0.2330 -0.5027
  334loPI   GL1 5333   9.271   5.756   9.880 -0.2976  0.3830  0.0036
  334loPI   GL2 5334   9.509   5.635   9.717 -0.3160  0.0771 -0.4608
  334loPI   C1A 5335   9.160   5.970   9.502  0.0867 -0.1372 -0.1896
  334loPI   C2A 5336   9.032   6.001   9.125  0.2145 -0.1321 -0.0143
  334loPI   C3A 5337   8.978   5.984   8.643  0.3689 -0.4097 -0.0248
  334loPI   C4A 5338   9.169   6.105   8.283 -0.1565 -0.2866 -0.0734
  334loPI   C5A 5339   9.100   6.195   7.754  0.0880  0.0432  0.5894
  334loPI   C6A 5340   9.008   6.392   7.354 -0.0459 -0.1836  0.1111
  334loPI   C1B 5341   9.308   5.534   9.253 -0.1474  0.3235  0.1314
  334loPI   C2B 5342   9.240   5.631   8.839  0.0347 -0.1601 -0.1012
  334loPI   C3B 5343   9.314   5.618   8.432  0.2092 -0.0023  0.2580
  334loPI   C4B 5344   9.345   5.751   7.947  0.0763  0.2511 -0.3011
  335loPI    C1 5345  17.451  14.720  10.346 -0.0418 -0.1107  0.0165
  335loPI    C2 5346  17.201  14.717  10.658 -0.1794 -0.2353 -0.0935
  335loPI    C3 5347  17.071  14.838  10.299 -0.0665 -0.2468 -0.1384
  335loPI   PO4 5348  17.558  14.454  10.341 -0.2574  0.2015  0.1650
  335loPI   GL1 5349  17.319  14.221  10.049 -0.1417  0.0900 -0.0939
  335loPI   GL2 5350  17.175  14.450  10.006 -0.2586  0.0399 -0.0869
  335loPI   C1A 5351  17.404  14.182   9.675  0.0991  0.1127 -0.3141
  335loPI   C2A 5352  17.353  14.150   9.259  0.0534  0.0083  0.2953
  335loPI   C3A 5353  17.420  14.148   8.853  0.0758 -0.0075  0.1335
  335loPI   C4A 5354  17.297  14.163   8.517  0.2107  0.1829  0.0892
  335loPI   C5A 5355  17.162  14.172   8.071  0.3553  0.1045  0.0315
  335loPI   C6A 5356  17.004  14.014   7.663 -0.0664  0.0603  0.1539
  335loPI   C1B 5357  17.152  14.611   9.543 -0.0501 -0.1830  0.1901
  335loPI   C2B 5358  17.119  14.598   9.009 -0.1029 -0.1118  0.1105
  335loPI   C3B 5359  17.078  14.602   8.660  0.1295 -0.0427  0.0266
  335loPI   C4B 5360  17.019  14.652   8.194 -0.1798 -0.4657 -0.1631
  336loPI    C1 5361   7.374   2.013  10.135  0.2630  0.0691 -0.0006
  336loPI    C2 5362   7.532   2.052  10.500  0.1534  0.2172  0.0321
  336loPI    C3 5363   7.331   2.357  10.336  0.1291  0.1217 -0.1172
  336loPI   PO4 5364   7.371   1.767  10.029  0.1518  0.1020  0.0182
  336loPI   GL1 5365   7.545   1.491   9.655 -0.2866  0.0402 -0.0617
  336loPI   GL2 5366   7.763   1.268   9.755  0.1825  0.0535 -0.0061
  336loPI   C1A 5367   7.453   1.558   9.303  0.2991 -0.0215 -0.1488
  336loPI   C2A 5368   7.461   1.669   8.816  0.0564 -0.0014  0.3634
  336loPI   C3A 5369   7.500   1.801   8.353  0.1193 -0.0997  0.0771
  336loPI   C4A 5370   7.491   1.977   7.985 -0.1259  0.0644 -0.2184
  336loPI   C5A 5371   7.170   1.974   7.566  0.2065  0.0325 -0.1699
  336loPI   C6A 5372   6.756   1.823   7.394 -0.3543 -0.1282 -0.0628
  336loPI   C1B 5373   7.777   1.177   9.356 -0.0327 -0.2972 -0.3051
  336loPI   C2B 5374   7.788   1.260   8.922 -0.0849  0.0949 -0.0585
  336loPI   C3B 5375   7.712   1.365   8.519  0.1487  0.1649  0.4466
  336loPI   C4B 5376   7.804   1.472   8.118  0.1095  0.1629 -0.1855
  337loPI    C1 5377  16.083   5.993  10.999  0.0088  0.1083  0.0402
  337loPI    C2 5378  16.477   6.056  11.032  0.0207  0.0365  0.0356
  337loPI    C3 5379  16.220   6.294  11.224  0.0578  0.2418 -0.1656
  337loPI   PO4 5380  15.844   6.053  10.763  0.2328  0.0083 -0.0990
  337loPI   GL1 5381  16.012   6.138  10.381  0.0488 -0.1610  0.1054
  337loPI   GL2 5382  15.772   6.315  10.214  0.1624  0.2148  0.0151
  337loPI   C1A 5383  15.976   5.930  10.034 -0.0311 -0.2295  0.1494
  337loPI   C2A 5384  16.118   5.949   9.685 -0.0088  0.2733  0.3353
  337loPI   C3A 5385  16.121   5.874   9.308  0.1176 -0.1562  0.0367
  337loPI   C4A 5386  16.216   5.775   8.878 -0.4209 -0.0446  0.2159
  337loPI   C5A 5387  16.138   5.731   8.404  0.0180  0.0306 -0.1647
  337loPI   C6A 5388  16.191   5.962   8.030  0.0496  0.0759  0.1053
  337loPI   C1B 5389  15.727   6.317   9.778 -0.1772  0.1650 -0.0012
  337loPI   C2B 5390  15.890   6.332   9.367 -0.3840 -0.1440  0.2852
  337loPI   C3B 5391  15.944   6.243   8.981 -0.1107 -0.4793  0.0905
  337loPI   C4B 5392  15.926   6.138   8.615  0.0916 -0.0025  0.0087
  338loPI    C1 5393   0.898  18.063  10.244  0.0137  0.0511 -0.1254
  338loPI    C2 5394   0.788  17.718  10.413 -0.0146  0.0707 -0.1038
  338loPI    C3 5395   0.568  18.047  10.469  0.0667  0.1149 -0.0425
  338loPI   PO4 5396   0.974  17.992  10.024 -0.1294 -0.0144  0.2118
  338loPI   GL1 5397   0.889  17.697   9.619  0.0095  0.1711  0.1557
  338loPI   GL2 5398   1.087  17.996   9.539 -0.2042 -0.1323 -0.1253
  338loPI   C1A 5399   0.867  17.612   9.127  0.1363 -0.1066 -0.3267
  338loPI   C2A 5400   0.847  17.577   8.698  0.2618 -0.3835 -0.0346
  338loPI   C3A 5401   0.775  17.519   8.300  0.3745  0.0554 -0.0655
  338loPI   C4A 5402   0.636  17.486   7.768  0.0459 -0.0886 -0.3754
  338loPI   C5A 5403   0.575  17.539   7.301  0.0954  0.0409 -0.0280
  338loPI   C6A 5404   0.356  17.712   6.913  0.0658  0.0652  0.2155
  338loPI   C1B 5405   1.130  18.076   9.098  0.1040  0.0555 -0.1037
  338loPI   C2B 5406   1.042  18.123   8.714  0.1226  0.3213 -0.0494
  338loPI   C3B 5407   1.030  17.971   8.265 -0.0128  0.0656  0.3774
  338loPI   C4B 5408   0.988  18.008   7.755  0.2932 -0.1340 -0.0477
  339loPI    C1 5409   8.553   3.772  10.426 -0.5282  0.0457 -0.2989
  339loPI    C2 5410   8.502   3.754  10.822 -0.0954 -0.0743 -0.2442
  339loPI    C3 5411   8.725   4.044  10.662 -0.2454 -0.0430 -0.3992
  339loPI   PO4 5412   8.342   3.738  10.322 -0.0268 -0.2381 -0.4872
  339loPI   GL1 5413   8.025   3.704   9.931  0.2872 -0.0868  0.2471
  339loPI   GL2 5414   8.102   4.023   9.928  0.0725  0.1511 -0.0103
  339loPI   C1A 5415   7.853   3.531   9.656 -0.1430  0.0964  0.0439
  339loPI   C2A 5416   7.839   3.589   9.247  0.1159  0.0546 -0.0880
  339loPI   C3A 5417   7.837   3.548   8.809  0.1424 -0.0385  0.1528
  339loPI   C4A 5418   7.885   3.610   8.381  0.0055  0.4036 -0.0215
  339loPI   C5A 5419   7.986   3.613   7.827 -0.1867 -0.0634  0.0657
  339loPI   C6A 5420   7.951   3.306   7.571  0.0605 -0.0551  0.0795
  339loPI   C1B 5421   8.116   3.904   9.502  0.4599 -0.0171 -0.2271
  339loPI   C2B 5422   8.023   3.965   9.041  0.1889 -0.0661 -0.1282
  339loPI   C3B 5423   8.133   4.029   8.602  0.0018 -0.0117 -0.0962
  339loPI   C4B 5424   8.227   4.005   8.220 -0.0905  0.0800 -0.5378
  340loPI    C1 5425   3.367  11.065  10.325 -0.1030 -0.0660 -0.0668
  340loPI    C2 5426   3.595  11.229  10.610 -0.3900  0.0101  0.1238
  340loPI    C3 5427   3.343  10.932  10.702 -0.3660 -0.0769 -0.0855
  340loPI   PO4 5428   3.458  11.143  10.093  0.1471  0.0730  0.1095
  340loPI   GL1 5429   3.451  11.346   9.680 -0.0096 -0.0040 -0.1915
  340loPI   GL2 5430   3.730  11.521   9.622 -0.2802 -0.0088 -0.2788
  340loPI   C1A 5431   3.604  11.237   9.254 -0.0343  0.1379  0.1393
  340loPI   C2A 5432   3.689  11.211   8.855  0.0190 -0.0271  0.2651
  340loPI   C3A 5433   3.700  11.230   8.411  0.0237 -0.3681  0.1843
  340loPI   C4A 5434   3.535  11.197   7.955  0.1528 -0.3138  0.1536
  340loPI   C5A 5435   3.266  11.494   7.703  0.1370  0.3145 -0.0046
  340loPI   C6A 5436   3.365  11.778   7.452  0.0182  0.1671  0.1133
  340loPI   C1B 5437   3.955  11.719   9.357  0.1490  0.1988  0.0269
  340loPI   C2B 5438   3.933  11.801   8.940  0.0084  0.0369  0.2355
  340loPI   C3B 5439   3.872  11.752   8.476  0.1314 -0.0269 -0.0564
  340loPI   C4B 5440   3.881  11.569   8.082  0.1143  0.0351 -0.0252
  341loPI    C1 5441  10.390  16.664   9.624  0.2299  0.1863  0.1852
  341loPI    C2 5442  10.279  16.288   9.701  0.0630  0.1346 -0.2741
  341loPI    C3 5443  10.650  16.365   9.576  0.1435  0.1445 -0.0347
  341loPI   PO4 5444  10.232  16.800   9.574  0.1438  0.0387  0.3496
  341loPI   GL1 5445  10.337  16.944   9.247 -0.0700 -0.1420  0.3440
  341loPI   GL2 5446  10.021  16.793   9.100 -0.2003 -0.2998  0.0506
  341loPI   C1A 5447  10.387  16.964   8.768  0.2756  0.2314  0.3566
  341loPI   C2A 5448  10.722  17.096   8.458  0.3643 -0.0628  0.0603
  341loPI   C3A 5449  10.631  17.099   8.026  0.1176  0.1839 -0.2591
  341loPI   C4A 5450  10.667  17.163   7.578 -0.2533  0.0489 -0.1062
  341loPI   C5A 5451  10.658  17.492   7.257  0.0837 -0.1435  0.3787
  341loPI   C6A 5452  10.238  17.386   7.318  0.1539 -0.3648 -0.0309
  341loPI   C1B 5453   9.912  16.871   8.718 -0.0130 -0.5261  0.1471
  341loPI   C2B 5454  10.044  17.098   8.368 -0.0214  0.0853  0.3432
  341loPI   C3B 5455   9.756  17.089   8.057 -0.2078 -0.0779  0.0641
  341loPI   C4B 5456   9.534  17.174   7.676 -0.0767 -0.1867 -0.0127
  342loPI    C1 5457  11.101   6.583  10.402 -0.1719 -0.1981 -0.0358
  342loPI    C2 5458  10.871   6.910  10.391 -0.1309 -0.1636  0.1066
  342loPI    C3 5459  10.915   6.708  10.734  0.0411 -0.1766  0.0779
  342loPI   PO4 5460  11.235   6.564  10.155  0.3676  0.0059 -0.1688
  342loPI   GL1 5461  11.089   6.436   9.819 -0.0670 -0.0015 -0.3169
  342loPI   GL2 5462  11.199   6.083   9.731 -0.0672  0.1113 -0.0385
  342loPI   C1A 5463  11.329   6.576   9.443 -0.2385  0.2372 -0.0829
  342loPI   C2A 5464  11.371   6.584   8.967  0.3516 -0.1206  0.2254
  342loPI   C3A 5465  11.471   6.551   8.482  0.4942 -0.0777 -0.1361
  342loPI   C4A 5466  11.529   6.352   8.037 -0.1420  0.1837  0.0989
  342loPI   C5A 5467  11.480   6.234   7.650 -0.0865  0.0257 -0.2931
  342loPI   C6A 5468  11.328   5.848   7.495  0.1887 -0.1796 -0.0879
  342loPI   C1B 5469  11.109   6.079   9.203 -0.3267  0.3383 -0.0963
  342loPI   C2B 5470  11.149   6.069   8.739 -0.0248  0.0614  0.0296
  342loPI   C3B 5471  11.203   6.153   8.359 -0.0948  0.0866 -0.0751
  342loPI   C4B 5472  11.152   5.949   8.018 -0.0114  0.1793  0.4298
  343loPI    C1 5473   2.220  17.105   9.951  0.0716 -0.0636 -0.2047
  343loPI    C2 5474   1.882  16.978  10.122  0.0476  0.0395 -0.1749
  343loPI    C3 5475   2.146  17.191  10.334  0.0696  0.0722 -0.2351
  343loPI   PO4 5476   2.167  17.185   9.786  0.2880 -0.0733 -0.3538
  343loPI   GL1 5477   2.129  17.189   9.365  0.0140 -0.2388 -0.1236
  343loPI   GL2 5478   2.262  17.481   9.405  0.0108 -0.1388  0.0191
  343loPI   C1A 5479   2.010  17.127   8.932 -0.1858  0.0484  0.3923
  343loPI   C2A 5480   2.013  17.159   8.479 -0.2148  0.0044  0.1116
  343loPI   C3A 5481   2.027  17.136   8.001 -0.2619  0.0833  0.2712
  343loPI   C4A 5482   1.908  17.283   7.522  0.0351  0.0035  0.1060
  343loPI   C5A 5483   1.957  17.346   7.063  0.1029  0.1770 -0.2663
  343loPI   C6A 5484   2.266  17.412   6.675 -0.0267  0.4193  0.1492
  343loPI   C1B 5485   2.223  17.563   8.938 -0.0496 -0.0957 -0.0084
  343loPI   C2B 5486   2.320  17.662   8.585 -0.0112 -0.1716 -0.0328
  343loPI   C3B 5487   2.240  17.678   8.191 -0.2313 -0.3921 -0.1322
  343loPI   C4B 5488   2.258  17.540   7.752 -0.2066  0.1994  0.0446
  344loPI    C1 5489  18.355   6.629  10.962  0.0060 -0.1084  0.1976
  344loPI    C2 5490  18.286   6.926  11.220 -0.0046 -0.0200  0.0937
  344loPI    C3 5491  18.011   6.641  11.165 -0.0984  0.0848  0.0133
  344loPI   PO4 5492  18.446   6.772  10.766 -0.1071 -0.1204  0.0921
  344loPI   GL1 5493  18.308   6.814  10.425 -0.1118  0.3620  0.3624
  344loPI   GL2 5494  18.368   6.574  10.225 -0.2095  0.0936 -0.1454
  344loPI   C1A 5495  18.173   7.000  10.076 -0.3707 -0.0298 -0.0122
  344loPI   C2A 5496  18.135   6.902   9.732  0.4003 -0.0781  0.2071
  344loPI   C3A 5497  18.091   6.969   9.299 -0.1441  0.2280 -0.0663
  344loPI   C4A 5498  18.199   6.957   8.867 -0.2505  0.0576 -0.0503
  344loPI   C5A 5499  18.316   6.851   8.400  0.0542 -0.1507  0.0206
  344loPI   C6A 5500  18.324   6.510   8.070 -0.0086 -0.0337 -0.0165
  344loPI   C1B 5501  18.372   6.399   9.830 -0.2623  0.2748  0.0745
  344loPI   C2B 5502  18.462   6.318   9.363 -0.0027 -0.1564  0.1927
  344loPI   C3B 5503  18.594   6.427   8.883 -0.0756  0.1077 -0.0824
  344loPI   C4B 5504  18.570   6.419   8.454  0.3587 -0.2753  0.0874
  345loPI    C1 5505   3.723   6.612  10.664  0.1161 -0.1228  0.1660
  345loPI    C2 5506   4.119   6.567  10.693  0.1591  0.1820  0.0931
  345loPI    C3 5507   3.911   6.710  11.003  0.1162  0.0950  0.1047
  345loPI   PO4 5508   3.675   6.732  10.431  0.0560  0.0668 -0.2686
  345loPI   GL1 5509   3.512   6.894  10.119 -0.1167 -0.0146  0.2085
  345loPI   GL2 5510   3.457   6.664   9.968 -0.0767  0.2811 -0.2216
  345loPI   C1A 5511   3.525   6.955   9.629  0.0204  0.0397  0.0202
  345loPI   C2A 5512   3.603   7.077   9.214 -0.1636  0.1081  0.0558
  345loPI   C3A 5513   3.523   7.016   8.791 -0.0192  0.1039  0.0415
  345loPI   C4A 5514   3.519   7.012   8.374 -0.0963 -0.3974 -0.0350
  345loPI   C5A 5515   3.320   7.142   8.026  0.0142 -0.2037 -0.1880
  345loPI   C6A 5516   3.552   7.339   7.712  0.2482  0.1788  0.0271
  345loPI   C1B 5517   3.319   6.496   9.569 -0.1226  0.1188  0.1064
  345loPI   C2B 5518   3.330   6.648   9.032  0.0073 -0.0170  0.1083
  345loPI   C3B 5519   3.238   6.538   8.606 -0.0557 -0.1937  0.2293
  345loPI   C4B 5520   3.314   6.565   8.177  0.2868  0.0819 -0.1323
  346loPI    C1 5521  18.352  14.104  10.454 -0.1415  0.0387  0.1425
  346loPI    C2 5522  18.728  13.983  10.520 -0.0161  0.1045 -0.4055
  346loPI    C3 5523  18.590  14.314  10.698  0.1510  0.0274 -0.1266
  346loPI   PO4 5524  18.293  14.064  10.187 -0.1632  0.0943 -0.1048
  346loPI   GL1 5525  18.348  14.223   9.849  0.0746  0.2098  0.2457
  346loPI   GL2 5526  18.215  13.894   9.704  0.1033  0.0294 -0.2000
  346loPI   C1A 5527  18.473  14.225   9.448  0.1430 -0.0250 -0.1713
  346loPI   C2A 5528  18.375  14.285   8.950 -0.0972 -0.1041 -0.1221
  346loPI   C3A 5529  18.406  14.357   8.572  0.1695  0.0094  0.1304
  346loPI   C4A 5530  18.361  14.317   8.054  0.2703  0.0140  0.1275
  346loPI   C5A 5531  18.262  14.482   7.627 -0.1120 -0.2960 -0.1763
  346loPI   C6A 5532  18.470  14.431   7.149  0.2559  0.3936 -0.2095
  346loPI   C1B 5533  18.132  13.766   9.253  0.0824  0.0578  0.1145
  346loPI   C2B 5534  18.115  13.748   8.766 -0.1228 -0.1704 -0.1633
  346loPI   C3B 5535  18.185  13.878   8.293  0.0164 -0.0664 -0.1215
  346loPI   C4B 5536  18.392  13.870   7.893 -0.1963 -0.2761 -0.1924
  347loPI    C1 5537  17.239   9.116  10.778  0.2408 -0.1496 -0.0122
  347loPI    C2 5538  17.155   8.777  10.973  0.0380 -0.0372  0.0999
  347loPI    C3 5539  17.069   9.130  11.140  0.0455  0.0652 -0.1098
  347loPI   PO4 5540  17.396   8.986  10.639 -0.1514  0.0655  0.3199
  347loPI   GL1 5541  17.456   8.898  10.267 -0.2647 -0.1179 -0.1780
  347loPI   GL2 5542  17.625   8.767  10.071  0.0204 -0.0042 -0.0931
  347loPI   C1A 5543  17.380   9.158   9.971 -0.2190 -0.3321  0.0266
  347loPI   C2A 5544  17.206   9.232   9.555  0.1639 -0.1555 -0.0891
  347loPI   C3A 5545  17.259   9.193   9.141  0.4743 -0.3340  0.1380
  347loPI   C4A 5546  17.236   9.121   8.673  0.0273 -0.0995 -0.0676
  347loPI   C5A 5547  17.459   9.179   8.186 -0.0389 -0.0710 -0.0686
  347loPI   C6A 5548  17.451   9.224   7.719  0.1784  0.3574  0.0465
  347loPI   C1B 5549  17.496   8.840   9.619 -0.0214 -0.3184  0.1417
  347loPI   C2B 5550  17.531   8.784   9.210  0.0498  0.3803 -0.3212
  347loPI   C3B 5551  17.612   8.670   8.798 -0.3232  0.2532  0.0635
  347loPI   C4B 5552  17.660   8.573   8.339 -0.1378  0.0054  0.0038
  348loPI    C1 5553   1.063  17.461  10.116  0.0960 -0.1821 -0.1112
  348loPI    C2 5554   1.290  17.631  10.399  0.0970 -0.1553 -0.1280
  348loPI    C3 5555   1.048  17.326  10.492 -0.0558 -0.0137 -0.0550
  348loPI   PO4 5556   1.202  17.333   9.800 -0.1371 -0.0604 -0.0806
  348loPI   GL1 5557   1.096  17.160   9.381 -0.1399 -0.0634 -0.1385
  348loPI   GL2 5558   1.380  16.994   9.367  0.1039 -0.2011 -0.0351
  348loPI   C1A 5559   1.050  17.129   9.030 -0.1993  0.2497  0.0463
  348loPI   C2A 5560   1.027  17.131   8.592  0.1076  0.0948 -0.0741
  348loPI   C3A 5561   0.963  17.098   8.112 -0.0466  0.0041  0.0938
  348loPI   C4A 5562   0.986  17.000   7.735  0.0142  0.0432 -0.5015
  348loPI   C5A 5563   0.991  17.231   7.382 -0.0396  0.0358  0.1499
  348loPI   C6A 5564   1.105  17.648   7.131  0.2062 -0.0792  0.0888
  348loPI   C1B 5565   1.505  17.219   8.992 -0.0393 -0.2423  0.1361
  348loPI   C2B 5566   1.489  17.197   8.536  0.4951 -0.0525 -0.2363
  348loPI   C3B 5567   1.433  17.033   8.033  0.4691  0.0107 -0.1953
  348loPI   C4B 5568   1.491  17.023   7.627  0.1001  0.0605  0.0697
  349loPI    C1 5569  17.230  11.207  11.029 -0.0009 -0.1390 -0.0865
  349loPI    C2 5570  17.067  11.220  11.393  0.2092  0.2043  0.0002
  349loPI    C3 5571  17.386  10.988  11.325 -0.0247 -0.1083 -0.0512
  349loPI   PO4 5572  17.131  11.390  10.794 -0.1095 -0.5566 -0.1987
  349loPI   GL1 5573  17.309  11.577  10.421  0.2415  0.1724 -0.0198
  349loPI   GL2 5574  17.514  11.290  10.215 -0.1919  0.4189 -0.1805
  349loPI   C1A 5575  17.253  11.761   9.948  0.2242 -0.0643  0.0347
  349loPI   C2A 5576  17.198  11.981   9.566 -0.1614 -0.2099 -0.0958
  349loPI   C3A 5577  17.118  11.904   9.169 -0.3937 -0.3079 -0.0877
  349loPI   C4A 5578  17.188  11.912   8.759 -0.0618  0.2939 -0.2348
  349loPI   C5A 5579  17.040  11.886   8.342 -0.1676  0.2103  0.0676
  349loPI   C6A 5580  16.729  12.149   8.098 -0.1401  0.3273  0.3248
  349loPI   C1B 5581  17.513  11.407   9.791  0.1812  0.1300  0.2866
  349loPI   C2B 5582  17.315  11.500   9.452 -0.0750  0.0652 -0.2188
  349loPI   C3B 5583  17.369  11.504   9.015  0.1534 -0.1164  0.1103
  349loPI   C4B 5584  17.395  11.457   8.628  0.1290  0.2266  0.3235
  350loPI    C1 5585   9.053  15.200   9.974  0.0075 -0.2793 -0.0006
  350loPI    C2 5586   9.396  15.267   9.779 -0.0435  0.0125  0.0053
  350loPI    C3 5587   9.403  15.114  10.148  0.0739 -0.1000 -0.0428
  350loPI   PO4 5588   8.903  15.523   9.939  0.3538  0.1269 -0.0565
  350loPI   GL1 5589   8.848  15.579   9.502  0.1457 -0.1572  0.0674
  350loPI   GL2 5590   9.085  15.390   9.422 -0.0390 -0.0072  0.2485
  350loPI   C1A 5591   8.672  15.239   9.184 -0.2050 -0.4929 -0.1146
  350loPI   C2A 5592   8.478  15.028   8.878 -0.1252 -0.2680 -0.1278
  350loPI   C3A 5593   8.496  14.994   8.495  0.3275 -0.0078 -0.1720
  350loPI   C4A 5594   8.348  14.992   8.039 -0.3094  0.4082  0.0217
  350loPI   C5A 5595   8.255  14.982   7.661 -0.0131  0.0868 -0.2309
  350loPI   C6A 5596   8.421  15.111   7.298 -0.4953 -0.1747 -0.3008
  350loPI   C1B 5597   9.112  15.655   9.074  0.4138  0.2285 -0.0023
  350loPI   C2B 5598   9.059  15.843   8.628  0.3270 -0.0832 -0.0104
  350loPI   C3B 5599   8.874  16.051   8.220 -0.0978  0.0772  0.2252
  350loPI   C4B 5600   8.798  15.889   7.782  0.0752  0.1028  0.3793
  351loPI    C1 5601   0.823   8.375  10.387  0.1862 -0.0938  0.0240
  351loPI    C2 5602   1.022   8.335  10.732 -0.0966  0.3244  0.2439
  351loPI    C3 5603   0.634   8.239  10.712 -0.0681  0.2494  0.0256
  351loPI   PO4 5604   0.909   8.286  10.195  0.0665 -0.0362  0.1276
  351loPI   GL1 5605   1.030   8.281   9.837  0.2526 -0.3327 -0.0075
  351loPI   GL2 5606   1.338   8.194   9.842  0.2985 -0.0163 -0.0029
  351loPI   C1A 5607   1.040   8.426   9.407  0.0421  0.0215 -0.0161
  351loPI   C2A 5608   1.105   8.311   8.998  0.1588  0.2262  0.0184
  351loPI   C3A 5609   1.023   8.359   8.517  0.0522  0.1188 -0.1954
  351loPI   C4A 5610   1.062   8.272   8.110  0.0658 -0.2262 -0.2881
  351loPI   C5A 5611   0.895   8.161   7.686 -0.0733  0.0204 -0.1975
  351loPI   C6A 5612   0.873   8.211   7.259 -0.1677  0.1203 -0.2386
  351loPI   C1B 5613   1.335   7.987   9.408 -0.3296 -0.2180 -0.1877
  351loPI   C2B 5614   1.386   7.798   9.059 -0.3600 -0.5228 -0.1019
  351loPI   C3B 5615   1.388   7.929   8.647  0.1642 -0.0579 -0.1577
  351loPI   C4B 5616   1.311   7.894   8.105 -0.2380  0.2889 -0.1342
  352loPI    C1 5617   4.526  17.371  10.402 -0.2873 -0.1159 -0.1666
  352loPI    C2 5618   4.347  17.068  10.593 -0.4007  0.0904  0.0595
  352loPI    C3 5619   4.554  17.341  10.800  0.2467 -0.1829 -0.2020
  352loPI   PO4 5620   4.419  17.296  10.123  0.0474  0.1214 -0.1831
  352loPI   GL1 5621   4.204  17.459   9.778  0.0998 -0.1228 -0.2300
  352loPI   GL2 5622   4.303  17.770   9.655  0.0252  0.1185 -0.1225
  352loPI   C1A 5623   4.231  17.353   9.306  0.1484 -0.0537 -0.1139
  352loPI   C2A 5624   4.132  17.274   8.777  0.1294 -0.4104  0.0828
  352loPI   C3A 5625   4.170  17.140   8.326  0.1485 -0.1206 -0.1163
  352loPI   C4A 5626   4.068  17.280   7.927  0.0264  0.0286  0.0237
  352loPI   C5A 5627   4.138  17.090   7.573 -0.0840  0.0248  0.2694
  352loPI   C6A 5628   4.270  16.752   7.251  0.1028 -0.0667  0.0279
  352loPI   C1B 5629   4.376  17.857   9.228  0.2170  0.3472 -0.0228
  352loPI   C2B 5630   4.406  17.747   8.807 -0.0356  0.1621 -0.0169
  352loPI   C3B 5631   4.441  17.638   8.372 -0.0723  0.0223  0.2711
  352loPI   C4B 5632   4.316  17.765   7.949  0.1123  0.2044 -0.0944
  353loPI    C1 5633   8.977  16.166   9.944 -0.0217  0.0667 -0.0351
  353loPI    C2 5634   8.661  16.145  10.189 -0.2543 -0.0439 -0.3384
  353loPI    C3 5635   8.970  15.896  10.239 -0.0969  0.2304  0.1149
  353loPI   PO4 5636   8.885  16.124   9.677  0.0965  0.3226 -0.2015
  353loPI   GL1 5637   8.623  16.179   9.382 -0.0515  0.4139  0.2837
  353loPI   GL2 5638   8.526  15.906   9.339 -0.2391 -0.1813 -0.0060
  353loPI   C1A 5639   8.768  16.198   8.975  0.0726  0.0244  0.0170
  353loPI   C2A 5640   8.817  16.431   8.580  0.3587  0.3274 -0.0658
  353loPI   C3A 5641   8.667  16.547   8.236 -0.0082  0.0344  0.2930
  353loPI   C4A 5642   8.494  16.449   7.830 -0.0749  0.1226 -0.1390
  353loPI   C5A 5643   8.409  16.247   7.470 -0.1687  0.1333 -0.3069
  353loPI   C6A 5644   8.257  16.122   7.128 -0.0107 -0.2484 -0.1063
  353loPI   C1B 5645   8.545  15.726   8.933  0.0777  0.1310 -0.2051
  353loPI   C2B 5646   8.805  15.463   8.698 -0.2463 -0.1891 -0.1410
  353loPI   C3B 5647   8.715  15.394   8.291 -0.2830  0.3104 -0.0993
  353loPI   C4B 5648   8.592  15.502   7.929  0.1678  0.1459 -0.0237
  354loPI    C1 5649   1.283  12.827  10.197  0.0366  0.0621  0.1588
  354loPI    C2 5650   1.516  12.785  10.519  0.1028 -0.2570  0.0724
  354loPI    C3 5651   1.118  12.763  10.555  0.0832  0.2235  0.2100
  354loPI   PO4 5652   1.369  12.679   9.977 -0.0588  0.0520  0.2314
  354loPI   GL1 5653   1.322  12.801   9.660  0.0135 -0.0393  0.3825
  354loPI   GL2 5654   1.063  13.003   9.492  0.0245 -0.0316  0.0915
  354loPI   C1A 5655   1.230  12.595   9.251  0.0295  0.0346 -0.1186
  354loPI   C2A 5656   1.215  12.464   8.762  0.0117  0.0742  0.1792
  354loPI   C3A 5657   1.119  12.529   8.324  0.0528  0.2480 -0.1039
  354loPI   C4A 5658   1.147  12.520   7.955 -0.2402 -0.1236 -0.1491
  354loPI   C5A 5659   1.207  12.724   7.542  0.2030  0.1134  0.2257
  354loPI   C6A 5660   1.270  13.015   7.260 -0.0629  0.0767  0.3758
  354loPI   C1B 5661   0.853  13.074   9.095  0.0146 -0.0646  0.1304
  354loPI   C2B 5662   0.860  13.040   8.673  0.1547  0.1084 -0.1196
  354loPI   C3B 5663   0.917  13.008   8.183 -0.1745  0.1435  0.2348
  354loPI   C4B 5664   0.842  13.087   7.620 -0.0468 -0.1477 -0.2572
  355loPI    C1 5665  10.257  11.946   9.781  0.2612  0.0071 -0.1377
  355loPI    C2 5666  10.458  11.731  10.051  0.0611  0.0578  0.0546
  355loPI    C3 5667  10.383  12.118  10.119  0.2298  0.1361 -0.1908
  355loPI   PO4 5668  10.418  11.896   9.520  0.1169 -0.0560 -0.5296
  355loPI   GL1 5669  10.423  11.833   9.140  0.0741 -0.3985  0.3399
  355loPI   GL2 5670  10.684  11.679   9.156  0.0461 -0.0755  0.0094
  355loPI   C1A 5671  10.336  12.124   8.805 -0.1030  0.1519 -0.2379
  355loPI   C2A 5672  10.383  12.086   8.436  0.1105 -0.5056 -0.0463
  355loPI   C3A 5673  10.301  11.961   8.056  0.0833  0.3272 -0.0237
  355loPI   C4A 5674  10.218  11.887   7.666 -0.1096  0.1815 -0.1389
  355loPI   C5A 5675  10.067  11.905   7.229 -0.3461 -0.2052 -0.4107
  355loPI   C6A 5676   9.726  11.939   6.927 -0.0655  0.1068  0.1170
  355loPI   C1B 5677  10.835  11.393   8.852  0.0723  0.0528 -0.0718
  355loPI   C2B 5678  10.779  11.308   8.443 -0.1352  0.3034  0.0747
  355loPI   C3B 5679  10.852  11.471   8.040 -0.1441  0.2092  0.1669
  355loPI   C4B 5680  10.624  11.591   7.708 -0.1757  0.0907 -0.0044
  356loPI    C1 5681  15.838  17.759   9.955 -0.1797 -0.2439  0.3744
  356loPI    C2 5682  15.629  17.841  10.286 -0.3154  0.0517  0.2193
  356loPI    C3 5683  15.673  18.120  10.003 -0.0402 -0.1365  0.0720
  356loPI   PO4 5684  15.869  17.514   9.913 -0.0070  0.2343  0.0674
  356loPI   GL1 5685  16.069  17.288   9.600 -0.2942 -0.2028  0.1811
  356loPI   GL2 5686  15.863  16.963   9.722  0.1006 -0.1598 -0.0042
  356loPI   C1A 5687  16.006  17.565   9.305 -0.0133 -0.0204 -0.1995
  356loPI   C2A 5688  16.113  17.684   8.938  0.0422  0.1853  0.1300
  356loPI   C3A 5689  16.241  17.715   8.560 -0.2340  0.0380  0.4788
  356loPI   C4A 5690  16.267  17.786   8.134  0.2098 -0.1835  0.2600
  356loPI   C5A 5691  16.170  17.784   7.745 -0.1810 -0.3840  0.1392
  356loPI   C6A 5692  16.306  17.360   7.659  0.1695  0.1247  0.1093
  356loPI   C1B 5693  15.840  17.065   9.258  0.0600  0.0311 -0.0622
  356loPI   C2B 5694  15.836  17.154   8.876 -0.3367  0.1100  0.0572
  356loPI   C3B 5695  15.972  17.285   8.532 -0.0578  0.1804  0.2670
  356loPI   C4B 5696  16.152  17.325   8.149 -0.0076 -0.1557  0.4615
  357loPI    C1 5697   7.000   0.934  10.027 -0.1829 -0.0272 -0.0749
  357loPI    C2 5698   6.957   1.117  10.379  0.3493  0.0665 -0.0506
  357loPI    C3 5699   7.117   0.751  10.363 -0.0508 -0.1090 -0.1646
  357loPI   PO4 5700   7.062   1.002   9.809  0.2564 -0.1167  0.1776
  357loPI   GL1 5701   7.257   1.125   9.503 -0.1282 -0.1350  0.2517
  357loPI   GL2 5702   6.917   1.235   9.406 -0.0553 -0.1984  0.1242
  357loPI   C1A 5703   7.263   1.175   9.029  0.0053 -0.1645  0.1562
  357loPI   C2A 5704   7.190   1.247   8.635 -0.1872 -0.0709 -0.0703
  357loPI   C3A 5705   7.212   1.363   8.248 -0.0589 -0.3747 -0.1359
  357loPI   C4A 5706   7.439   1.431   7.836 -0.0870  0.0074 -0.0168
  357loPI   C5A 5707   7.277   1.508   7.471  0.0285 -0.2274  0.0697
  357loPI   C6A 5708   7.575   1.849   7.309 -0.1438 -0.2679 -0.1696
  357loPI   C1B 5709   6.696   1.157   9.031  0.0345 -0.1011  0.0823
  357loPI   C2B 5710   6.595   1.186   8.593 -0.3072 -0.0742  0.0706
  357loPI   C3B 5711   6.624   1.329   8.189  0.1587 -0.1103  0.1925
  357loPI   C4B 5712   6.600   1.398   7.668  0.1293 -0.3831  0.1454
  358loPI    C1 5713  14.350   6.857  10.801  0.2876 -0.1463  0.0122
  358loPI    C2 5714  14.227   7.047  11.131  0.0743 -0.0861 -0.1001
  358loPI    C3 5715  14.522   6.777  11.153  0.0187 -0.1281  0.1496
  358loPI   PO4 5716  14.309   7.157  10.665  0.1793 -0.0693 -0.1038
  358loPI   GL1 5717  14.406   7.303  10.286 -0.2201 -0.0456  0.1660
  358loPI   GL2 5718  14.699   7.359  10.104  0.0879  0.2165  0.2817
  358loPI   C1A 5719  14.187   7.129   9.856  0.0741  0.2625  0.3906
  358loPI   C2A 5720  14.267   7.090   9.415 -0.1485  0.2072 -0.0903
  358loPI   C3A 5721  14.261   7.219   8.969 -0.2515 -0.2717  0.3059
  358loPI   C4A 5722  14.237   7.148   8.537  0.2819  0.2391 -0.0264
  358loPI   C5A 5723  14.490   7.240   8.183 -0.1403 -0.0506  0.0950
  358loPI   C6A 5724  14.814   7.451   7.998 -0.2791 -0.1211 -0.2558
  358loPI   C1B 5725  14.709   7.290   9.608 -0.2666 -0.1576  0.0040
  358loPI   C2B 5726  14.698   7.370   9.211 -0.0417  0.0950 -0.1181
  358loPI   C3B 5727  14.741   7.203   8.874  0.3667  0.2630 -0.0868
  358loPI   C4B 5728  14.814   7.323   8.579 -0.2712  0.0398  0.1101
  359loPI    C1 5729  17.128   7.964  10.967 -0.1403 -0.0225  0.1385
  359loPI    C2 5730  16.788   7.919  11.172 -0.1937  0.1125  0.0805
  359loPI    C3 5731  17.104   7.689  11.257 -0.3250 -0.0714  0.0785
  359loPI   PO4 5732  17.110   7.874  10.684 -0.0001 -0.1177 -0.0452
  359loPI   GL1 5733  17.147   8.063  10.270  0.2941  0.0089  0.2403
  359loPI   GL2 5734  17.219   8.364  10.140  0.1465  0.0614  0.1104
  359loPI   C1A 5735  17.520   7.850   9.984 -0.1387  0.0096  0.1410
  359loPI   C2A 5736  17.532   7.836   9.527  0.5168 -0.0497 -0.3399
  359loPI   C3A 5737  17.587   7.748   9.214  0.1379  0.0349  0.0384
  359loPI   C4A 5738  17.502   7.696   8.757  0.4018 -0.0504  0.1836
  359loPI   C5A 5739  17.388   7.224   8.523 -0.3330 -0.0502 -0.0010
  359loPI   C6A 5740  17.102   7.239   8.236  0.1542 -0.0714  0.1264
  359loPI   C1B 5741  17.263   8.312   9.738  0.0504 -0.3908  0.0246
  359loPI   C2B 5742  17.350   8.320   9.286  0.0406  0.2386  0.3211
  359loPI   C3B 5743  17.339   8.208   8.841  0.1058 -0.4615 -0.1396
  359loPI   C4B 5744  17.402   8.111   8.336  0.4381 -0.2259  0.0962
  360loPI    C1 5745  18.313  13.595  10.659 -0.1943  0.3058 -0.0729
  360loPI    C2 5746  18.156  13.568  11.026 -0.3142 -0.2339 -0.1560
  360loPI    C3 5747  18.406  13.867  10.937 -0.3962 -0.0158  0.3197
  360loPI   PO4 5748  18.033  13.648  10.450 -0.1259 -0.0606  0.2564
  360loPI   GL1 5749  17.984  13.570  10.013  0.1531 -0.1550 -0.0305
  360loPI   GL2 5750  17.773  13.730   9.818 -0.0225 -0.0782 -0.1748
  360loPI   C1A 5751  17.987  13.292   9.616 -0.0059 -0.0159  0.3263
  360loPI   C2A 5752  17.884  13.296   9.186  0.4548 -0.2192  0.0586
  360loPI   C3A 5753  17.806  13.308   8.742  0.2744 -0.1750 -0.0146
  360loPI   C4A 5754  17.860  13.466   8.354  0.0710  0.0331  0.3063
  360loPI   C5A 5755  17.856  13.659   7.938  0.0361  0.0396  0.0254
  360loPI   C6A 5756  17.920  14.112   7.769  0.0443 -0.0233  0.0465
  360loPI   C1B 5757  17.643  13.739   9.420 -0.0950  0.2176  0.4203
  360loPI   C2B 5758  17.644  13.693   9.020 -0.0609  0.4855  0.0296
  360loPI   C3B 5759  17.600  13.757   8.645  0.1855 -0.0382 -0.2219
  360loPI   C4B 5760  17.479  13.745   8.228 -0.3424 -0.1629 -0.1701
  361loPI    C1 5761   3.781   8.234  10.341  0.0552 -0.0034 -0.1183
  361loPI    C2 5762   3.980   8.370  10.660  0.1058  0.0416 -0.1689
  361loPI    C3 5763   3.740   8.053  10.695 -0.0906  0.2029 -0.0279
  361loPI   PO4 5764   3.787   8.400  10.169  0.0089  0.0388 -0.1518
  361loPI   GL1 5765   3.882   8.384   9.744 -0.2810 -0.1538 -0.2666
  361loPI   GL2 5766   4.253   8.488   9.498  0.3308  0.0761  0.1101
  361loPI   C1A 5767   3.731   8.559   9.390  0.0675  0.2534 -0.2060
  361loPI   C2A 5768   3.732   8.553   8.985 -0.2077 -0.0943  0.1778
  361loPI   C3A 5769   3.627   8.539   8.553 -0.0502 -0.0899 -0.2587
  361loPI   C4A 5770   3.490   8.493   8.150 -0.0003 -0.1513 -0.0842
  361loPI   C5A 5771   3.049   8.583   7.976 -0.1386  0.1216 -0.1734
  361loPI   C6A 5772   2.982   8.718   7.651 -0.1100 -0.1325  0.0073
  361loPI   C1B 5773   4.206   8.406   9.092 -0.1291  0.1915  0.1693
  361loPI   C2B 5774   4.118   8.497   8.639  0.0157  0.3195  0.0676
  361loPI   C3B 5775   4.117   8.467   8.157  0.0118  0.3663 -0.0931
  361loPI   C4B 5776   3.935   8.500   7.874 -0.0360 -0.1639 -0.1573
  362loPI    C1 5777   9.286   5.206   9.855 -0.1820 -0.2520  0.1811
  362loPI    C2 5778   9.463   5.224  10.213 -0.1136  0.0272  0.1352
  362loPI    C3 5779   9.094   5.369  10.165 -0.0237  0.2273  0.0357
  362loPI   PO4 5780   9.542   5.082   9.716  0.1669  0.0168 -0.0093
  362loPI   GL1 5781   9.764   5.299   9.428  0.1633 -0.1611  0.0177
  362loPI   GL2 5782   9.982   5.601   9.440  0.2686 -0.0992  0.2077
  362loPI   C1A 5783   9.754   5.084   8.954 -0.1324 -0.3053 -0.0815
  362loPI   C2A 5784   9.710   5.130   8.514 -0.1910 -0.1651  0.0512
  362loPI   C3A 5785   9.520   5.239   8.134  0.1634 -0.3943 -0.2315
  362loPI   C4A 5786   9.263   5.207   7.797  0.0062 -0.1175  0.0210
  362loPI   C5A 5787   9.184   5.165   7.357 -0.3672  0.2280 -0.0284
  362loPI   C6A 5788   9.438   5.155   6.921 -0.0168  0.3899 -0.1138
  362loPI   C1B 5789   9.897   5.602   8.978  0.3438  0.3126 -0.0384
  362loPI   C2B 5790   9.860   5.625   8.545  0.2503  0.3366 -0.1162
  362loPI   C3B 5791   9.811   5.694   8.034  0.2225 -0.0748 -0.2574
  362loPI   C4B 5792   9.714   5.387   7.741 -0.1211 -0.1038  0.2407
  363loPI    C1 5793   9.728  15.581   9.965  0.0718  0.2227  0.2778
  363loPI    C2 5794   9.368  15.625  10.134  0.0001  0.1408  0.1482
  363loPI    C3 5795   9.671  15.471  10.345 -0.1374 -0.1384  0.1475
  363loPI   PO4 5796   9.870  15.461   9.752  0.1058  0.0432  0.1016
  363loPI   GL1 5797  10.080  15.420   9.389 -0.3529 -0.2330 -0.0180
  363loPI   GL2 5798  10.119  15.773   9.336 -0.0022  0.0554 -0.3168
  363loPI   C1A 5799  10.047  15.394   9.008  0.0378 -0.1548 -0.0154
  363loPI   C2A 5800   9.956  15.516   8.597  0.1392 -0.0737  0.3032
  363loPI   C3A 5801   9.872  15.480   8.211  0.2119  0.0997 -0.2306
  363loPI   C4A 5802   9.845  15.128   7.895 -0.1594  0.1173 -0.2743
  363loPI   C5A 5803   9.884  15.280   7.409 -0.1882 -0.0272 -0.0898
  363loPI   C6A 5804   9.731  15.262   6.915  0.1377  0.1122 -0.1341
  363loPI   C1B 5805  10.106  15.942   8.989  0.1148  0.0462 -0.0633
  363loPI   C2B 5806  10.040  16.053   8.484 -0.0245  0.2791 -0.3956
  363loPI   C3B 5807   9.745  16.335   8.128  0.0573 -0.1647  0.2587
  363loPI   C4B 5808   9.638  16.659   8.382  0.1332 -0.0539  0.0384
  364loPI    C1 5809   7.272  10.824  10.187  0.4936 -0.3669 -0.0803
  364loPI    C2 5810   7.494  10.807  10.520  0.1554  0.0659  0.1787
  364loPI    C3 5811   7.096  10.768  10.542  0.1054  0.3403 -0.1412
  364loPI   PO4 5812   7.294  11.029  10.024  0.0252 -0.0585 -0.0368
  364loPI   GL1 5813   7.274  10.971   9.576  0.3264  0.0209  0.2918
  364loPI   GL2 5814   7.397  10.696   9.417 -0.3298  0.2265 -0.0356
  364loPI   C1A 5815   7.190  11.121   9.152 -0.0459  0.2082  0.0087
  364loPI   C2A 5816   7.015  10.946   8.866  0.0040 -0.1130  0.1887
  364loPI   C3A 5817   7.072  10.889   8.456  0.0256  0.0353 -0.4018
  364loPI   C4A 5818   7.131  10.797   8.078 -0.2521  0.0664  0.2481
  364loPI   C5A 5819   7.056  10.757   7.640 -0.1991 -0.2101  0.2365
  364loPI   C6A 5820   6.988  11.000   7.217  0.4371 -0.2665 -0.2137
  364loPI   C1B 5821   7.294  10.579   9.089 -0.0630  0.1232 -0.0992
  364loPI   C2B 5822   7.333  10.539   8.713  0.1776  0.2492 -0.1233
  364loPI   C3B 5823   7.310  10.430   8.293 -0.2196  0.3331  0.0338
  364loPI   C4B 5824   7.200  10.317   7.844  0.3749 -0.2028 -0.0596
  365loPI    C1 5825   6.539   2.857  10.275  0.1564  0.0607  0.1365
  365loPI    C2 5826   6.414   3.131  10.539  0.0815  0.0258  0.1378
  365loPI    C3 5827   6.591   2.796  10.667  0.3626  0.1671  0.1269
  365loPI   PO4 5828   6.280   2.849  10.077  0.0373 -0.0923  0.1426
  365loPI   GL1 5829   6.226   2.768   9.670  0.0217  0.0533 -0.3280
  365loPI   GL2 5830   5.957   2.629   9.733  0.1116 -0.0164  0.0317
  365loPI   C1A 5831   6.491   2.645   9.277 -0.1476  0.4353 -0.4732
  365loPI   C2A 5832   6.403   2.583   8.869  0.1846 -0.0195 -0.2901
  365loPI   C3A 5833   6.284   2.604   8.493 -0.0405 -0.1144  0.1763
  365loPI   C4A 5834   6.325   2.559   8.077 -0.1089 -0.0004  0.2487
  365loPI   C5A 5835   6.306   2.630   7.704  0.0691 -0.2027  0.0237
  365loPI   C6A 5836   6.525   2.760   7.371  0.1570 -0.1835  0.0866
  365loPI   C1B 5837   5.903   2.613   9.274 -0.0033  0.2008 -0.3832
  365loPI   C2B 5838   5.915   2.637   8.839 -0.3194 -0.3011  0.0344
  365loPI   C3B 5839   5.787   2.715   8.452 -0.3620  0.0729  0.0478
  365loPI   C4B 5840   5.847   2.620   7.983 -0.0026 -0.0897 -0.0675
  366loPI    C1 5841  16.012   8.774  10.497  0.1497  0.2145 -0.2451
  366loPI    C2 5842  16.215   8.680  10.828 -0.3667  0.1494  0.0635
  366loPI    C3 5843  16.258   8.459  10.497  0.0060  0.0978  0.1417
  366loPI   PO4 5844  15.969   8.982  10.431 -0.3545 -0.1150 -0.5805
  366loPI   GL1 5845  16.089   8.950  10.036 -0.1067  0.2565  0.1169
  366loPI   GL2 5846  15.977   8.674  10.014 -0.1400 -0.0994 -0.0910
  366loPI   C1A 5847  16.153   9.081   9.659 -0.5872 -0.1722  0.0341
  366loPI   C2A 5848  16.173   9.143   9.194 -0.3605 -0.2003  0.0204
  366loPI   C3A 5849  16.225   9.145   8.776 -0.2320 -0.2037  0.1889
  366loPI   C4A 5850  16.294   9.312   8.365 -0.1132 -0.2958 -0.3172
  366loPI   C5A 5851  16.585   9.565   8.208  0.0188  0.0996  0.0204
  366loPI   C6A 5852  16.783   9.885   7.970 -0.1753  0.0289 -0.2362
  366loPI   C1B 5853  15.901   8.624   9.626  0.3350 -0.1540 -0.0348
  366loPI   C2B 5854  15.913   8.643   9.198  0.1851 -0.2111 -0.2532
  366loPI   C3B 5855  16.046   8.639   8.782  0.0704  0.2287  0.1519
  366loPI   C4B 5856  16.056   8.823   8.392  0.1132  0.0120 -0.2573
  367loPI    C1 5857   5.125   0.567  10.039 -0.3532 -0.1138 -0.0680
  367loPI    C2 5858   5.018   0.191  10.122 -0.1209 -0.1501  0.0745
  367loPI    C3 5859   5.286   0.264   9.833 -0.0603 -0.1048  0.1419
  367loPI   PO4 5860   5.032   0.719   9.904  0.3120  0.0364 -0.2165
  367loPI   GL1 5861   4.810   0.722   9.572 -0.1264 -0.1494 -0.2132
  367loPI   GL2 5862   4.499   0.670   9.615  0.1478  0.0848  0.1383
  367loPI   C1A 5863   4.849   0.759   9.179 -0.3031  0.1092  0.1430
  367loPI   C2A 5864   4.726   0.741   8.731 -0.1860 -0.0194 -0.1690
  367loPI   C3A 5865   4.776   0.809   8.262  0.0268  0.0357 -0.1070
  367loPI   C4A 5866   4.833   0.653   7.843  0.2697  0.0180 -0.0180
  367loPI   C5A 5867   4.749   0.707   7.410  0.4043 -0.1495 -0.1356
  367loPI   C6A 5868   4.769   0.808   7.026  0.1859 -0.1547  0.0166
  367loPI   C1B 5869   4.346   0.653   9.199 -0.1935  0.0609 -0.2918
  367loPI   C2B 5870   4.214   0.717   8.814 -0.3903  0.1384  0.0642
  367loPI   C3B 5871   4.288   0.699   8.403  0.0167  0.0251 -0.0480
  367loPI   C4B 5872   4.324   0.620   7.899  0.0570  0.0633  0.0668
  368loPI    C1 5873   9.780  16.606   9.815 -0.3883 -0.0946  0.0964
  368loPI    C2 5874   9.862  16.915  10.056 -0.3514  0.0182 -0.0596
  368loPI    C3 5875  10.062  16.572  10.096 -0.1691  0.1197 -0.0935
  368loPI   PO4 5876   9.812  16.578   9.627  0.1864  0.0352  0.0545
  368loPI   GL1 5877   9.938  16.288   9.257  0.0813  0.0506 -0.0167
  368loPI   GL2 5878  10.284  16.351   9.205  0.0093  0.1213  0.1945
  368loPI   C1A 5879   9.723  16.374   8.787 -0.0920  0.3571 -0.1993
  368loPI   C2A 5880   9.353  16.254   8.553  0.1768  0.1671 -0.0105
  368loPI   C3A 5881   9.208  16.459   8.196  0.0804 -0.0985  0.3270
  368loPI   C4A 5882   9.002  16.604   7.752  0.0997 -0.3092 -0.2055
  368loPI   C5A 5883   8.921  16.380   7.445  0.2588 -0.0035 -0.0724
  368loPI   C6A 5884   8.686  16.338   7.039  0.3813 -0.1153 -0.4339
  368loPI   C1B 5885  10.249  16.472   8.807  0.1351  0.0655 -0.2978
  368loPI   C2B 5886  10.186  16.607   8.342  0.1885 -0.2736 -0.1729
  368loPI   C3B 5887  10.167  16.746   7.978 -0.3395  0.0935  0.2434
  368loPI   C4B 5888  10.302  16.799   7.596  0.1374  0.3756  0.0004
  369loPI    C1 5889  15.719  16.635  10.529 -0.0499  0.2957  0.0517
  369loPI    C2 5890  16.045  16.866  10.545 -0.0595  0.3183 -0.0644
  369loPI    C3 5891  16.056  16.493  10.691  0.0541  0.2770 -0.1760
  369loPI   PO4 5892  15.613  16.663  10.297  0.0983  0.1196 -0.2896
  369loPI   GL1 5893  15.318  16.527   9.942 -0.3079 -0.0953 -0.2345
  369loPI   GL2 5894  15.671  16.415   9.860 -0.0529  0.1574 -0.0017
  369loPI   C1A 5895  15.223  16.322   9.529 -0.1239 -0.0827  0.3937
  369loPI   C2A 5896  14.848  16.267   9.243  0.0732 -0.1155  0.0618
  369loPI   C3A 5897  14.798  16.407   8.812 -0.1005 -0.1905 -0.0591
  369loPI   C4A 5898  14.795  16.391   8.383  0.2050 -0.1184 -0.1568
  369loPI   C5A 5899  14.688  16.351   7.955 -0.0142 -0.2648 -0.0171
  369loPI   C6A 5900  14.268  16.363   7.829  0.1348  0.0533  0.2060
  369loPI   C1B 5901  16.035  16.423   9.578 -0.1022 -0.1927 -0.3974
  369loPI   C2B 5902  15.924  16.543   9.182  0.2684  0.1767  0.1280
  369loPI   C3B 5903  15.932  16.355   8.777 -0.1551  0.2628 -0.2687
  369loPI   C4B 5904  15.653  16.143   8.511  0.2690  0.0394 -0.0633
  370loPI    C1 5905   8.110   4.440  10.273 -0.1292 -0.1115 -0.1851
  370loPI    C2 5906   8.449   4.513  10.472 -0.1608  0.0683 -0.1958
  370loPI    C3 5907   8.246   4.176  10.541 -0.1043  0.0700 -0.0159
  370loPI   PO4 5908   8.160   4.480  10.087 -0.4498  0.0026  0.0765
  370loPI   GL1 5909   8.099   4.827   9.833  0.1509  0.1886 -0.0643
  370loPI   GL2 5910   7.824   4.633   9.746 -0.1069  0.0767 -0.0238
  370loPI   C1A 5911   8.023   4.960   9.282  0.0319 -0.0115 -0.3283
  370loPI   C2A 5912   8.114   4.990   8.810  0.0881  0.0903 -0.2495
  370loPI   C3A 5913   8.111   4.940   8.347  0.1395 -0.0133  0.4110
  370loPI   C4A 5914   8.188   4.914   8.024 -0.0812 -0.3706 -0.0076
  370loPI   C5A 5915   8.135   5.202   7.690 -0.0785  0.0287  0.0770
  370loPI   C6A 5916   8.126   5.094   7.384 -0.0711  0.2008  0.2284
  370loPI   C1B 5917   7.825   4.439   9.321 -0.1872  0.3836 -0.0855
  370loPI   C2B 5918   7.878   4.412   8.899  0.0148  0.2449 -0.0765
  370loPI   C3B 5919   7.869   4.446   8.500  0.2210 -0.0651  0.1603
  370loPI   C4B 5920   7.824   4.424   8.127 -0.0947 -0.2040  0.1233
  371loPI    C1 5921  10.088   3.701  10.647 -0.2055 -0.1825 -0.1332
  371loPI    C2 5922   9.791   3.944  10.757 -0.0163 -0.0554  0.1056
  371loPI    C3 5923   9.814   3.575  10.909 -0.1764 -0.1453 -0.0846
  371loPI   PO4 5924  10.071   3.708  10.376 -0.2382 -0.0450  0.0634
  371loPI   GL1 5925  10.098   3.744   9.929 -0.1004  0.2522 -0.1081
  371loPI   GL2 5926  10.354   3.937   9.690 -0.0687  0.1815 -0.3332
  371loPI   C1A 5927   9.893   3.758   9.522  0.0179 -0.0778 -0.0284
  371loPI   C2A 5928   9.954   3.732   9.042  0.2179 -0.2957  0.2022
  371loPI   C3A 5929   9.896   3.654   8.620  0.0281 -0.1312  0.1232
  371loPI   C4A 5930  10.028   3.734   8.232  0.5823 -0.2387 -0.0767
  371loPI   C5A 5931  10.055   3.820   7.799 -0.3814 -0.1857  0.2691
  371loPI   C6A 5932   9.698   3.874   7.550  0.1837 -0.4512 -0.0062
  371loPI   C1B 5933  10.540   3.859   9.415  0.2217 -0.2173  0.0179
  371loPI   C2B 5934  10.514   3.699   9.122 -0.0247 -0.0084 -0.2919
  371loPI   C3B 5935  10.402   3.723   8.735 -0.2467  0.1195 -0.1620
  371loPI   C4B 5936  10.463   3.795   8.375  0.0006 -0.1663 -0.0929
  372loPI    C1 5937   8.686   1.443  10.615 -0.1415  0.2496  0.1261
  372loPI    C2 5938   8.361   1.591  10.794 -0.1894  0.0693  0.1907
  372loPI    C3 5939   8.494   1.227  10.892  0.0089  0.1258  0.1351
  372loPI   PO4 5940   8.608   1.400  10.302 -0.3888 -0.0843 -0.0487
  372loPI   GL1 5941   8.250   1.401  10.012  0.3812 -0.0501  0.0741
  372loPI   GL2 5942   8.111   1.730   9.846 -0.1918  0.0302 -0.0749
  372loPI   C1A 5943   8.225   1.237   9.554  0.1866  0.0971 -0.2472
  372loPI   C2A 5944   8.260   1.207   9.124 -0.3892  0.1722 -0.1570
  372loPI   C3A 5945   8.209   1.328   8.682 -0.2254  0.3416 -0.1491
  372loPI   C4A 5946   8.218   1.324   8.350 -0.0239 -0.2055  0.0675
  372loPI   C5A 5947   8.251   1.454   7.862 -0.0910  0.2114  0.0618
  372loPI   C6A 5948   7.992   1.567   7.543 -0.1095 -0.3662  0.1735
  372loPI   C1B 5949   7.992   1.669   9.395  0.1168  0.2083 -0.1544
  372loPI   C2B 5950   7.940   1.759   8.906 -0.1754 -0.1064  0.3982
  372loPI   C3B 5951   8.018   1.791   8.415  0.0711  0.2451  0.0072
  372loPI   C4B 5952   8.031   1.884   7.997 -0.1718  0.0332  0.2555
  373loPI    C1 5953  17.533  11.646  10.852  0.0135 -0.1204 -0.0483
  373loPI    C2 5954  17.663  11.290  10.725 -0.1854 -0.1961 -0.0426
  373loPI    C3 5955  17.667  11.377  11.115 -0.1677 -0.2046 -0.0409
  373loPI   PO4 5956  17.591  11.850  10.765 -0.0450 -0.0990 -0.1415
  373loPI   GL1 5957  17.863  12.150  10.470  0.0639 -0.1050 -0.5740
  373loPI   GL2 5958  17.875  12.417  10.122  0.0148 -0.0801 -0.2063
  373loPI   C1A 5959  17.712  11.887  10.103 -0.0114  0.1757 -0.1673
  373loPI   C2A 5960  17.723  11.808   9.657 -0.2064  0.2338  0.2109
  373loPI   C3A 5961  17.626  11.934   9.247  0.2044  0.2834  0.1442
  373loPI   C4A 5962  17.698  11.943   8.838 -0.0808 -0.2943  0.2144
  373loPI   C5A 5963  17.695  11.889   8.445  0.0014 -0.2380 -0.2621
  373loPI   C6A 5964  17.648  11.719   7.987 -0.0266 -0.1258 -0.2112
  373loPI   C1B 5965  17.910  12.294   9.821 -0.1932  0.0711  0.3353
  373loPI   C2B 5966  18.010  12.330   9.401  0.1596 -0.3194  0.1688
  373loPI   C3B 5967  17.929  12.360   8.990  0.0677  0.1547 -0.2282
  373loPI   C4B 5968  18.002  12.350   8.591 -0.1788  0.3430  0.1702
  374loPI    C1 5969   5.722  14.615  10.176  0.0200  0.1279 -0.1497
  374loPI    C2 5970   5.857  14.976  10.283  0.1723 -0.0423  0.2514
  374loPI    C3 5971   6.115  14.677  10.220  0.0385 -0.1178  0.0526
  374loPI   PO4 5972   5.587  14.504   9.941  0.2535 -0.2659 -0.0267
  374loPI   GL1 5973   5.371  14.481   9.528  0.1165  0.2094  0.0266
  374loPI   GL2 5974   5.565  14.736   9.489 -0.1042  0.0045 -0.0524
  374loPI   C1A 5975   5.354  14.509   9.075  0.4101 -0.2194  0.1478
  374loPI   C2A 5976   5.245  14.488   8.721 -0.0827  0.4841 -0.2488
  374loPI   C3A 5977   5.289  14.530   8.279 -0.1996  0.1533  0.1913
  374loPI   C4A 5978   5.152  14.556   7.766 -0.0294  0.0120  0.2447
  374loPI   C5A 5979   5.411  14.463   7.392  0.0312  0.1605  0.2983
  374loPI   C6A 5980   5.417  14.834   7.102  0.2888  0.1022  0.0272
  374loPI   C1B 5981   5.690  14.906   9.107  0.1626  0.1837  0.0097
  374loPI   C2B 5982   5.543  14.840   8.666  0.2382  0.0144 -0.0319
  374loPI   C3B 5983   5.549  14.954   8.265 -0.3040  0.1645  0.0739
  374loPI   C4B 5984   5.483  14.958   7.798  0.1771 -0.0076  0.1279
  375loPI    C1 5985  14.023  13.564  10.653 -0.1617  0.0823  0.0190
  375loPI    C2 5986  14.008  13.197  10.810 -0.0818  0.0182 -0.1209
  375loPI    C3 5987  13.952  13.517  11.044 -0.0230 -0.0778  0.0258
  375loPI   PO4 5988  14.193  13.589  10.413  0.0196 -0.1229  0.3222
  375loPI   GL1 5989  13.940  13.574  10.025  0.0904 -0.0973  0.0176
  375loPI   GL2 5990  13.721  13.860  10.021  0.0922  0.2055  0.1241
  375loPI   C1A 5991  13.921  13.613   9.551 -0.2619 -0.1839 -0.1147
  375loPI   C2A 5992  13.962  13.662   9.139 -0.0690  0.0559 -0.0215
  375loPI   C3A 5993  13.990  13.640   8.715  0.0866  0.2036  0.1074
  375loPI   C4A 5994  13.929  13.734   8.241  0.1015  0.1868 -0.1318
  375loPI   C5A 5995  14.236  13.502   7.989  0.0511 -0.1976 -0.0975
  375loPI   C6A 5996  14.346  13.355   7.686 -0.2019 -0.0249  0.0358
  375loPI   C1B 5997  13.696  14.074   9.526 -0.1442  0.0610 -0.2685
  375loPI   C2B 5998  13.680  14.054   8.985  0.0473  0.3145 -0.0194
  375loPI   C3B 5999  13.698  14.045   8.577 -0.0281  0.1624 -0.2159
  375loPI   C4B 6000  13.649  14.106   8.199 -0.1155 -0.1723  0.0819
  376loPI    C1 6001  10.103   0.177  10.563  0.1635  0.1610 -0.0281
  376loPI    C2 6002  10.186   0.568  10.556  0.2612  0.1458  0.1877
  376loPI    C3 6003  10.300   0.345  10.868  0.0663 -0.0243  0.1395
  376loPI   PO4 6004  10.007   0.154  10.277  0.1218  0.1581 -0.3737
  376loPI   GL1 6005  10.109   0.205   9.809 -0.0029 -0.1132 -0.3738
  376loPI   GL2 6006  10.286   0.380   9.543  0.3259  0.0002  0.3116
  376loPI   C1A 6007   9.862   0.419   9.379  0.1378 -0.3627 -0.0659
  376loPI   C2A 6008   9.701   0.424   8.962  0.2214  0.1663 -0.1811
  376loPI   C3A 6009   9.870   0.400   8.555 -0.2657 -0.2199 -0.3165
  376loPI   C4A 6010   9.819   0.570   8.164 -0.2369  0.0769 -0.1038
  376loPI   C5A 6011   9.818   0.490   7.752  0.0647 -0.4215 -0.0883
  376loPI   C6A 6012   9.987   0.714   7.428 -0.0036 -0.2949 -0.4658
  376loPI   C1B 6013  10.278   0.511   9.012 -0.3275  0.1113  0.1013
  376loPI   C2B 6014  10.358   0.467   8.569 -0.1666 -0.0001 -0.1506
  376loPI   C3B 6015  10.396   0.505   8.239 -0.0675  0.0282 -0.0822
  376loPI   C4B 6016  10.326   0.325   7.830 -0.1028  0.2212 -0.1834
  377loPI    C1 6017  13.181  17.409  10.354 -0.0888 -0.0479  0.1992
  377loPI    C2 6018  12.837  17.422  10.150  0.0154  0.1684  0.0322
  377loPI    C3 6019  12.939  17.090  10.349 -0.2105  0.0451 -0.0528
  377loPI   PO4 6020  13.282  17.668  10.214 -0.3495 -0.0974  0.1320
  377loPI   GL1 6021  13.074  17.791   9.873  0.2331 -0.1247  0.0059
  377loPI   GL2 6022  13.173  18.091   9.750 -0.0264 -0.0472  0.0000
  377loPI   C1A 6023  12.870  17.606   9.553  0.3941 -0.0783  0.2325
  377loPI   C2A 6024  12.929  17.561   9.098  0.2321  0.0289  0.0858
  377loPI   C3A 6025  12.944  17.737   8.673 -0.2234  0.0924  0.1167
  377loPI   C4A 6026  12.992  17.694   8.187  0.1402 -0.1298 -0.0139
  377loPI   C5A 6027  13.028  17.579   7.837  0.1145  0.0234  0.6798
  377loPI   C6A 6028  12.986  17.408   7.392 -0.1259  0.3776 -0.0044
  377loPI   C1B 6029  13.193  18.111   9.298  0.1356  0.4195 -0.3640
  377loPI   C2B 6030  13.328  18.124   8.816 -0.1106 -0.2602 -0.2688
  377loPI   C3B 6031  13.258  18.150   8.336 -0.0170  0.3542  0.0154
  377loPI   C4B 6032  13.176  18.134   7.947  0.0737  0.3488  0.1110
  378loPI    C1 6033   2.467   3.265  10.446  0.0669  0.0823 -0.1305
  378loPI    C2 6034   2.395   2.875  10.394 -0.0773  0.0966 -0.0452
  378loPI    C3 6035   2.651   2.996  10.676  0.0070  0.0618 -0.1063
  378loPI   PO4 6036   2.521   3.375  10.193 -0.0024 -0.1040 -0.2808
  378loPI   GL1 6037   2.755   3.561   9.835 -0.3836 -0.1718 -0.3602
  378loPI   GL2 6038   3.002   3.734   9.825  0.2242  0.1231 -0.1312
  378loPI   C1A 6039   2.809   3.468   9.368 -0.0317 -0.2622  0.0088
  378loPI   C2A 6040   2.724   3.401   8.961  0.1508 -0.2128 -0.2320
  378loPI   C3A 6041   2.621   3.411   8.501 -0.1083 -0.0472 -0.1930
  378loPI   C4A 6042   2.545   3.257   8.044 -0.1811  0.0781  0.1687
  378loPI   C5A 6043   2.099   3.304   7.891  0.0721  0.1942  0.0322
  378loPI   C6A 6044   1.807   3.423   7.547  0.2590  0.1614  0.0046
  378loPI   C1B 6045   2.991   3.904   9.350 -0.4107 -0.0521  0.1075
  378loPI   C2B 6046   2.939   3.893   8.913 -0.0011  0.4254  0.2492
  378loPI   C3B 6047   2.880   3.812   8.431 -0.0603  0.0453 -0.0330
  378loPI   C4B 6048   2.805   3.841   8.019 -0.3602  0.0429 -0.2257
  379loPI    C1 6049  18.057  10.179  10.713 -0.0791 -0.1564  0.0920
  379loPI    C2 6050  18.060  10.538  10.538  0.2762 -0.2142 -0.0279
  379loPI    C3 6051  17.940  10.502  10.918  0.1320  0.0129 -0.0500
  379loPI   PO4 6052  18.068  10.011  10.494 -0.2879 -0.1685  0.0589
  379loPI   GL1 6053  17.729   9.855  10.308  0.2015  0.0779 -0.1814
  379loPI   GL2 6054  17.799  10.132  10.095  0.0570  0.1302  0.2172
  379loPI   C1A 6055  17.596   9.732   9.929  0.2495 -0.0995  0.0536
  379loPI   C2A 6056  17.568   9.659   9.560  0.2121  0.0901 -0.1815
  379loPI   C3A 6057  17.497   9.630   9.060 -0.0958  0.1699 -0.0716
  379loPI   C4A 6058  17.458   9.517   8.566  0.2533  0.2065  0.0431
  379loPI   C5A 6059  17.551   9.755   8.169  0.0631 -0.0463  0.1690
  379loPI   C6A 6060  17.397   9.672   7.763  0.0174 -0.3770  0.1462
  379loPI   C1B 6061  17.805  10.094   9.690  0.3142  0.0551 -0.2588
  379loPI   C2B 6062  17.685  10.167   9.284  0.0433  0.4136 -0.2093
  379loPI   C3B 6063  17.674  10.038   8.842  0.2276  0.4223 -0.2899
  379loPI   C4B 6064  17.273   9.990   8.601  0.0124 -0.0319  0.1028
  380loPI    C1 6065   2.895   2.349  10.301  0.1661  0.1681 -0.0995
  380loPI    C2 6066   2.941   2.596  10.612  0.2529 -0.2273  0.2112
  380loPI    C3 6067   2.897   2.203  10.674  0.0085 -0.2832 -0.2671
  380loPI   PO4 6068   2.641   2.421  10.164 -0.0236 -0.3415 -0.0278
  380loPI   GL1 6069   2.512   2.662   9.818  0.2556  0.2212  0.1946
  380loPI   GL2 6070   2.630   3.025   9.763  0.0170 -0.3526  0.0772
  380loPI   C1A 6071   2.292   2.512   9.488  0.2530  0.1271  0.2304
  380loPI   C2A 6072   2.221   2.548   9.127  0.0343 -0.0083  0.2608
  380loPI   C3A 6073   2.132   2.346   8.698 -0.3064 -0.2128  0.1019
  380loPI   C4A 6074   2.270   2.375   8.277 -0.2262  0.1035  0.3286
  380loPI   C5A 6075   2.189   2.439   7.868 -0.0689 -0.3076  0.3371
  380loPI   C6A 6076   2.437   2.589   7.755 -0.1937 -0.1362 -0.1418
  380loPI   C1B 6077   2.549   3.046   9.367 -0.0621  0.0146 -0.2889
  380loPI   C2B 6078   2.467   2.996   8.916 -0.0227  0.1535  0.0636
  380loPI   C3B 6079   2.361   2.753   8.600  0.0587  0.0422  0.2364
  380loPI   C4B 6080   2.409   2.841   8.145 -0.2020 -0.4014 -0.3016
  381loPI    C1 6081   7.838  15.693  10.043  0.0868 -0.0595  0.1375
  381loPI    C2 6082   7.747  15.306  10.086 -0.0777 -0.0273  0.0837
  381loPI    C3 6083   8.130  15.421  10.074 -0.0276 -0.1976  0.0176
  381loPI   PO4 6084   7.602  15.765   9.857  0.2345  0.1436 -0.0905
  381loPI   GL1 6085   7.646  15.703   9.404  0.1255  0.1002 -0.1981
  381loPI   GL2 6086   7.683  16.076   9.259  0.1686  0.1677  0.0114
  381loPI   C1A 6087   7.569  15.671   8.973  0.1162  0.1672  0.0565
  381loPI   C2A 6088   7.727  15.813   8.566  0.0258 -0.0785 -0.1678
  381loPI   C3A 6089   7.831  15.861   8.124 -0.3822  0.0412  0.0609
  381loPI   C4A 6090   7.724  15.950   7.697  0.0566  0.2479 -0.0386
  381loPI   C5A 6091   7.897  15.904   7.313  0.0566  0.1801 -0.0927
  381loPI   C6A 6092   8.014  15.848   6.809 -0.1245  0.1177  0.3494
  381loPI   C1B 6093   7.612  16.258   8.798  0.3216 -0.0914  0.0442
  381loPI   C2B 6094   7.552  16.300   8.381  0.2123  0.0127 -0.1512
  381loPI   C3B 6095   7.406  16.463   7.936 -0.1320 -0.0196  0.1912
  381loPI   C4B 6096   7.355  16.530   7.527 -0.0470 -0.0833  0.0599
  382loPI    C1 6097   5.491   6.878  10.765 -0.3072 -0.2653 -0.0326
  382loPI    C2 6098   5.188   6.932  11.020 -0.0689  0.0792  0.1860
  382loPI    C3 6099   5.527   6.762  11.146 -0.1186 -0.1802 -0.0233
  382loPI   PO4 6100   5.501   7.136  10.540 -0.2267 -0.3035  0.2631
  382loPI   GL1 6101   5.284   7.035  10.053 -0.1944 -0.2144 -0.3539
  382loPI   GL2 6102   5.324   6.730   9.959  0.2355  0.2490 -0.0248
  382loPI   C1A 6103   5.128   7.117   9.630 -0.3160  0.0109 -0.0488
  382loPI   C2A 6104   5.116   7.115   9.270  0.1456  0.0002  0.0693
  382loPI   C3A 6105   5.137   7.201   8.853  0.2133  0.0961  0.0102
  382loPI   C4A 6106   4.999   7.119   8.462  0.0541 -0.2529 -0.1430
  382loPI   C5A 6107   5.021   6.989   8.114  0.1280  0.1836  0.0533
  382loPI   C6A 6108   5.268   6.705   8.015 -0.2100  0.3926 -0.2933
  382loPI   C1B 6109   5.371   6.692   9.462 -0.0759 -0.1162  0.1339
  382loPI   C2B 6110   5.400   6.826   9.016  0.1526 -0.0811  0.2745
  382loPI   C3B 6111   5.416   6.841   8.664 -0.0694  0.1490  0.1075
  382loPI   C4B 6112   5.616   6.812   8.346  0.0426 -0.0454 -0.0339
  383loPI    C1 6113   2.236  18.136  10.396 -0.0736  0.0162 -0.3610
  383loPI    C2 6114   1.886  18.261  10.543  0.0712  0.0028  0.0047
  383loPI    C3 6115   2.228  18.388  10.706  0.2433  0.1285 -0.4400
  383loPI   PO4 6116   2.175  18.120  10.133 -0.4116 -0.1006  0.0215
  383loPI   GL1 6117   2.013  18.110   9.671  0.0318  0.0693 -0.1516
  383loPI   GL2 6118   1.625  18.086   9.549 -0.0421 -0.3211  0.0624
  383loPI   C1A 6119   2.154  17.972   9.257  0.1961  0.1541 -0.0825
  383loPI   C2A 6120   2.048  18.142   8.809 -0.0058  0.0868 -0.0499
  383loPI   C3A 6121   2.049  18.072   8.459  0.0555 -0.0683  0.2019
  383loPI   C4A 6122   2.015  18.090   8.100  0.3444  0.0693 -0.1434
  383loPI   C5A 6123   1.942  18.010   7.658 -0.1422 -0.1111 -0.1271
  383loPI   C6A 6124   1.929  17.996   7.192 -0.1871 -0.1530 -0.2077
  383loPI   C1B 6125   1.667  18.129   9.130 -0.2661 -0.0344  0.2255
  383loPI   C2B 6126   1.584  18.173   8.679  0.0141 -0.0265  0.1040
  383loPI   C3B 6127   1.539  18.043   8.245  0.0695 -0.0154 -0.0177
  383loPI   C4B 6128   1.495  17.971   7.828 -0.1862  0.3001 -0.3169
  384loPI    C1 6129   3.255   1.363  10.338 -0.0458 -0.0500 -0.0674
  384loPI    C2 6130   3.398   1.014  10.472  0.1246 -0.0538 -0.2541
  384loPI    C3 6131   3.601   1.352  10.538 -0.1473  0.0435  0.1151
  384loPI   PO4 6132   3.020   1.295  10.290 -0.0148 -0.0750 -0.0179
  384loPI   GL1 6133   2.853   1.367   9.882  0.0893 -0.2406  0.1161
  384loPI   GL2 6134   3.226   1.404   9.826  0.0053  0.1162  0.1917
  384loPI   C1A 6135   2.820   1.617   9.478  0.1541 -0.0653 -0.0792
  384loPI   C2A 6136   2.768   1.691   8.971 -0.5661  0.1205  0.0367
  384loPI   C3A 6137   2.724   1.447   8.552 -0.2806 -0.0942  0.3392
  384loPI   C4A 6138   2.785   1.564   8.092 -0.1241  0.2838 -0.0701
  384loPI   C5A 6139   2.561   1.629   7.617  0.0452 -0.0934 -0.2849
  384loPI   C6A 6140   2.586   1.690   7.200 -0.3685 -0.0920 -0.0621
  384loPI   C1B 6141   3.010   1.165   9.361  0.2958 -0.3690  0.4010
  384loPI   C2B 6142   3.048   1.170   8.930  0.0385  0.3579  0.1486
  384loPI   C3B 6143   2.999   1.007   8.485  0.1611  0.2956  0.0201
  384loPI   C4B 6144   2.990   1.074   7.967 -0.0919  0.0300  0.0970
  385loPI    C1 6145   5.390   0.976  10.273  0.1441 -0.0243 -0.0427
  385loPI    C2 6146   5.571   1.182  10.564  0.1747 -0.0284 -0.0588
  385loPI    C3 6147   5.774   1.080  10.236  0.0826  0.1609 -0.1763
  385loPI   PO4 6148   5.157   1.118  10.228 -0.1008  0.1370 -0.1767
  385loPI   GL1 6149   4.987   1.409   9.902 -0.0259  0.0133 -0.0112
  385loPI   GL2 6150   5.153   1.623   9.740 -0.0125 -0.0635 -0.3371
  385loPI   C1A 6151   5.062   1.164   9.470 -0.0157  0.1873 -0.3762
  385loPI   C2A 6152   5.173   1.146   8.957  0.0963 -0.0870  0.1860
  385loPI   C3A 6153   5.072   1.242   8.485  0.0418 -0.0677  0.3655
  385loPI   C4A 6154   5.010   1.190   7.982  0.2232  0.0727  0.0405
  385loPI   C5A 6155   4.856   1.451   7.631 -0.1124 -0.0811 -0.1635
  385loPI   C6A 6156   4.549   1.783   7.327 -0.1268  0.0241 -0.3640
  385loPI   C1B 6157   4.918   1.683   9.341 -0.0598  0.4633 -0.0160
  385loPI   C2B 6158   4.795   1.711   8.839 -0.0673  0.0779  0.0394
  385loPI   C3B 6159   4.770   1.687   8.417 -0.2469  0.0610 -0.0781
  385loPI   C4B 6160   4.664   1.850   7.962  0.1440  0.4432  0.0804
  386loPI    C1 6161  10.868   4.285  10.209 -0.3015 -0.1659 -0.0958
  386loPI    C2 6162  10.622   4.513  10.428  0.1542 -0.0287  0.2908
  386loPI    C3 6163  10.802   4.196  10.594  0.0935 -0.2425 -0.0416
  386loPI   PO4 6164  10.680   4.306   9.967  0.0818  0.0167  0.0148
  386loPI   GL1 6165  10.850   4.335   9.632  0.0220 -0.2953  0.2324
  386loPI   GL2 6166  10.885   4.700   9.618 -0.1153 -0.1121 -0.4620
  386loPI   C1A 6167  10.865   4.148   9.182  0.0490  0.1779  0.3585
  386loPI   C2A 6168  10.656   4.166   8.718  0.1122 -0.1076  0.0471
  386loPI   C3A 6169  10.688   4.232   8.237  0.1638  0.0820  0.3655
  386loPI   C4A 6170  10.635   4.051   7.851 -0.1224 -0.2416  0.0198
  386loPI   C5A 6171  10.511   3.765   7.582 -0.0723 -0.2234  0.0340
  386loPI   C6A 6172  10.174   3.597   7.357  0.0338  0.3636  0.0032
  386loPI   C1B 6173  10.999   4.606   9.231 -0.4813 -0.2131  0.0265
  386loPI   C2B 6174  10.945   4.624   8.846 -0.1075 -0.0104  0.2909
  386loPI   C3B 6175  10.877   4.651   8.346 -0.2294 -0.0332 -0.1950
  386loPI   C4B 6176  10.857   4.643   7.898  0.0277 -0.0024 -0.2681
  387loPI    C1 6177   4.631   6.301  10.130 -0.2131  0.3658  0.0625
  387loPI    C2 6178   4.753   6.314  10.511  0.0449 -0.0080 -0.0026
  387loPI    C3 6179   5.011   6.392  10.215 -0.0347 -0.1718 -0.1172
  387loPI   PO4 6180   4.427   6.503  10.068 -0.2284  0.0311 -0.0364
  387loPI   GL1 6181   4.318   6.687   9.743 -0.1186 -0.0508  0.2464
  387loPI   GL2 6182   3.938   6.643   9.845  0.1948 -0.0999  0.2434
  387loPI   C1A 6183   4.388   6.672   9.309 -0.1544  0.0069 -0.0759
  387loPI   C2A 6184   4.388   6.631   8.871  0.2230  0.0589 -0.2873
  387loPI   C3A 6185   4.241   6.700   8.474  0.3077  0.0175  0.0263
  387loPI   C4A 6186   4.213   6.695   8.078 -0.1901  0.1245 -0.0935
  387loPI   C5A 6187   4.565   6.780   7.889 -0.2287 -0.0013 -0.1231
  387loPI   C6A 6188   4.919   6.577   7.736 -0.0083  0.2637  0.0474
  387loPI   C1B 6189   3.793   6.572   9.380  0.4691  0.0543 -0.2882
  387loPI   C2B 6190   3.870   6.704   8.913  0.0790  0.1149 -0.2786
  387loPI   C3B 6191   3.728   6.593   8.549  0.0576  0.0547 -0.2317
  387loPI   C4B 6192   3.802   6.404   8.112  0.0749 -0.0215  0.3292
  388loPI    C1 6193  11.152   9.677   9.653  0.0073 -0.0264  0.1204
  388loPI    C2 6194  11.084   9.705  10.047 -0.0150 -0.1273  0.1242
  388loPI    C3 6195  10.849   9.901   9.789  0.0354 -0.0142  0.1634
  388loPI   PO4 6196  11.404   9.521   9.679 -0.0716 -0.0932  0.0675
  388loPI   GL1 6197  11.766   9.477   9.414  0.4190  0.4233 -0.3991
  388loPI   GL2 6198  11.862   9.733   9.523 -0.1714 -0.1149 -0.1345
  388loPI   C1A 6199  11.854   9.333   9.109  0.2091 -0.2504 -0.0293
  388loPI   C2A 6200  11.937   9.323   8.625  0.2169 -0.5530 -0.2400
  388loPI   C3A 6201  11.896   9.300   8.190  0.1319  0.0699  0.0131
  388loPI   C4A 6202  11.958   9.627   7.797 -0.1073 -0.0919 -0.0118
  388loPI   C5A 6203  11.878   9.865   7.499 -0.1603  0.0268  0.0352
  388loPI   C6A 6204  11.764   9.701   7.175 -0.0668  0.0688  0.1867
  388loPI   C1B 6205  12.028   9.793   9.063  0.0707 -0.0755  0.4000
  388loPI   C2B 6206  12.105   9.806   8.627  0.1323  0.0098  0.2625
  388loPI   C3B 6207  12.155   9.744   8.265 -0.3045 -0.1313 -0.3728
  388loPI   C4B 6208  12.295   9.995   7.895  0.0703  0.1262  0.1965
  389loPI    C1 6209  16.406   4.445  10.772 -0.0030 -0.2276 -0.0803
  389loPI    C2 6210  16.053   4.606  10.675  0.0001 -0.0905  0.1289
  389loPI    C3 6211  16.308   4.808  10.908  0.1695 -0.2369  0.0732
  389loPI   PO4 6212  16.523   4.405  10.554 -0.1095  0.2618  0.4475
  389loPI   GL1 6213  16.544   4.450  10.197  0.1187 -0.1211  0.1678
  389loPI   GL2 6214  16.985   4.565  10.331 -0.1660 -0.1071  0.0495
  389loPI   C1A 6215  16.410   4.488   9.697  0.0382 -0.4062  0.0404
  389loPI   C2A 6216  16.494   4.574   9.295  0.0833  0.0517  0.0530
  389loPI   C3A 6217  16.485   4.605   8.983  0.1494 -0.2405 -0.0952
  389loPI   C4A 6218  16.610   4.412   8.578  0.0079  0.0359  0.3229
  389loPI   C5A 6219  16.728   4.333   8.157  0.0671  0.1495 -0.1170
  389loPI   C6A 6220  17.055   4.604   7.986  0.2061  0.0370  0.0174
  389loPI   C1B 6221  17.056   4.541   9.909  0.1592 -0.0026 -0.0897
  389loPI   C2B 6222  16.996   4.528   9.451  0.1093 -0.1468 -0.2872
  389loPI   C3B 6223  17.029   4.615   9.019  0.0178 -0.4470  0.1412
  389loPI   C4B 6224  17.113   4.605   8.543 -0.2641  0.0607  0.0502
  390loPI    C1 6225  15.396  13.108  11.031 -0.1270  0.2046  0.0952
  390loPI    C2 6226  15.355  12.722  11.128  0.2159  0.1394 -0.0069
  390loPI    C3 6227  15.582  12.961  11.354  0.2814  0.1999 -0.1361
  390loPI   PO4 6228  15.416  13.093  10.706 -0.1305  0.2022  0.2571
  390loPI   GL1 6229  15.695  13.230  10.392 -0.0246 -0.2134  0.3458
  390loPI   GL2 6230  15.744  12.834  10.328  0.3768  0.0610 -0.0578
  390loPI   C1A 6231  15.754  13.235   9.987  0.1111 -0.0487 -0.2491
  390loPI   C2A 6232  15.757  13.343   9.591  0.2673  0.0518 -0.1889
  390loPI   C3A 6233  15.816  13.310   9.133  0.0804 -0.1571  0.2460
  390loPI   C4A 6234  15.840  13.274   8.720  0.3137 -0.2784  0.1862
  390loPI   C5A 6235  15.896  13.181   8.324 -0.1404 -0.1780 -0.4650
  390loPI   C6A 6236  16.359  12.988   8.203  0.0046 -0.1068 -0.2996
  390loPI   C1B 6237  15.600  12.724   9.833  0.0265 -0.0170 -0.0071
  390loPI   C2B 6238  15.535  12.726   9.389 -0.1029 -0.0343  0.0538
  390loPI   C3B 6239  15.630  12.821   9.029  0.0340 -0.3169 -0.2715
  390loPI   C4B 6240  15.530  12.895   8.554 -0.0703 -0.1124  0.2969
  391loPI    C1 6241   6.544  13.530  10.170  0.2351 -0.2322 -0.1726
  391loPI    C2 6242   6.867  13.391  10.361  0.3275 -0.1583 -0.2739
  391loPI    C3 6243   6.879  13.748  10.181  0.0907 -0.0142 -0.0115
  391loPI   PO4 6244   6.483  13.373   9.989 -0.1911 -0.2590  0.1290
  391loPI   GL1 6245   6.491  13.307   9.589  0.4436 -0.0946 -0.0578
  391loPI   GL2 6246   6.319  13.438   9.374  0.0988 -0.1128 -0.0940
  391loPI   C1A 6247   6.801  13.215   9.137  0.3926  0.0041 -0.1960
  391loPI   C2A 6248   7.000  13.169   8.734 -0.0449 -0.0480 -0.1077
  391loPI   C3A 6249   6.662  13.164   8.398 -0.4163  0.0272  0.2914
  391loPI   C4A 6250   6.627  13.174   7.924  0.0051  0.0990 -0.0186
  391loPI   C5A 6251   6.442  13.254   7.458  0.0412 -0.1631  0.2730
  391loPI   C6A 6252   5.993  13.435   7.310 -0.0093 -0.1429  0.0830
  391loPI   C1B 6253   6.255  13.152   9.010  0.1363  0.2986 -0.2068
  391loPI   C2B 6254   6.208  13.134   8.586 -0.1882 -0.2626  0.3431
  391loPI   C3B 6255   6.145  13.066   8.104 -0.2854 -0.0679 -0.4180
  391loPI   C4B 6256   6.024  13.234   7.780 -0.2294 -0.0156  0.3178
  392loPI    C1 6257   8.520  10.727   9.842 -0.2821 -0.0487 -0.2511
  392loPI    C2 6258   8.310  11.059   9.915 -0.2103 -0.0314 -0.1212
  392loPI    C3 6259   8.198  10.712  10.078 -0.3180 -0.0824 -0.3022
  392loPI   PO4 6260   8.567  10.621   9.448  0.0894 -0.0058 -0.1375
  392loPI   GL1 6261   8.842  10.440   9.144 -0.4982  0.0639 -0.2547
  392loPI   GL2 6262   8.520  10.437   9.020 -0.1486 -0.0206  0.2400
  392loPI   C1A 6263   9.233  10.334   8.969 -0.1542 -0.1362  0.1439
  392loPI   C2A 6264   9.447  10.557   8.673  0.0506  0.1650  0.0699
  392loPI   C3A 6265   9.498  10.615   8.241  0.0221  0.1586 -0.0962
  392loPI   C4A 6266   9.786  10.571   7.943 -0.3173 -0.0053  0.0311
  392loPI   C5A 6267   9.982  10.534   7.561  0.3515 -0.5833 -0.0195
  392loPI   C6A 6268   9.911  10.277   7.115 -0.1731  0.1727 -0.1914
  392loPI   C1B 6269   8.600  10.244   8.641 -0.1446 -0.1092  0.1387
  392loPI   C2B 6270   8.472  10.078   8.207  0.2575  0.1210  0.2459
  392loPI   C3B 6271   8.478  10.091   7.673  0.1420 -0.0461  0.1723
  392loPI   C4B 6272   8.640  10.012   7.261 -0.3443  0.1549  0.1655
  393loPI    C1 6273   0.012  11.746  10.450  0.2007 -0.1046 -0.2609
  393loPI    C2 6274  -0.038  12.132  10.359 -0.1645 -0.0505  0.1379
  393loPI    C3 6275   0.155  12.029  10.694  0.0540 -0.2203 -0.0374
  393loPI   PO4 6276   0.126  11.612  10.251  0.1953  0.3816  0.1678
  393loPI   GL1 6277   0.090  11.421   9.834  0.1333  0.0367 -0.2741
  393loPI   GL2 6278  -0.237  11.424   9.785  0.1640  0.3055 -0.1767
  393loPI   C1A 6279   0.101  11.425   9.379 -0.4007 -0.1143 -0.0724
  393loPI   C2A 6280   0.178  11.356   8.971 -0.1755  0.0904  0.0075
  393loPI   C3A 6281   0.137  11.507   8.568 -0.0873 -0.1164 -0.2902
  393loPI   C4A 6282   0.063  11.658   8.237 -0.0188 -0.0279  0.0006
  393loPI   C5A 6283  -0.100  11.683   7.727 -0.2336  0.1045  0.2136
  393loPI   C6A 6284  -0.169  12.188   7.581  0.3016 -0.2697  0.0371
  393loPI   C1B 6285  -0.385  11.490   9.348 -0.1086 -0.0509 -0.0941
  393loPI   C2B 6286  -0.306  11.431   8.867 -0.1689  0.0307  0.2074
  393loPI   C3B 6287  -0.368  11.524   8.424  0.0627  0.0853  0.3642
  393loPI   C4B 6288  -0.534  11.562   7.978  0.0457 -0.0525  0.1604
  394loPI    C1 6289  14.068   0.336  10.686  0.1848  0.1967  0.0515
  394loPI    C2 6290  14.091   0.070  10.984 -0.0987 -0.0439 -0.1352
  394loPI    C3 6291  14.058   0.460  11.066  0.1343 -0.0787  0.1425
  394loPI   PO4 6292  14.194   0.227  10.543  0.0030 -0.2437 -0.1836
  394loPI   GL1 6293  14.270   0.318  10.087 -0.0737  0.1055 -0.1041
  394loPI   GL2 6294  14.047   0.473  10.093 -0.0345 -0.0938  0.1820
  394loPI   C1A 6295  14.290   0.271   9.669  0.1630 -0.0350  0.0288
  394loPI   C2A 6296  14.256   0.288   9.322 -0.0932  0.1703  0.0039
  394loPI   C3A 6297  14.187   0.287   8.932 -0.1423 -0.1987 -0.2323
  394loPI   C4A 6298  14.292   0.248   8.589  0.0461 -0.2694  0.1023
  394loPI   C5A 6299  14.343   0.105   8.146  0.0317 -0.2393  0.1006
  394loPI   C6A 6300  14.569  -0.017   7.818 -0.1276  0.1946  0.0969
  394loPI   C1B 6301  13.937   0.711   9.640  0.0738 -0.0994 -0.3523
  394loPI   C2B 6302  14.068   0.764   9.240 -0.1486 -0.2191  0.1288
  394loPI   C3B 6303  14.027   0.711   8.735 -0.1651 -0.0112 -0.0085
  394loPI   C4B 6304  14.052   0.653   8.349 -0.3777 -0.1967 -0.2857
  395loPI    C1 6305   7.528  12.091  10.177  0.0737  0.1987 -0.0671
  395loPI    C2 6306   7.677  12.423  10.342  0.0294  0.1547  0.0622
  395loPI    C3 6307   7.296  12.321  10.407 -0.0034  0.1647 -0.1105
  395loPI   PO4 6308   7.589  12.112   9.957  0.2077  0.0530  0.0031
  395loPI   GL1 6309   7.566  12.027   9.517  0.1491 -0.2972  0.2191
  395loPI   GL2 6310   7.915  12.193   9.528  0.1332 -0.0382  0.1888
  395loPI   C1A 6311   7.529  11.910   8.981  0.0347 -0.2345 -0.1309
  395loPI   C2A 6312   7.419  11.785   8.563 -0.0439  0.0050  0.0888
  395loPI   C3A 6313   7.457  11.741   8.176 -0.4297  0.0688  0.0591
  395loPI   C4A 6314   7.372  11.534   7.746  0.4930  0.0057  0.1367
  395loPI   C5A 6315   7.033  11.302   7.638  0.0556  0.2672 -0.1706
  395loPI   C6A 6316   6.633  11.047   7.627  0.4414  0.3969 -0.3640
  395loPI   C1B 6317   7.926  12.248   9.115 -0.0960  0.0753 -0.3789
  395loPI   C2B 6318   7.929  12.194   8.775 -0.1129  0.0689 -0.1589
  395loPI   C3B 6319   7.765  12.098   8.339  0.1470  0.3435 -0.2584
  395loPI   C4B 6320   7.684  12.214   8.031 -0.1770 -0.2304  0.2962
  396loPI    C1 6321   0.862  10.642  10.387  0.1578  0.0057 -0.0971
  396loPI    C2 6322   0.943  10.606  10.777  0.0270 -0.2126 -0.0883
  396loPI    C3 6323   0.607  10.449  10.627 -0.0292  0.0577 -0.2515
  396loPI   PO4 6324   0.812  10.808  10.268  0.0850 -0.1323  0.0747
  396loPI   GL1 6325   0.837  11.026   9.909 -0.1301 -0.1346 -0.3592
  396loPI   GL2 6326   0.783  10.662   9.755 -0.1445 -0.3905  0.0760
  396loPI   C1A 6327   0.540  11.161   9.470  0.2388  0.0430 -0.2845
  396loPI   C2A 6328   0.452  10.949   9.002 -0.0920  0.0088 -0.0678
  396loPI   C3A 6329   0.343  11.001   8.572  0.1713 -0.1168 -0.1484
  396loPI   C4A 6330   0.671  11.096   8.245 -0.1229 -0.3287 -0.1602
  396loPI   C5A 6331   0.901  10.875   7.905 -0.0584  0.0759 -0.1385
  396loPI   C6A 6332   1.308  10.793   7.704  0.2352  0.0530 -0.0054
  396loPI   C1B 6333   0.772  10.678   9.336  0.3626 -0.1678 -0.1525
  396loPI   C2B 6334   0.651  10.549   8.825 -0.1563  0.0694 -0.2674
  396loPI   C3B 6335   0.588  10.549   8.367 -0.2187  0.2006 -0.0933
  396loPI   C4B 6336   0.571  10.496   7.951  0.0230  0.0977 -0.0420
  397loPI    C1 6337   9.085  14.595  10.247 -0.0111 -0.2310  0.0617
  397loPI    C2 6338   9.479  14.548  10.199  0.0747  0.2195  0.2752
  397loPI    C3 6339   9.319  14.528  10.565 -0.1186 -0.0587  0.1787
  397loPI   PO4 6340   9.022  14.728  10.119 -0.1309  0.3465  0.1246
  397loPI   GL1 6341   9.239  14.711   9.782  0.2357  0.0489  0.4674
  397loPI   GL2 6342   9.460  14.462   9.581  0.1806  0.0159  0.1976
  397loPI   C1A 6343   9.272  14.958   9.414 -0.1871 -0.4792  0.0693
  397loPI   C2A 6344   9.123  15.015   8.906 -0.1116  0.1637 -0.1199
  397loPI   C3A 6345   9.027  14.969   8.552  0.3425  0.2023  0.1392
  397loPI   C4A 6346   8.843  14.912   8.136 -0.2260 -0.0239 -0.1704
  397loPI   C5A 6347   8.652  14.590   7.857 -0.2475  0.1624  0.0460
  397loPI   C6A 6348   8.544  14.230   7.831  0.0148 -0.0063  0.2070
  397loPI   C1B 6349   9.376  14.493   9.201  0.0979  0.2791 -0.3011
  397loPI   C2B 6350   9.260  14.570   8.804  0.1960 -0.2708  0.0978
  397loPI   C3B 6351   9.271  14.580   8.303  0.0084 -0.0207 -0.1316
  397loPI   C4B 6352   9.191  14.627   7.944 -0.0576  0.4176 -0.3747
  398loPI    C1 6353  13.358  10.580  10.488 -0.1210  0.0919 -0.0154
  398loPI    C2 6354  13.467  10.322  10.774  0.3536  0.2381 -0.0556
  398loPI    C3 6355  13.263  10.653  10.869 -0.0481 -0.0249  0.0258
  398loPI   PO4 6356  13.266  10.437  10.305  0.2404  0.3339  0.0181
  398loPI   GL1 6357  13.284  10.477   9.924 -0.0766  0.0448  0.3232
  398loPI   GL2 6358  13.316  10.795   9.792 -0.0571 -0.1487 -0.0497
  398loPI   C1A 6359  13.180  10.405   9.498  0.1922  0.0615 -0.0342
  398loPI   C2A 6360  13.341  10.428   9.075 -0.0753  0.1706 -0.2172
  398loPI   C3A 6361  13.362  10.418   8.630  0.0221 -0.1591  0.2411
  398loPI   C4A 6362  13.438  10.325   8.214 -0.0636  0.1015  0.2482
  398loPI   C5A 6363  13.363  10.323   7.677  0.0033  0.2608  0.1716
  398loPI   C6A 6364  12.998  10.488   7.397 -0.2453 -0.1704 -0.1831
  398loPI   C1B 6365  13.679  10.544   9.640 -0.2213  0.2119  0.2055
  398loPI   C2B 6366  13.816  10.493   9.184 -0.3067  0.0648  0.3027
  398loPI   C3B 6367  13.938  10.386   8.730 -0.0121  0.0493 -0.0675
  398loPI   C4B 6368  13.937  10.330   8.252  0.0629 -0.2391 -0.3424
  399loPI    C1 6369   2.814  14.884  10.200 -0.3540 -0.1236 -0.1001
  399loPI    C2 6370   2.487  14.857  10.429 -0.2893 -0.1541 -0.0108
  399loPI    C3 6371   2.848  14.890  10.598 -0.2452 -0.1280 -0.1090
  399loPI   PO4 6372   2.802  14.788   9.995  0.0069  0.2332  0.0978
  399loPI   GL1 6373   3.037  14.834   9.710 -0.0163  0.1316 -0.0370
  399loPI   GL2 6374   3.119  15.199   9.760  0.0727 -0.3428  0.1171
  399loPI   C1A 6375   2.946  14.938   9.321  0.1283 -0.0782 -0.0138
  399loPI   C2A 6376   2.971  14.998   8.827 -0.1073  0.0794 -0.0867
  399loPI   C3A 6377   2.905  14.975   8.455  0.1974 -0.5103  0.0475
  399loPI   C4A 6378   2.868  14.857   8.107  0.1943 -0.0962 -0.2327
  399loPI   C5A 6379   2.770  14.698   7.733 -0.3369  0.2329  0.2489
  399loPI   C6A 6380   2.494  14.725   7.339  0.1514  0.1603 -0.0377
  399loPI   C1B 6381   3.236  15.356   9.359  0.1494  0.0058 -0.2443
  399loPI   C2B 6382   3.181  15.412   8.954  0.0146 -0.1379  0.0132
  399loPI   C3B 6383   3.228  15.461   8.436  0.2932 -0.0593  0.0105
  399loPI   C4B 6384   3.162  15.372   7.996 -0.0964 -0.3252 -0.0164
  400loPI    C1 6385  16.026   4.106  11.026  0.1148  0.0313 -0.2109
  400loPI    C2 6386  16.333   4.207  11.262  0.0985  0.0491 -0.1971
  400loPI    C3 6387  16.013   4.446  11.236 -0.0092 -0.0767 -0.0414
  400loPI   PO4 6388  16.082   4.049  10.800  0.1969 -0.0955 -0.1974
  400loPI   GL1 6389  16.251   4.014  10.486 -0.3444 -0.2306  0.0772
  400loPI   GL2 6390  16.031   4.220  10.301  0.3431  0.1693 -0.1042
  400loPI   C1A 6391  16.313   4.009   9.917  0.2217 -0.1047  0.3382
  400loPI   C2A 6392  16.253   4.031   9.421 -0.0078  0.0430 -0.1289
  400loPI   C3A 6393  16.364   4.140   8.922  0.1103  0.1909 -0.3549
  400loPI   C4A 6394  16.380   4.010   8.465  0.1104  0.0502  0.1067
  400loPI   C5A 6395  16.539   3.795   8.116  0.0445 -0.0732  0.1946
  400loPI   C6A 6396  16.817   3.526   7.817 -0.2135  0.2345  0.0396
  400loPI   C1B 6397  15.967   4.524   9.857 -0.0774 -0.2594  0.0378
  400loPI   C2B 6398  15.915   4.441   9.442  0.2467 -0.0046  0.0573
  400loPI   C3B 6399  16.009   4.564   9.009 -0.0390  0.0614 -0.1594
  400loPI   C4B 6400  15.978   4.543   8.611  0.0879  0.0247 -0.1554
  401loPI    C1 6401   0.059  17.093  10.456  0.0107 -0.1622 -0.1823
  401loPI    C2 6402  -0.049  17.409  10.674  0.0178 -0.2194 -0.0955
  401loPI    C3 6403  -0.247  17.064  10.712 -0.0176 -0.2132 -0.2220
  401loPI   PO4 6404   0.091  17.055  10.161  0.1518 -0.1605  0.1853
  401loPI   GL1 6405  -0.017  17.208   9.839  0.0214  0.1604  0.2698
  401loPI   GL2 6406   0.142  16.965   9.636 -0.0483  0.0392  0.1564
  401loPI   C1A 6407   0.353  17.481   9.471  0.0813 -0.1370  0.0065
  401loPI   C2A 6408   0.410  17.538   8.999  0.4561  0.0459 -0.1369
  401loPI   C3A 6409   0.295  17.527   8.597  0.2403 -0.1944 -0.2028
  401loPI   C4A 6410   0.297  17.458   8.162 -0.1353  0.1368  0.2797
  401loPI   C5A 6411   0.096  17.364   7.742 -0.4960  0.0165  0.1072
  401loPI   C6A 6412   0.085  17.275   7.348  0.3773 -0.1326  0.0233
  401loPI   C1B 6413   0.095  17.081   9.110  0.0503  0.2574 -0.1061
  401loPI   C2B 6414  -0.064  17.057   8.651  0.1781 -0.0781 -0.1851
  401loPI   C3B 6415  -0.015  17.024   8.126 -0.1249 -0.1680 -0.0369
  401loPI   C4B 6416  -0.180  16.910   7.704 -0.0026 -0.0100 -0.0375
  402loPI    C1 6417   9.013  10.723   9.646 -0.2400 -0.2046 -0.1025
  402loPI    C2 6418   9.197  10.392   9.518 -0.0791 -0.2146  0.1485
  402loPI    C3 6419   9.261  10.526   9.890 -0.4003 -0.0864  0.1610
  402loPI   PO4 6420   9.042  10.915   9.411 -0.1795  0.0285 -0.1172
  402loPI   GL1 6421   8.927  11.234   9.097  0.0921 -0.1583  0.0671
  402loPI   GL2 6422   8.700  10.966   9.060  0.0181 -0.2103  0.1375
  402loPI   C1A 6423   8.885  11.236   8.655 -0.0780 -0.0664  0.1824
  402loPI   C2A 6424   8.846  11.083   8.355 -0.1271 -0.1069  0.0112
  402loPI   C3A 6425   8.772  11.193   7.999 -0.5256 -0.0326  0.1209
  402loPI   C4A 6426   8.913  11.457   7.679 -0.0628 -0.0630  0.0141
  402loPI   C5A 6427   9.020  11.836   7.381 -0.1370 -0.0185 -0.1498
  402loPI   C6A 6428   8.858  12.100   7.115 -0.0206  0.2389 -0.0335
  402loPI   C1B 6429   8.526  10.851   8.688 -0.1571  0.2206  0.0025
  402loPI   C2B 6430   8.416  10.609   8.351 -0.0245  0.0100 -0.2883
  402loPI   C3B 6431   8.545  10.592   7.919  0.1988 -0.0440 -0.2664
  402loPI   C4B 6432   8.519  10.630   7.542  0.1350  0.0388  0.2324
  403loPI    C1 6433   7.026   4.411  10.707  0.0480 -0.0239 -0.1131
  403loPI    C2 6434   7.196   4.752  10.830 -0.2290  0.1124 -0.1001
  403loPI    C3 6435   7.291   4.406  11.007 -0.0834  0.2074  0.0099
  403loPI   PO4 6436   7.125   4.376  10.399  0.1776 -0.3952  0.1388
  403loPI   GL1 6437   7.125   4.186  10.045 -0.1168 -0.1105 -0.2147
  403loPI   GL2 6438   6.821   4.388   9.887 -0.1685 -0.0745 -0.0659
  403loPI   C1A 6439   7.110   3.999   9.604 -0.2399  0.0612 -0.1867
  403loPI   C2A 6440   7.031   4.031   9.125  0.1108 -0.0637 -0.0284
  403loPI   C3A 6441   7.104   4.026   8.762  0.0803 -0.1113  0.2109
  403loPI   C4A 6442   7.110   3.978   8.328 -0.1012 -0.1491 -0.1023
  403loPI   C5A 6443   7.048   3.960   7.779  0.0388 -0.1125  0.1460
  403loPI   C6A 6444   7.204   3.992   7.312  0.4041 -0.1243 -0.0430
  403loPI   C1B 6445   6.815   4.389   9.420  0.0734 -0.0413  0.0126
  403loPI   C2B 6446   6.782   4.432   8.953  0.0008  0.0545 -0.0087
  403loPI   C3B 6447   6.792   4.442   8.528 -0.0338  0.1706  0.2656
  403loPI   C4B 6448   6.827   4.365   8.104 -0.0624  0.0676  0.2189
  404loPI    C1 6449  12.294   4.730  10.088 -0.0976  0.0188  0.0159
  404loPI    C2 6450  11.906   4.637  10.057 -0.0978 -0.0255  0.1464
  404loPI    C3 6451  12.186   4.358   9.989 -0.0900 -0.0085  0.1092
  404loPI   PO4 6452  12.325   4.923   9.967  0.0234 -0.1148  0.0468
  404loPI   GL1 6453  12.223   5.121   9.552  0.3707  0.0165 -0.0307
  404loPI   GL2 6454  11.973   5.002   9.645  0.0304  0.3269  0.2875
  404loPI   C1A 6455  12.299   5.314   9.138 -0.0357 -0.3156  0.1880
  404loPI   C2A 6456  12.182   5.269   8.822  0.4122 -0.2530  0.2959
  404loPI   C3A 6457  12.214   5.152   8.289  0.0845 -0.1770 -0.1638
  404loPI   C4A 6458  12.349   5.341   7.904 -0.1712 -0.0280  0.0259
  404loPI   C5A 6459  12.290   5.764   7.754 -0.0405 -0.3019  0.2661
  404loPI   C6A 6460  12.175   6.268   7.623 -0.3307  0.1480  0.4356
  404loPI   C1B 6461  11.768   5.096   9.232 -0.1552  0.0333 -0.2991
  404loPI   C2B 6462  11.726   5.178   8.821  0.0568  0.0686 -0.0523
  404loPI   C3B 6463  11.625   5.139   8.389 -0.0942  0.0490 -0.1786
  404loPI   C4B 6464  11.645   5.047   7.956  0.0011 -0.1984 -0.0548
  405loPI    C1 6465   0.139   5.816  10.536 -0.0880  0.0503  0.2292
  405loPI    C2 6466  -0.189   5.885  10.754 -0.0793  0.1527  0.2104
  405loPI    C3 6467   0.160   6.047  10.862 -0.0489  0.0995  0.1920
  405loPI   PO4 6468  -0.057   5.587  10.244  0.0869 -0.1701  0.0703
  405loPI   GL1 6469   0.045   5.277   9.971 -0.1129  0.0822  0.0115
  405loPI   GL2 6470  -0.066   4.994  10.100 -0.2616  0.0754  0.3126
  405loPI   C1A 6471  -0.047   5.101   9.548  0.1686  0.0128 -0.3864
  405loPI   C2A 6472   0.019   5.119   9.103  0.1552 -0.0139 -0.1581
  405loPI   C3A 6473   0.063   5.023   8.702 -0.2180 -0.1841 -0.2245
  405loPI   C4A 6474   0.028   5.033   8.239 -0.0920 -0.0416 -0.2930
  405loPI   C5A 6475  -0.063   5.297   7.802  0.0912  0.1224  0.3102
  405loPI   C6A 6476  -0.165   5.632   7.496  0.0335  0.0301  0.4424
  405loPI   C1B 6477  -0.276   4.677   9.843  0.0748  0.0796 -0.0152
  405loPI   C2B 6478  -0.184   4.637   9.412 -0.0213 -0.3240  0.1840
  405loPI   C3B 6479  -0.184   4.617   8.973  0.0234  0.2652  0.4112
  405loPI   C4B 6480  -0.283   4.546   8.595 -0.0913 -0.2560  0.1624
  406loPI    C1 6481  11.951   4.022  10.546 -0.1036  0.0180  0.2733
  406loPI    C2 6482  12.201   4.334  10.525 -0.0579 -0.0244  0.1822
  406loPI    C3 6483  12.308   4.005  10.726  0.0296 -0.1069  0.0025
  406loPI   PO4 6484  11.868   3.890  10.308 -0.1341 -0.1807 -0.0651
  406loPI   GL1 6485  12.087   3.815   9.853  0.2116  0.1126 -0.1727
  406loPI   GL2 6486  11.799   4.053   9.781 -0.2272  0.1949 -0.1478
  406loPI   C1A 6487  12.031   3.703   9.419  0.1439  0.2800  0.2051
  406loPI   C2A 6488  12.069   3.722   8.972  0.2104  0.2062 -0.0169
  406loPI   C3A 6489  12.062   3.819   8.551 -0.3485  0.0758  0.2030
  406loPI   C4A 6490  11.978   3.789   8.172  0.2793 -0.1425 -0.0457
  406loPI   C5A 6491  11.991   3.809   7.741  0.2475  0.0158  0.1706
  406loPI   C6A 6492  11.757   3.545   7.303  0.2092 -0.3401 -0.2230
  406loPI   C1B 6493  11.824   4.186   9.329 -0.1657 -0.3961  0.0668
  406loPI   C2B 6494  11.772   4.174   8.890  0.0592  0.1814  0.1133
  406loPI   C3B 6495  11.664   4.228   8.464  0.0527  0.1846 -0.0146
  406loPI   C4B 6496  11.697   4.215   7.976 -0.2450  0.1575 -0.2931
  407loPI    C1 6497   3.858  17.893  10.268  0.1772 -0.0594 -0.0387
  407loPI    C2 6498   3.982  17.512  10.258  0.0985 -0.0859 -0.0177
  407loPI    C3 6499   3.642  17.606  10.446  0.0221 -0.0322 -0.1813
  407loPI   PO4 6500   3.887  17.944   9.986 -0.1983 -0.1266 -0.1145
  407loPI   GL1 6501   3.594  18.197   9.667  0.1242  0.0836 -0.2579
  407loPI   GL2 6502   3.216  18.047   9.630  0.3079 -0.0347  0.0968
  407loPI   C1A 6503   3.630  18.248   9.257  0.0456 -0.0023 -0.2213
  407loPI   C2A 6504   3.635  18.159   8.761 -0.0791  0.1318 -0.1134
  407loPI   C3A 6505   3.646  18.167   8.339 -0.0861 -0.0394 -0.2694
  407loPI   C4A 6506   3.545  18.127   7.932  0.3656 -0.0902 -0.3866
  407loPI   C5A 6507   3.542  18.015   7.502 -0.0251  0.0564 -0.0186
  407loPI   C6A 6508   3.416  18.266   7.171 -0.4103 -0.0889 -0.1192
  407loPI   C1B 6509   3.149  18.126   9.208  0.2634 -0.1030  0.0166
  407loPI   C2B 6510   3.094  18.162   8.736  0.0664 -0.0159 -0.1397
  407loPI   C3B 6511   3.048  18.242   8.261  0.0500 -0.2408 -0.0851
  407loPI   C4B 6512   3.018  18.160   7.824 -0.1797  0.2406 -0.1617
  408loPI    C1 6513   6.595  12.198  10.208  0.1896 -0.3710  0.0246
  408loPI    C2 6514   6.795  12.266  10.547 -0.0258  0.1863  0.0508
  408loPI    C3 6515   6.516  12.525  10.424 -0.1273 -0.1363 -0.4275
  408loPI   PO4 6516   6.712  12.172   9.968 -0.3581 -0.0532  0.1939
  408loPI   GL1 6517   6.536  11.871   9.623  0.0344  0.0969  0.1655
  408loPI   GL2 6518   6.824  11.642   9.667  0.3267 -0.0136  0.0190
  408loPI   C1A 6519   6.519  11.777   9.158 -0.0621 -0.0854 -0.4567
  408loPI   C2A 6520   6.380  11.786   8.777 -0.2791 -0.1684 -0.0064
  408loPI   C3A 6521   6.384  11.695   8.372  0.1629 -0.0446  0.1191
  408loPI   C4A 6522   6.475  11.806   7.895 -0.1213  0.1728  0.2496
  408loPI   C5A 6523   6.147  11.770   7.480  0.0328  0.0137 -0.0374
  408loPI   C6A 6524   6.128  11.869   7.029 -0.0569  0.3058  0.1508
  408loPI   C1B 6525   6.747  11.336   9.357 -0.0883 -0.1029  0.0155
  408loPI   C2B 6526   6.664  11.304   8.885  0.0600  0.0612 -0.0473
  408loPI   C3B 6527   6.768  11.279   8.409  0.0724 -0.2333  0.1612
  408loPI   C4B 6528   6.700  11.389   8.003  0.2004 -0.1353 -0.0571
  409loPI    C1 6529   6.123  12.895  10.078  0.0655 -0.0519 -0.0031
  409loPI    C2 6530   5.773  13.088  10.082  0.0783 -0.0259 -0.1128
  409loPI    C3 6531   6.085  13.237  10.282  0.0426 -0.0191 -0.0623
  409loPI   PO4 6532   6.191  12.939   9.777 -0.0640  0.2828 -0.1502
  409loPI   GL1 6533   5.932  13.041   9.362 -0.2406 -0.0939 -0.4004
  409loPI   GL2 6534   6.066  12.759   9.237  0.3959 -0.1136 -0.1844
  409loPI   C1A 6535   5.639  13.188   9.186  0.0554 -0.2196 -0.2202
  409loPI   C2A 6536   5.619  13.136   8.903 -0.0185  0.0425  0.1717
  409loPI   C3A 6537   5.650  13.142   8.410  0.0637 -0.0214  0.0829
  409loPI   C4A 6538   5.591  13.139   8.001  0.3089  0.0961 -0.1770
  409loPI   C5A 6539   5.578  13.133   7.498 -0.0168 -0.0656  0.2819
  409loPI   C6A 6540   5.399  12.861   7.180  0.2818 -0.2006  0.0371
  409loPI   C1B 6541   5.934  12.762   8.785 -0.2658 -0.2964  0.2152
  409loPI   C2B 6542   5.913  12.712   8.298  0.0694  0.3998  0.1628
  409loPI   C3B 6543   5.881  12.702   7.914  0.1108 -0.0080  0.0593
  409loPI   C4B 6544   5.801  12.604   7.563  0.1094 -0.0802 -0.1659
  410loPI    C1 6545   9.755  10.388   9.814 -0.1397  0.0121  0.0344
  410loPI    C2 6546   9.806  10.785   9.806 -0.2820  0.0280 -0.2138
  410loPI    C3 6547   9.665  10.608  10.136 -0.0695  0.1625 -0.0474
  410loPI   PO4 6548   9.720  10.355   9.533  0.0274 -0.0415 -0.0652
  410loPI   GL1 6549  10.033  10.335   9.203  0.0419  0.1838  0.0327
  410loPI   GL2 6550  10.225  10.449   8.937  0.2867 -0.1867 -0.0551
  410loPI   C1A 6551   9.663  10.156   8.775  0.0243 -0.1933 -0.4623
  410loPI   C2A 6552   9.366  10.111   8.424  0.2894  0.0009  0.4129
  410loPI   C3A 6553   9.216  10.124   8.018 -0.0866 -0.2099 -0.0024
  410loPI   C4A 6554   9.054  10.014   7.674  0.1962  0.3693  0.1262
  410loPI   C5A 6555   8.960  10.344   7.440  0.1966 -0.0868 -0.2915
  410loPI   C6A 6556   8.952  10.797   7.343  0.1895  0.1971  0.2706
  410loPI   C1B 6557  10.381  10.471   8.565  0.2387  0.0739  0.1111
  410loPI   C2B 6558  10.240  10.269   8.090 -0.1075  0.1922  0.1320
  410loPI   C3B 6559  10.227  10.114   7.663 -0.2414 -0.1207  0.0910
  410loPI   C4B 6560  10.379   9.997   7.318 -0.0004  0.3444 -0.1364
  411loPI    C1 6561   3.482   6.241  10.450 -0.0664 -0.2252 -0.1615
  411loPI    C2 6562   3.219   6.543  10.453  0.0500 -0.1188 -0.3919
  411loPI    C3 6563   3.296   6.342  10.790  0.0081  0.1406 -0.2244
  411loPI   PO4 6564   3.360   6.096  10.275 -0.1077  0.2925 -0.0730
  411loPI   GL1 6565   3.132   6.127   9.864  0.0552  0.1379  0.0919
  411loPI   GL2 6566   2.936   6.459   9.947 -0.0013 -0.0555  0.0056
  411loPI   C1A 6567   2.994   6.158   9.400  0.0438  0.0404  0.0823
  411loPI   C2A 6568   3.039   6.168   8.984 -0.1437  0.0056 -0.3125
  411loPI   C3A 6569   2.960   6.032   8.465 -0.2843 -0.1022 -0.2470
  411loPI   C4A 6570   2.977   6.083   8.071 -0.4220 -0.2113  0.0909
  411loPI   C5A 6571   3.044   6.332   7.796 -0.1803 -0.1752 -0.0099
  411loPI   C6A 6572   2.847   6.623   7.582  0.2333  0.2315 -0.1548
  411loPI   C1B 6573   2.782   6.625   9.576  0.2493  0.0791 -0.2856
  411loPI   C2B 6574   2.834   6.601   9.151  0.2800  0.0933  0.1726
  411loPI   C3B 6575   2.757   6.601   8.739  0.0493 -0.2675  0.1475
  411loPI   C4B 6576   2.780   6.457   8.386 -0.3150 -0.1504 -0.1184
  412loPI    C1 6577  12.031   6.643  10.568  0.0214 -0.2817 -0.1749
  412loPI    C2 6578  12.321   6.842  10.758 -0.2641 -0.0139 -0.0117
  412loPI    C3 6579  12.064   6.616  10.965 -0.1592 -0.2711 -0.1583
  412loPI   PO4 6580  12.095   6.615  10.321 -0.1190 -0.1012 -0.2321
  412loPI   GL1 6581  12.101   6.545   9.890  0.1699 -0.2675  0.0129
  412loPI   GL2 6582  12.288   6.815   9.882  0.0011  0.0979 -0.1502
  412loPI   C1A 6583  12.253   6.342   9.599  0.0037  0.1760 -0.0034
  412loPI   C2A 6584  12.230   6.267   9.222  0.1272  0.0374 -0.0336
  412loPI   C3A 6585  12.124   6.128   8.838 -0.0709 -0.0449 -0.0094
  412loPI   C4A 6586  12.224   6.079   8.396 -0.0647  0.2012 -0.0265
  412loPI   C5A 6587  12.010   6.067   8.039  0.1562 -0.2287 -0.3831
  412loPI   C6A 6588  11.813   5.872   7.643  0.0557 -0.1995 -0.1145
  412loPI   C1B 6589  12.320   6.772   9.415 -0.4480  0.1868  0.1511
  412loPI   C2B 6590  12.506   6.660   9.075 -0.2973  0.4902 -0.1027
  412loPI   C3B 6591  12.368   6.582   8.723  0.4334 -0.1948  0.2194
  412loPI   C4B 6592  12.432   6.594   8.343  0.0742 -0.1580  0.1446
  413loPI    C1 6593  11.632   9.647  10.207 -0.1879  0.0047  0.4110
  413loPI    C2 6594  11.590   9.401  10.519 -0.0219 -0.3346  0.1722
  413loPI    C3 6595  11.421   9.309  10.168  0.0607 -0.1172  0.0738
  413loPI   PO4 6596  11.906   9.648  10.053 -0.0596 -0.0485 -0.1145
  413loPI   GL1 6597  12.248   9.504   9.745  0.1381  0.0480 -0.0192
  413loPI   GL2 6598  12.478   9.739   9.658  0.5763  0.0547  0.4128
  413loPI   C1A 6599  12.255   9.368   9.383 -0.0355  0.0901 -0.0069
  413loPI   C2A 6600  12.325   9.440   8.901  0.3437 -0.0291 -0.1923
  413loPI   C3A 6601  12.383   9.356   8.446  0.0598  0.0730 -0.0890
  413loPI   C4A 6602  12.393   9.377   7.946 -0.0674  0.3776 -0.2113
  413loPI   C5A 6603  12.516   9.222   7.521 -0.0312 -0.0331  0.1273
  413loPI   C6A 6604  12.571   9.269   7.116  0.1705  0.1178 -0.0581
  413loPI   C1B 6605  12.445   9.764   9.275  0.2830  0.3046 -0.0330
  413loPI   C2B 6606  12.584   9.812   8.993 -0.0765  0.2513  0.0038
  413loPI   C3B 6607  12.598   9.892   8.449  0.0061  0.0816 -0.4016
  413loPI   C4B 6608  12.764   9.831   8.063 -0.1137 -0.4803 -0.0182
  414loPI    C1 6609   4.259   6.077  10.658  0.1221  0.1502 -0.1872
  414loPI    C2 6610   4.302   5.854  10.987 -0.1059  0.0213 -0.2424
  414loPI    C3 6611   4.474   6.214  10.966 -0.0740  0.0228  0.0100
  414loPI   PO4 6612   4.420   5.871  10.485 -0.2184  0.1887 -0.2079
  414loPI   GL1 6613   4.312   5.863  10.014  0.2473  0.2567  0.3937
  414loPI   GL2 6614   4.183   6.166   9.805  0.2765  0.1223 -0.1093
  414loPI   C1A 6615   4.489   5.811   9.618  0.0207 -0.0593  0.0998
  414loPI   C2A 6616   4.451   5.782   9.162  0.1145  0.2076  0.0710
  414loPI   C3A 6617   4.301   5.818   8.848 -0.2860 -0.3413  0.0748
  414loPI   C4A 6618   4.447   5.754   8.411 -0.0204  0.0754  0.0459
  414loPI   C5A 6619   4.408   5.610   8.061 -0.0772 -0.0530  0.1176
  414loPI   C6A 6620   4.211   5.310   7.899 -0.0433  0.1959 -0.2118
  414loPI   C1B 6621   4.163   6.120   9.376 -0.1479  0.0322 -0.1692
  414loPI   C2B 6622   4.092   6.271   9.042  0.0278  0.0323 -0.1771
  414loPI   C3B 6623   4.094   6.218   8.584  0.1634  0.1958 -0.0678
  414loPI   C4B 6624   4.236   6.125   8.186  0.6186 -0.1481 -0.0170
  415loPI    C1 6625  16.828  13.761  10.701 -0.0720 -0.0597  0.0202
  415loPI    C2 6626  16.849  13.903  11.074  0.0896  0.0804 -0.0408
  415loPI    C3 6627  16.642  13.569  10.999  0.1863 -0.0363  0.1995
  415loPI   PO4 6628  16.740  13.932  10.513  0.2778 -0.0181  0.1988
  415loPI   GL1 6629  16.784  13.694  10.096  0.2177 -0.1697 -0.0824
  415loPI   GL2 6630  16.866  14.071  10.061  0.2049 -0.0565 -0.3572
  415loPI   C1A 6631  16.727  13.652   9.618 -0.1038  0.1352  0.3512
  415loPI   C2A 6632  16.649  13.653   9.209 -0.0880 -0.4449 -0.2185
  415loPI   C3A 6633  16.640  13.709   8.776 -0.0900 -0.1758 -0.1919
  415loPI   C4A 6634  16.546  13.769   8.390 -0.0144  0.0661 -0.0760
  415loPI   C5A 6635  16.594  14.013   7.983  0.0721  0.0300 -0.2504
  415loPI   C6A 6636  16.635  14.433   7.924  0.0165 -0.0222 -0.0252
  415loPI   C1B 6637  16.935  14.059   9.741 -0.0786 -0.0754  0.2160
  415loPI   C2B 6638  16.860  14.068   9.307 -0.1223  0.0519 -0.2979
  415loPI   C3B 6639  16.906  14.139   8.826  0.4235  0.0885  0.0095
  415loPI   C4B 6640  16.711  14.244   8.448  0.1597 -0.1787  0.1162
  416loPI    C1 6641   5.351  10.723  10.563  0.2162  0.0293 -0.0572
  416loPI    C2 6642   5.535  10.377  10.487  0.2400  0.0171  0.0546
  416loPI    C3 6643   5.527  10.521  10.860 -0.1194 -0.0649  0.0821
  416loPI   PO4 6644   5.301  10.810  10.225 -0.0616  0.0051 -0.0527
  416loPI   GL1 6645   5.480  10.805   9.777  0.1126 -0.0616 -0.0690
  416loPI   GL2 6646   5.503  11.137   9.788  0.0442 -0.0624 -0.2104
  416loPI   C1A 6647   5.464  10.906   9.219  0.1677  0.1483 -0.2086
  416loPI   C2A 6648   5.454  10.961   8.822 -0.0270  0.1177  0.0139
  416loPI   C3A 6649   5.406  10.907   8.425  0.0674 -0.0962  0.0543
  416loPI   C4A 6650   5.375  10.794   8.054  0.0598  0.2082  0.1183
  416loPI   C5A 6651   5.683  10.705   7.674  0.0869  0.1912 -0.2057
  416loPI   C6A 6652   6.081  10.784   7.456 -0.0789 -0.0828 -0.0680
  416loPI   C1B 6653   5.817  11.025   9.523  0.4088  0.0079  0.0558
  416loPI   C2B 6654   5.916  10.982   9.046 -0.0065 -0.1427  0.0570
  416loPI   C3B 6655   5.953  10.864   8.577 -0.0207 -0.0510 -0.2296
  416loPI   C4B 6656   5.881  10.753   8.115  0.1468 -0.0499  0.1914
  417loPI    C1 6657   3.681   2.383  10.282 -0.4671  0.1906  0.0016
  417loPI    C2 6658   3.798   2.251  10.641 -0.2052  0.0032 -0.1489
  417loPI    C3 6659   3.421   2.196  10.521 -0.3312  0.1894  0.1506
  417loPI   PO4 6660   3.978   2.274  10.147  0.1750  0.2081 -0.0270
  417loPI   GL1 6661   4.158   2.260   9.699 -0.1575 -0.3708 -0.1696
  417loPI   GL2 6662   4.314   2.569   9.534  0.3987  0.0911  0.0383
  417loPI   C1A 6663   4.031   2.074   9.337  0.0503  0.2291  0.0628
  417loPI   C2A 6664   3.913   2.163   9.065 -0.4438 -0.0132 -0.0295
  417loPI   C3A 6665   4.009   2.210   8.635 -0.1574  0.0399  0.0805
  417loPI   C4A 6666   4.046   2.093   8.201  0.2064 -0.2387 -0.0293
  417loPI   C5A 6667   4.151   1.999   7.765  0.0461  0.2783  0.0075
  417loPI   C6A 6668   3.818   2.027   7.466  0.0713  0.2963 -0.0941
  417loPI   C1B 6669   4.223   2.595   9.202  0.1872 -0.1107  0.1161
  417loPI   C2B 6670   4.273   2.705   8.803 -0.0496 -0.1738 -0.0752
  417loPI   C3B 6671   4.226   2.655   8.344  0.0226 -0.0243 -0.0736
  417loPI   C4B 6672   4.125   2.573   7.955 -0.0530 -0.2791 -0.0706
  418loPI    C1 6673   4.006  16.378  10.143 -0.1780  0.0813 -0.1358
  418loPI    C2 6674   3.998  16.551  10.503 -0.0777 -0.1787 -0.0064
  418loPI    C3 6675   3.657  16.434  10.330 -0.1043 -0.2973  0.1247
  418loPI   PO4 6676   4.202  16.526   9.962  0.1075  0.0432  0.2340
  418loPI   GL1 6677   4.137  16.562   9.498  0.0118 -0.0729  0.1426
  418loPI   GL2 6678   4.333  16.291   9.393 -0.0384  0.2048 -0.4084
  418loPI   C1A 6679   3.840  16.703   9.132  0.3642  0.1080  0.2318
  418loPI   C2A 6680   3.794  16.741   8.698  0.2022 -0.0267 -0.3457
  418loPI   C3A 6681   3.907  16.661   8.348 -0.0313  0.1481  0.2788
  418loPI   C4A 6682   3.798  16.755   7.907 -0.2299 -0.0119  0.1094
  418loPI   C5A 6683   3.670  16.718   7.526  0.2418  0.2266  0.1186
  418loPI   C6A 6684   3.544  16.618   7.178  0.2158  0.2165 -0.0640
  418loPI   C1B 6685   4.205  16.294   8.886 -0.0327 -0.0106  0.1978
  418loPI   C2B 6686   4.232  16.269   8.481 -0.0299 -0.1185  0.3430
  418loPI   C3B 6687   4.193  16.313   7.997 -0.1426  0.2163  0.1376
  418loPI   C4B 6688   4.171  16.362   7.541 -0.0198  0.0771 -0.1763
  419loPI    C1 6689  13.710   3.904  10.552 -0.0784  0.2258 -0.1130
  419loPI    C2 6690  13.848   3.738  10.889 -0.0743 -0.2162 -0.3255
  419loPI    C3 6691  13.578   4.033  10.907  0.2083  0.0275  0.0696
  419loPI   PO4 6692  13.938   4.014  10.421 -0.1917  0.1421  0.1399
  419loPI   GL1 6693  14.149   3.812   9.999 -0.2218  0.3281 -0.1631
  419loPI   GL2 6694  13.829   3.736   9.997 -0.4197 -0.2522 -0.3587
  419loPI   C1A 6695  14.207   3.943   9.470  0.2740 -0.0885 -0.2159
  419loPI   C2A 6696  14.100   3.793   8.974  0.5782 -0.0940 -0.2754
  419loPI   C3A 6697  14.251   3.910   8.467 -0.1503 -0.1233 -0.3354
  419loPI   C4A 6698  14.141   3.952   8.080  0.0274  0.1727  0.0608
  419loPI   C5A 6699  14.045   3.757   7.647 -0.2833  0.0810 -0.2139
  419loPI   C6A 6700  14.105   3.468   7.378  0.0815 -0.0535  0.2790
  419loPI   C1B 6701  13.747   3.762   9.516  0.0815 -0.1120  0.0029
  419loPI   C2B 6702  13.576   3.769   9.067  0.3487 -0.0233 -0.0769
  419loPI   C3B 6703  13.603   3.866   8.561  0.3060 -0.3212  0.3155
  419loPI   C4B 6704  13.679   3.911   8.004  0.2009 -0.0617  0.0180
  420loPI    C1 6705   5.107   9.788  10.132 -0.1728 -0.0254  0.2759
  420loPI    C2 6706   5.439   9.973  10.255 -0.1610  0.1794 -0.0517
  420loPI    C3 6707   5.257   9.710  10.495  0.3243 -0.0568  0.0722
  420loPI   PO4 6708   5.014   9.933   9.925  0.2459  0.1396 -0.1933
  420loPI   GL1 6709   5.030  10.081   9.527  0.0169  0.1539  0.1388
  420loPI   GL2 6710   5.252  10.396   9.551 -0.3056  0.1671  0.0950
  420loPI   C1A 6711   4.924  10.028   9.009  0.1842  0.0597 -0.0239
  420loPI   C2A 6712   4.938   9.916   8.659 -0.0026 -0.1283  0.0908
  420loPI   C3A 6713   4.851   9.873   8.248 -0.3665  0.1390  0.1352
  420loPI   C4A 6714   4.968   9.627   7.902 -0.1895 -0.0829  0.4265
  420loPI   C5A 6715   5.240   9.700   7.596 -0.2750  0.0911  0.2673
  420loPI   C6A 6716   5.395   9.843   7.108  0.0807  0.1155 -0.2339
  420loPI   C1B 6717   5.171  10.483   9.163 -0.1935 -0.0411  0.0659
  420loPI   C2B 6718   5.170  10.397   8.645 -0.2062 -0.6076 -0.1934
  420loPI   C3B 6719   5.136  10.311   8.210  0.1845 -0.0313 -0.1849
  420loPI   C4B 6720   5.046  10.110   7.830 -0.5290  0.0232 -0.0318
  421loPI    C1 6721  12.657  11.201  10.507  0.0734  0.0334  0.2798
  421loPI    C2 6722  12.952  10.954  10.617  0.0153 -0.0711  0.2044
  421loPI    C3 6723  12.599  10.939  10.804 -0.0560 -0.1895  0.0626
  421loPI   PO4 6724  12.791  11.341  10.210 -0.0911  0.0059  0.0335
  421loPI   GL1 6725  13.085  11.291   9.877  0.2512 -0.2271 -0.0227
  421loPI   GL2 6726  12.861  11.521   9.739  0.2239  0.0783  0.1095
  421loPI   C1A 6727  13.247  11.396   9.451 -0.3931 -0.1005 -0.0725
  421loPI   C2A 6728  13.313  11.390   8.992  0.0891 -0.0069 -0.0545
  421loPI   C3A 6729  13.352  11.307   8.500 -0.2925  0.1217 -0.0038
  421loPI   C4A 6730  13.394  11.229   7.974  0.1247 -0.1050 -0.1186
  421loPI   C5A 6731  13.531  11.267   7.611  0.0015 -0.0931 -0.1016
  421loPI   C6A 6732  13.860  10.960   7.346 -0.2963 -0.0577 -0.0788
  421loPI   C1B 6733  12.877  11.829   9.470 -0.1414  0.0621 -0.0161
  421loPI   C2B 6734  13.020  11.825   9.013  0.1568  0.5230  0.0567
  421loPI   C3B 6735  13.022  11.742   8.530  0.1485 -0.3627 -0.2313
  421loPI   C4B 6736  13.205  11.759   8.016 -0.1735 -0.0471  0.0975
  422loPI    C1 6737  17.787   9.630  10.766  0.1034 -0.2585 -0.1218
  422loPI    C2 6738  17.713   9.263  10.908  0.1829 -0.1895  0.1031
  422loPI    C3 6739  17.427   9.543  10.917  0.1073 -0.2581 -0.1122
  422loPI   PO4 6740  18.000   9.531  10.550  0.1324  0.1154  0.1400
  422loPI   GL1 6741  18.132   9.605  10.035  0.3671 -0.3105 -0.2683
  422loPI   GL2 6742  17.929   9.411  10.092  0.2250  0.0687  0.0652
  422loPI   C1A 6743  18.087   9.671   9.674 -0.0403 -0.1736 -0.4236
  422loPI   C2A 6744  18.001   9.727   9.259  0.1188 -0.1339 -0.0037
  422loPI   C3A 6745  17.940   9.594   8.863  0.0866  0.3061 -0.2330
  422loPI   C4A 6746  17.948   9.584   8.469 -0.0424 -0.1200 -0.0466
  422loPI   C5A 6747  17.947   9.470   7.909  0.0571 -0.0727  0.0746
  422loPI   C6A 6748  18.331   9.246   7.763 -0.0553 -0.0361 -0.0373
  422loPI   C1B 6749  17.838   9.158   9.747 -0.0628 -0.3645 -0.1178
  422loPI   C2B 6750  17.711   9.247   9.344  0.1455 -0.0236 -0.0346
  422loPI   C3B 6751  17.750   9.128   8.879 -0.0740  0.1044 -0.0446
  422loPI   C4B 6752  17.864   9.021   8.556  0.0416  0.2007 -0.0384
  423loPI    C1 6753   9.795   4.760  10.198  0.0474  0.1644 -0.2309
  423loPI    C2 6754  10.076   4.906   9.953  0.2631  0.0036 -0.0833
  423loPI    C3 6755  10.182   4.731  10.297 -0.0295  0.1042  0.0614
  423loPI   PO4 6756   9.689   4.545   9.990  0.1407  0.0214 -0.4919
  423loPI   GL1 6757   9.877   4.576   9.579  0.1300  0.1367  0.2212
  423loPI   GL2 6758   9.897   4.757   9.465  0.0946  0.2355 -0.0963
  423loPI   C1A 6759  10.081   4.225   9.459  0.2247 -0.1179  0.1314
  423loPI   C2A 6760  10.307   4.163   9.083 -0.0604  0.1230 -0.0778
  423loPI   C3A 6761  10.160   4.172   8.602 -0.1347 -0.0853  0.1850
  423loPI   C4A 6762  10.187   4.274   8.297 -0.0282 -0.2121  0.2822
  423loPI   C5A 6763  10.190   4.368   7.858  0.0539  0.4206 -0.1606
  423loPI   C6A 6764   9.796   4.349   7.522  0.0947  0.1233 -0.1316
  423loPI   C1B 6765   9.919   4.512   9.093 -0.0277  0.0362 -0.1955
  423loPI   C2B 6766   9.840   4.566   8.618 -0.0245  0.0118  0.0463
  423loPI   C3B 6767   9.907   4.761   8.297  0.2021  0.0159  0.0520
  423loPI   C4B 6768   9.827   4.731   7.903  0.0031  0.1142 -0.1297
  424loPI    C1 6769   3.640  12.640  10.279  0.3492 -0.0633 -0.1124
  424loPI    C2 6770   3.319  12.418  10.367  0.3045  0.1433  0.2679
  424loPI    C3 6771   3.686  12.263  10.406  0.2658  0.0528  0.2751
  424loPI   PO4 6772   3.636  12.797  10.041 -0.2960 -0.1037  0.3950
  424loPI   GL1 6773   3.594  12.777   9.610 -0.1344 -0.6735 -0.0706
  424loPI   GL2 6774   3.464  13.035   9.574  0.2615  0.0346 -0.0035
  424loPI   C1A 6775   3.321  12.637   9.191  0.0202 -0.0465  0.0707
  424loPI   C2A 6776   3.369  12.660   8.753 -0.1349 -0.0144 -0.4482
  424loPI   C3A 6777   3.201  12.544   8.387 -0.2616  0.0553  0.2380
  424loPI   C4A 6778   3.281  12.629   7.995 -0.0642 -0.2174 -0.2411
  424loPI   C5A 6779   3.366  12.787   7.540 -0.0886 -0.2245  0.4786
  424loPI   C6A 6780   3.155  13.007   7.265  0.2639  0.1123  0.1014
  424loPI   C1B 6781   3.547  13.186   9.184  0.1539  0.1341  0.1617
  424loPI   C2B 6782   3.543  13.083   8.696 -0.0348 -0.2921  0.1344
  424loPI   C3B 6783   3.422  13.014   8.221  0.1070 -0.0326  0.0069
  424loPI   C4B 6784   3.601  13.007   7.869 -0.2507  0.2425 -0.2137
  425loPI    C1 6785  15.519  15.448  10.810  0.0906  0.0308  0.0617
  425loPI    C2 6786  15.150  15.604  10.805  0.0615 -0.0402 -0.0606
  425loPI    C3 6787  15.453  15.802  10.635  0.1345  0.1484  0.2796
  425loPI   PO4 6788  15.500  15.274  10.726 -0.2914 -0.2217 -0.1622
  425loPI   GL1 6789  15.629  15.213  10.256 -0.1594 -0.0129  0.1488
  425loPI   GL2 6790  15.396  14.971  10.227  0.0720 -0.2086 -0.2493
  425loPI   C1A 6791  15.818  15.042   9.855 -0.0972  0.2232  0.1049
  425loPI   C2A 6792  15.816  15.004   9.482  0.1296 -0.1823  0.1733
  425loPI   C3A 6793  15.678  15.157   9.131 -0.0757  0.1283  0.0697
  425loPI   C4A 6794  15.757  15.148   8.826  0.1504  0.0413 -0.3233
  425loPI   C5A 6795  15.687  15.174   8.358 -0.4068  0.0835 -0.0461
  425loPI   C6A 6796  15.804  15.369   7.982 -0.2882  0.2437  0.0156
  425loPI   C1B 6797  15.327  14.981   9.752 -0.3046  0.0597 -0.1469
  425loPI   C2B 6798  15.258  14.986   9.328  0.2054 -0.3053 -0.1718
  425loPI   C3B 6799  15.224  14.989   8.808 -0.0340  0.2573  0.0284
  425loPI   C4B 6800  15.154  15.127   8.400  0.1812  0.0824 -0.1588
  426loPI    C1 6801   5.275   5.478  10.650  0.3109  0.0239 -0.2649
  426loPI    C2 6802   5.515   5.473  10.969  0.0638  0.0196 -0.0762
  426loPI    C3 6803   5.259   5.172  10.907 -0.2474  0.2629  0.0023
  426loPI   PO4 6804   5.437   5.497  10.456  0.2855  0.0900 -0.3264
  426loPI   GL1 6805   5.404   5.499  10.070 -0.2103 -0.0318  0.0934
  426loPI   GL2 6806   5.517   5.173   9.978 -0.3423 -0.0569 -0.0093
  426loPI   C1A 6807   5.290   5.391   9.571  0.0109  0.0244  0.0278
  426loPI   C2A 6808   5.285   5.316   9.116 -0.1035 -0.4140 -0.0996
  426loPI   C3A 6809   5.109   5.364   8.658 -0.0581 -0.1254  0.0046
  426loPI   C4A 6810   5.238   5.349   8.253  0.2135  0.3596  0.2076
  426loPI   C5A 6811   5.291   5.236   7.901  0.0533  0.0954  0.3220
  426loPI   C6A 6812   5.375   5.067   7.519  0.0126  0.0868 -0.0185
  426loPI   C1B 6813   5.483   4.910   9.654 -0.1497 -0.0089  0.1345
  426loPI   C2B 6814   5.529   4.879   9.267 -0.0459 -0.2509 -0.1775
  426loPI   C3B 6815   5.524   4.835   8.827  0.2230  0.2783  0.0693
  426loPI   C4B 6816   5.605   4.856   8.469  0.1214 -0.1559 -0.3777
  427loPI    C1 6817   4.988  10.211  10.500 -0.1305 -0.4127 -0.0522
  427loPI    C2 6818   4.738  10.248  10.810  0.1901  0.3147  0.1414
  427loPI    C3 6819   5.133  10.228  10.873  0.2324 -0.0318 -0.2014
  427loPI   PO4 6820   4.910  10.457  10.355  0.2497  0.0695  0.1578
  427loPI   GL1 6821   4.792  10.606   9.890 -0.1977  0.0866 -0.2466
  427loPI   GL2 6822   4.697  10.437   9.618  0.2463 -0.1106  0.1355
  427loPI   C1A 6823   5.034  10.866   9.617 -0.2381 -0.1543  0.0698
  427loPI   C2A 6824   4.897  10.858   9.087  0.0175  0.3297 -0.1099
  427loPI   C3A 6825   4.894  10.904   8.666 -0.1886  0.0829  0.1330
  427loPI   C4A 6826   4.909  10.816   8.273  0.1203  0.0381  0.1285
  427loPI   C5A 6827   4.803  10.795   7.808 -0.1074 -0.4481 -0.2617
  427loPI   C6A 6828   4.649  10.625   7.445 -0.0534 -0.0189  0.0077
  427loPI   C1B 6829   4.678  10.408   9.233  0.1801  0.2431  0.3245
  427loPI   C2B 6830   4.681  10.445   8.831 -0.0683  0.0016 -0.1192
  427loPI   C3B 6831   4.713  10.319   8.431  0.0836  0.1805 -0.3421
  427loPI   C4B 6832   4.648  10.350   8.013 -0.1879  0.3160  0.1269
  428loPI    C1 6833  14.301  13.989  10.782 -0.2778  0.1832 -0.1343
  428loPI    C2 6834  14.351  14.352  10.941  0.2685 -0.0301  0.2099
  428loPI    C3 6835  14.318  14.033  11.179  0.1098 -0.2458 -0.0951
  428loPI   PO4 6836  14.403  14.030  10.545 -0.0632  0.0516  0.0498
  428loPI   GL1 6837  14.357  14.054  10.159  0.0208  0.1802  0.0106
  428loPI   GL2 6838  14.475  13.721  10.034 -0.0192 -0.1466  0.2190
  428loPI   C1A 6839  14.187  14.189   9.782 -0.0547 -0.2544 -0.2879
  428loPI   C2A 6840  14.180  14.115   9.283 -0.1041 -0.0508  0.0480
  428loPI   C3A 6841  14.242  14.043   8.786  0.1558 -0.2031  0.4081
  428loPI   C4A 6842  14.166  14.178   8.423 -0.1230  0.2069 -0.1300
  428loPI   C5A 6843  14.119  14.237   7.922  0.2217  0.1065  0.2079
  428loPI   C6A 6844  14.073  13.940   7.585  0.0534  0.1876 -0.0993
  428loPI   C1B 6845  14.389  13.720   9.712  0.2403  0.0421  0.3540
  428loPI   C2B 6846  14.445  13.620   9.272  0.1830 -0.0623 -0.1374
  428loPI   C3B 6847  14.559  13.618   8.866  0.0663 -0.1072  0.0069
  428loPI   C4B 6848  14.497  13.811   8.407 -0.0186 -0.3292 -0.4166
  429loPI    C1 6849   6.488   0.293  10.284 -0.1642 -0.0367  0.0510
  429loPI    C2 6850   6.856   0.363  10.425 -0.0459 -0.0122 -0.2613
  429loPI    C3 6851   6.599   0.141  10.637  0.0209  0.2761  0.1318
  429loPI   PO4 6852   6.558   0.202   9.991 -0.4681  0.1777 -0.1434
  429loPI   GL1 6853   6.475   0.208   9.551 -0.2402  0.1011  0.1932
  429loPI   GL2 6854   6.738   0.137   9.496 -0.3681  0.0099 -0.0779
  429loPI   C1A 6855   6.253   0.287   9.209 -0.5097 -0.2467  0.1389
  429loPI   C2A 6856   6.273   0.217   8.766 -0.0789 -0.5168 -0.2396
  429loPI   C3A 6857   6.165   0.279   8.310  0.2843  0.3355  0.0851
  429loPI   C4A 6858   6.062   0.543   7.939 -0.0894 -0.0949 -0.1284
  429loPI   C5A 6859   5.945   0.532   7.576 -0.1229  0.1968  0.5487
  429loPI   C6A 6860   5.906   0.873   7.284 -0.0171  0.4329  0.1533
  429loPI   C1B 6861   6.753   0.157   9.027  0.1749  0.0244 -0.0971
  429loPI   C2B 6862   6.730   0.299   8.560  0.1763 -0.1028 -0.0654
  429loPI   C3B 6863   6.714   0.316   8.093  0.0266  0.1329 -0.0621
  429loPI   C4B 6864   6.606   0.651   7.849 -0.2216 -0.0569 -0.0026
  430loPI    C1 6865  10.654  18.262  10.198  0.2034  0.0709  0.0767
  430loPI    C2 6866  10.422  17.961  10.322 -0.0297  0.3384  0.3068
  430loPI    C3 6867  10.708  18.105  10.562  0.3534  0.0417  0.0427
  430loPI   PO4 6868  10.762  18.092   9.951 -0.1908 -0.1533  0.2794
  430loPI   GL1 6869  10.762  18.076   9.584 -0.1549 -0.1142  0.2297
  430loPI   GL2 6870  10.533  17.803   9.536  0.0813 -0.1852  0.1685
  430loPI   C1A 6871  10.865  18.345   9.194  0.4731  0.1456 -0.1171
  430loPI   C2A 6872  10.853  18.386   8.754 -0.2652  0.2039  0.1511
  430loPI   C3A 6873  10.968  18.498   8.358  0.0277 -0.0702 -0.0723
  430loPI   C4A 6874  10.952  18.596   7.832  0.0711 -0.3654  0.0850
  430loPI   C5A 6875  10.610  18.725   7.506  0.0701  0.0715  0.0277
  430loPI   C6A 6876  10.470  19.024   7.201  0.1703 -0.1424 -0.1167
  430loPI   C1B 6877  10.616  17.810   9.133 -0.1643 -0.1612  0.2343
  430loPI   C2B 6878  10.650  17.955   8.604  0.0239 -0.0441  0.0832
  430loPI   C3B 6879  10.659  18.079   8.232 -0.0548 -0.0703  0.1213
  430loPI   C4B 6880  10.634  18.185   7.789 -0.2376 -0.0085 -0.1305
  431loPI    C1 6881  10.388  10.784   9.739 -0.1354  0.1241 -0.1409
  431loPI    C2 6882  10.488  10.600   9.398  0.0001 -0.1366  0.0366
  431loPI    C3 6883  10.121  10.754   9.442 -0.0063 -0.0673 -0.2393
  431loPI   PO4 6884  10.545  10.925   9.775 -0.2212 -0.1408 -0.0110
  431loPI   GL1 6885  10.944  10.744   9.528 -0.1579 -0.1209 -0.0557
  431loPI   GL2 6886  11.123  10.960   9.449  0.3150  0.0616 -0.0950
  431loPI   C1A 6887  11.038  10.571   9.183 -0.1296  0.3650  0.2183
  431loPI   C2A 6888  11.304  10.327   9.035 -0.0784  0.1848 -0.2794
  431loPI   C3A 6889  11.277  10.341   8.560 -0.1792  0.0512  0.4001
  431loPI   C4A 6890  11.316  10.272   8.113  0.0229  0.0847 -0.1132
  431loPI   C5A 6891  11.391  10.397   7.685  0.2186  0.1416 -0.0788
  431loPI   C6A 6892  11.267  10.476   7.249  0.0198  0.1710 -0.0770
  431loPI   C1B 6893  11.201  11.147   9.091  0.0849 -0.2409 -0.2336
  431loPI   C2B 6894  11.237  11.149   8.592 -0.0640 -0.1994 -0.0504
  431loPI   C3B 6895  11.255  11.154   8.175  0.0801 -0.0271 -0.1948
  431loPI   C4B 6896  11.113  11.168   7.707  0.0990 -0.0816 -0.2666
  432loPI    C1 6897   2.469   6.246  10.700 -0.0252  0.0629 -0.1077
  432loPI    C2 6898   2.105   6.311  10.854  0.0214 -0.2058  0.1245
  432loPI    C3 6899   2.344   6.620  10.768 -0.3245 -0.0193 -0.1936
  432loPI   PO4 6900   2.405   6.044  10.504 -0.1089  0.1367  0.3411
  432loPI   GL1 6901   2.521   5.743  10.172 -0.1501  0.1440  0.1669
  432loPI   GL2 6902   2.211   5.747  10.065 -0.1086  0.1832 -0.1985
  432loPI   C1A 6903   2.610   6.095   9.916  0.0733 -0.0028 -0.1159
  432loPI   C2A 6904   2.493   6.107   9.502 -0.0845  0.3604  0.2457
  432loPI   C3A 6905   2.549   6.099   9.133  0.0104 -0.2781 -0.1091
  432loPI   C4A 6906   2.479   6.103   8.681 -0.3566 -0.0063  0.0413
  432loPI   C5A 6907   2.501   6.099   8.221 -0.0123 -0.0715 -0.1180
  432loPI   C6A 6908   2.517   6.462   7.937  0.2772 -0.2016  0.2408
  432loPI   C1B 6909   2.282   5.696   9.662 -0.0602  0.2477  0.3622
  432loPI   C2B 6910   2.280   5.661   9.250  0.0686 -0.3213 -0.5341
  432loPI   C3B 6911   2.303   5.613   8.897 -0.0404 -0.2696  0.3160
  432loPI   C4B 6912   2.383   5.594   8.425 -0.0125  0.2509  0.0133
  433loPI    C1 6913   2.231  15.534  10.490 -0.0378  0.1300 -0.0752
  433loPI    C2 6914   2.190  15.184  10.681 -0.0455  0.0562 -0.2104
  433loPI    C3 6915   1.902  15.461  10.706 -0.1137 -0.0121 -0.2361
  433loPI   PO4 6916   2.318  15.466  10.242  0.1127  0.3393 -0.1485
  433loPI   GL1 6917   2.455  15.533   9.824 -0.0019 -0.0640  0.0910
  433loPI   GL2 6918   2.432  15.781   9.569  0.5517  0.0334  0.0343
  433loPI   C1A 6919   2.641  15.337   9.532 -0.0925  0.1920 -0.0848
  433loPI   C2A 6920   2.691  15.342   9.072  0.1767  0.0541 -0.0336
  433loPI   C3A 6921   2.684  15.397   8.660 -0.2858  0.0564 -0.1328
  433loPI   C4A 6922   2.638  15.314   8.186  0.0244  0.1504 -0.1670
  433loPI   C5A 6923   2.624  15.158   7.732  0.0723 -0.2313 -0.3051
  433loPI   C6A 6924   3.059  15.175   7.543  0.0494 -0.1234 -0.0308
  433loPI   C1B 6925   2.323  15.750   9.136  0.0907 -0.2786 -0.1007
  433loPI   C2B 6926   2.321  15.864   8.726  0.0430 -0.1298 -0.1805
  433loPI   C3B 6927   2.305  15.680   8.319 -0.1853 -0.0890  0.1222
  433loPI   C4B 6928   2.351  15.626   7.885  0.1910 -0.3669  0.0779
  434loPI    C1 6929   6.831  16.105   9.855  0.0602  0.0762 -0.0985
  434loPI    C2 6930   6.921  15.805  10.104 -0.1783  0.3548  0.3353
  434loPI    C3 6931   7.168  16.118  10.071 -0.0571  0.2345  0.0784
  434loPI   PO4 6932   6.759  16.047   9.617  0.2479  0.0538 -0.2016
  434loPI   GL1 6933   6.739  16.256   9.217 -0.0752 -0.1431  0.1520
  434loPI   GL2 6934   6.943  16.389   9.313  0.0082  0.1146  0.0613
  434loPI   C1A 6935   6.727  16.377   8.864  0.0082  0.0286  0.1189
  434loPI   C2A 6936   6.677  16.412   8.418 -0.0836  0.0484 -0.0554
  434loPI   C3A 6937   6.795  16.309   7.989  0.1427 -0.2278  0.0201
  434loPI   C4A 6938   6.875  16.415   7.588  0.1445 -0.1216  0.0762
  434loPI   C5A 6939   7.140  16.090   7.294  0.0707 -0.3094  0.2446
  434loPI   C6A 6940   7.007  15.877   6.894  0.1829 -0.0093 -0.0190
  434loPI   C1B 6941   7.219  16.441   9.041 -0.0783 -0.1891 -0.2066
  434loPI   C2B 6942   7.157  16.462   8.613  0.0428 -0.3563  0.3285
  434loPI   C3B 6943   7.047  16.722   8.270 -0.1699  0.0671  0.1565
  434loPI   C4B 6944   7.083  16.802   7.827 -0.1807 -0.4253 -0.1504
  435loPI    C1 6945   5.795   5.899  10.563  0.4065  0.0317 -0.0339
  435loPI    C2 6946   5.946   5.562  10.718  0.0613  0.0315  0.3182
  435loPI    C3 6947   5.898   5.884  10.950 -0.0209  0.1854  0.0910
  435loPI   PO4 6948   5.955   5.953  10.297  0.1319 -0.2166  0.2103
  435loPI   GL1 6949   5.941   5.786   9.859  0.2523 -0.2040  0.0454
  435loPI   GL2 6950   5.608   5.838   9.815 -0.0058  0.2132 -0.0393
  435loPI   C1A 6951   6.075   5.873   9.378 -0.1746 -0.1321  0.0301
  435loPI   C2A 6952   5.924   5.857   8.997  0.1469  0.0806 -0.0153
  435loPI   C3A 6953   5.937   5.859   8.565 -0.1450  0.0992  0.3910
  435loPI   C4A 6954   5.964   5.797   8.052  0.2513  0.0171 -0.0646
  435loPI   C5A 6955   5.932   5.621   7.636 -0.0005 -0.2398  0.0125
  435loPI   C6A 6956   5.943   5.502   7.047 -0.2950  0.1447 -0.2488
  435loPI   C1B 6957   5.537   5.805   9.388  0.0910 -0.0991 -0.1520
  435loPI   C2B 6958   5.449   5.789   9.017  0.2203 -0.0740 -0.2895
  435loPI   C3B 6959   5.448   5.798   8.570 -0.1599 -0.1535 -0.0411
  435loPI   C4B 6960   5.433   5.768   8.165 -0.0524 -0.2221 -0.2043
  436loPI    C1 6961   3.001  13.566   9.799 -0.0823  0.1036  0.0017
  436loPI    C2 6962   3.178  13.616  10.154  0.4990  0.0698 -0.2712
  436loPI    C3 6963   3.325  13.352   9.892 -0.2123 -0.2643 -0.3588
  436loPI   PO4 6964   2.846  13.724   9.782  0.0302  0.0653  0.0678
  436loPI   GL1 6965   2.725  14.015   9.471  0.1120  0.3197 -0.0036
  436loPI   GL2 6966   3.001  14.132   9.439  0.1151  0.1564  0.2777
  436loPI   C1A 6967   2.538  14.104   9.198 -0.2138  0.4434 -0.0157
  436loPI   C2A 6968   2.437  14.002   8.812  0.2320 -0.1992 -0.1712
  436loPI   C3A 6969   2.360  13.962   8.429 -0.0861 -0.1020  0.0736
  436loPI   C4A 6970   2.397  13.903   7.956  0.0398 -0.0866 -0.2210
  436loPI   C5A 6971   2.679  13.688   7.754  0.0694 -0.0907  0.1272
  436loPI   C6A 6972   2.720  13.411   7.558  0.2278  0.1357  0.1056
  436loPI   C1B 6973   3.046  14.002   9.117  0.2968  0.0122 -0.3073
  436loPI   C2B 6974   2.935  14.038   8.869  0.1891 -0.1964  0.2066
  436loPI   C3B 6975   3.052  13.945   8.482 -0.6245  0.2536 -0.2174
  436loPI   C4B 6976   2.844  13.942   8.202  0.0839 -0.1934 -0.0582
  437loPI    C1 6977  15.084  12.191  10.786 -0.0838  0.1941  0.0946
  437loPI    C2 6978  15.184  12.189  11.173 -0.1964 -0.0028  0.1237
  437loPI    C3 6979  15.469  12.167  10.894 -0.0956  0.3979  0.1878
  437loPI   PO4 6980  14.904  12.312  10.742  0.2009  0.1917  0.2705
  437loPI   GL1 6981  14.953  12.528  10.316  0.0817 -0.1551  0.2361
  437loPI   GL2 6982  14.674  12.201  10.288  0.0190  0.5975 -0.0672
  437loPI   C1A 6983  14.562  12.644   9.940  0.0306 -0.1833  0.2118
  437loPI   C2A 6984  14.461  12.800   9.594  0.0266  0.0428  0.1067
  437loPI   C3A 6985  14.552  12.753   9.273 -0.4249 -0.2598 -0.0045
  437loPI   C4A 6986  14.572  12.807   8.870  0.1154  0.0464  0.0106
  437loPI   C5A 6987  14.575  12.856   8.376 -0.3149 -0.1978  0.0417
  437loPI   C6A 6988  14.593  12.997   7.983 -0.2154  0.2780  0.2924
  437loPI   C1B 6989  14.872  12.192   9.931 -0.3851  0.1312 -0.0965
  437loPI   C2B 6990  14.693  12.309   9.539  0.1652 -0.1169 -0.0136
  437loPI   C3B 6991  14.888  12.396   9.159  0.2388  0.3301  0.1126
  437loPI   C4B 6992  14.848  12.346   8.733  0.2530  0.2005 -0.0085
  438loPI    C1 6993   8.218  15.956   9.675 -0.1812  0.3696  0.0904
  438loPI    C2 6994   8.207  15.981  10.075  0.1861  0.3172  0.1069
  438loPI    C3 6995   8.526  15.823   9.892 -0.1038  0.0677 -0.1972
  438loPI   PO4 6996   8.060  15.801   9.616 -0.2243 -0.2524  0.1839
  438loPI   GL1 6997   8.133  15.615   9.227  0.1086  0.0535 -0.0022
  438loPI   GL2 6998   8.199  15.402   9.175  0.3551  0.3171 -0.1220
  438loPI   C1A 6999   8.123  15.853   8.826  0.0046 -0.1291  0.0728
  438loPI   C2A 7000   8.314  15.798   8.491 -0.0585 -0.0386  0.1878
  438loPI   C3A 7001   8.337  15.884   8.146 -0.0124 -0.2211 -0.3402
  438loPI   C4A 7002   8.223  15.906   7.785  0.0764 -0.3515  0.0313
  438loPI   C5A 7003   8.393  15.697   7.477  0.0965  0.2286  0.0375
  438loPI   C6A 7004   8.243  15.500   7.083  0.0265 -0.2348  0.0060
  438loPI   C1B 7005   8.147  15.379   8.808 -0.1200 -0.0611  0.0281
  438loPI   C2B 7006   8.071  15.394   8.411  0.0633  0.0319 -0.4033
  438loPI   C3B 7007   7.959  15.369   8.048 -0.2765 -0.1264  0.3010
  438loPI   C4B 7008   7.973  15.454   7.604 -0.1911  0.0933  0.0272
  439loPI    C1 7009  12.520  16.779  10.488 -0.2446 -0.0447  0.1458
  439loPI    C2 7010  12.225  16.524  10.577 -0.2196 -0.0912  0.0968
  439loPI    C3 7011  12.324  16.814  10.834 -0.1917 -0.1831  0.1904
  439loPI   PO4 7012  12.511  16.748  10.218  0.0973 -0.0122  0.1856
  439loPI   GL1 7013  12.456  16.866   9.786 -0.0040 -0.0897 -0.2225
  439loPI   GL2 7014  12.702  17.102   9.809  0.0566 -0.2350  0.3301
  439loPI   C1A 7015  12.307  16.695   9.446  0.0917  0.2727 -0.1846
  439loPI   C2A 7016  12.402  16.756   9.020  0.0628  0.0237  0.2333
  439loPI   C3A 7017  12.503  16.729   8.607  0.3758  0.0950  0.1261
  439loPI   C4A 7018  12.415  16.737   8.174  0.0350 -0.0587 -0.0739
  439loPI   C5A 7019  12.517  16.632   7.852  0.1363  0.0444 -0.1141
  439loPI   C6A 7020  12.889  16.650   7.644 -0.2112  0.2315  0.1750
  439loPI   C1B 7021  12.670  17.173   9.387  0.0520  0.0689 -0.1452
  439loPI   C2B 7022  12.634  17.247   8.933  0.1301 -0.0816 -0.1157
  439loPI   C3B 7023  12.651  17.242   8.471  0.0713  0.4055  0.0258
  439loPI   C4B 7024  12.678  17.343   8.077 -0.1399 -0.2502  0.0496
  440loPI    C1 7025   9.814   7.529  10.244 -0.0391 -0.0055 -0.0550
  440loPI    C2 7026  10.185   7.678  10.259  0.0563 -0.2545  0.1382
  440loPI    C3 7027   9.928   7.750  10.557 -0.0812 -0.0106 -0.0360
  440loPI   PO4 7028   9.788   7.595   9.878 -0.3369 -0.3199  0.2289
  440loPI   GL1 7029  10.065   7.648   9.581  0.1473  0.1524 -0.0145
  440loPI   GL2 7030  10.340   7.533   9.671  0.3519 -0.1134  0.2619
  440loPI   C1A 7031  10.003   7.883   9.118  0.0305 -0.1866  0.0851
  440loPI   C2A 7032   9.999   7.900   8.689 -0.3435 -0.0117 -0.0427
  440loPI   C3A 7033  10.107   7.859   8.207 -0.1236  0.0719  0.0255
  440loPI   C4A 7034  10.142   7.923   7.790 -0.2869  0.1532  0.5076
  440loPI   C5A 7035  10.235   7.664   7.482 -0.3363 -0.2909 -0.3023
  440loPI   C6A 7036  10.549   7.332   7.340  0.2005 -0.3383 -0.0885
  440loPI   C1B 7037  10.342   7.407   9.252  0.1189 -0.1685 -0.0016
  440loPI   C2B 7038  10.260   7.449   8.878  0.0907 -0.2769  0.0018
  440loPI   C3B 7039  10.403   7.468   8.419  0.1463  0.0239 -0.1206
  440loPI   C4B 7040  10.447   7.475   7.986 -0.0398 -0.0915  0.3060
  441loPI    C1 7041  18.525   3.507  10.702  0.0201  0.1679 -0.0631
  441loPI    C2 7042  18.824   3.605  10.949  0.0753  0.1391 -0.1181
  441loPI    C3 7043  18.444   3.628  11.074  0.0820  0.4976 -0.1539
  441loPI   PO4 7044  18.699   3.371  10.545 -0.5606 -0.3679  0.0064
  441loPI   GL1 7045  18.757   3.567  10.151  0.1950  0.2461  0.0765
  441loPI   GL2 7046  18.812   3.366  10.036  0.1409  0.1342 -0.1902
  441loPI   C1A 7047  18.634   3.687   9.642  0.1234 -0.0708 -0.1691
  441loPI   C2A 7048  18.630   3.809   9.194 -0.2581  0.0551  0.0594
  441loPI   C3A 7049  18.635   3.661   8.866 -0.4817 -0.1166  0.1336
  441loPI   C4A 7050  18.621   3.585   8.415  0.0272 -0.0335  0.0091
  441loPI   C5A 7051  18.407   3.687   8.002 -0.2214  0.0276  0.0568
  441loPI   C6A 7052  18.255   3.328   7.811  0.3113  0.0731  0.1108
  441loPI   C1B 7053  18.859   3.255   9.594  0.2250  0.2282  0.2166
  441loPI   C2B 7054  18.933   3.251   9.161 -0.3556 -0.0439  0.1443
  441loPI   C3B 7055  18.962   3.230   8.771 -0.0930 -0.1444 -0.1660
  441loPI   C4B 7056  18.921   3.206   8.300  0.1782 -0.0848 -0.0366
  442loPI    C1 7057  18.632  17.476  10.190 -0.0104  0.0116  0.0089
  442loPI    C2 7058  18.567  17.783  10.439 -0.0558  0.1000 -0.1108
  442loPI    C3 7059  18.321  17.467  10.442 -0.0262  0.0778 -0.0079
  442loPI   PO4 7060  18.694  17.654   9.991  0.1227  0.0935  0.3574
  442loPI   GL1 7061  18.941  17.765   9.652 -0.0039 -0.0803  0.0181
  442loPI   GL2 7062  18.954  18.155   9.578 -0.0513  0.1831  0.0157
  442loPI   C1A 7063  18.716  17.492   9.370  0.0289  0.3432  0.0318
  442loPI   C2A 7064  18.676  17.577   8.933  0.2317 -0.0023 -0.3114
  442loPI   C3A 7065  18.576  17.456   8.501  0.2134 -0.2526  0.0435
  442loPI   C4A 7066  18.519  17.414   8.006  0.0327  0.0242 -0.2084
  442loPI   C5A 7067  18.588  17.638   7.483  0.1363  0.2777 -0.2624
  442loPI   C6A 7068  18.705  17.542   7.012  0.0458 -0.0940  0.3441
  442loPI   C1B 7069  18.931  17.992   9.160 -0.0121  0.1799 -0.0899
  442loPI   C2B 7070  18.879  17.991   8.679 -0.2596  0.0985  0.1061
  442loPI   C3B 7071  18.853  17.882   8.273 -0.1687  0.4622  0.0503
  442loPI   C4B 7072  18.904  17.913   7.830  0.1817 -0.3025  0.0607
  443loPI    C1 7073   3.276  18.253  10.070 -0.0700  0.0669  0.1884
  443loPI    C2 7074   3.048  18.243  10.398 -0.1315 -0.0214  0.1433
  443loPI    C3 7075   3.290  17.936  10.314  0.1696  0.1661  0.3072
  443loPI   PO4 7076   2.991  18.401   9.947 -0.0814  0.0795  0.0840
  443loPI   GL1 7077   2.851  18.339   9.529  0.3482  0.1128 -0.2969
  443loPI   GL2 7078   2.489  18.061   9.618 -0.1877 -0.2584 -0.1739
  443loPI   C1A 7079   2.718  18.481   9.091 -0.0478 -0.1098 -0.1671
  443loPI   C2A 7080   2.797  18.580   8.684  0.1624  0.0006 -0.1510
  443loPI   C3A 7081   2.687  18.620   8.221  0.0356  0.2175  0.0310
  443loPI   C4A 7082   2.726  18.561   7.759  0.0211 -0.0160  0.3383
  443loPI   C5A 7083   2.597  18.810   7.339  0.0510 -0.0525 -0.0645
  443loPI   C6A 7084   2.375  18.851   7.091  0.2394 -0.0603  0.0461
  443loPI   C1B 7085   2.636  18.001   9.196 -0.0110 -0.0679 -0.1183
  443loPI   C2B 7086   2.568  18.054   8.781  0.2042  0.1649  0.2478
  443loPI   C3B 7087   2.583  18.056   8.303 -0.1655 -0.2530  0.4428
  443loPI   C4B 7088   2.534  18.198   7.973 -0.1457  0.1025  0.3173
  444loPI    C1 7089  10.561   6.483  10.379 -0.0029  0.0744 -0.0177
  444loPI    C2 7090  10.416   6.839  10.490  0.0223  0.1640 -0.2652
  444loPI    C3 7091  10.461   6.548  10.761  0.3191  0.4556  0.0085
  444loPI   PO4 7092  10.700   6.517  10.081 -0.1057  0.3807 -0.1071
  444loPI   GL1 7093  10.647   6.548   9.628  0.1440 -0.2321 -0.1832
  444loPI   GL2 7094  10.377   6.517   9.472 -0.0356  0.1513 -0.0413
  444loPI   C1A 7095  10.890   6.570   9.248 -0.3171 -0.0271  0.0290
  444loPI   C2A 7096  10.849   6.581   8.912 -0.0695 -0.0703  0.3344
  444loPI   C3A 7097  10.984   6.694   8.467 -0.0675 -0.4936  0.0535
  444loPI   C4A 7098  11.113   6.597   8.024  0.1217 -0.0044  0.3117
  444loPI   C5A 7099  10.991   6.436   7.649 -0.2376  0.2541 -0.0595
  444loPI   C6A 7100  11.141   6.227   7.266  0.0115 -0.3900 -0.1322
  444loPI   C1B 7101  10.386   6.526   9.096  0.3775  0.1842 -0.3480
  444loPI   C2B 7102  10.366   6.520   8.693 -0.2269  0.1768 -0.1736
  444loPI   C3B 7103  10.435   6.588   8.298  0.0473  0.0198 -0.1406
  444loPI   C4B 7104  10.578   6.560   7.899 -0.3126 -0.0929  0.0897
  445loPI    C1 7105  11.990  11.896  10.434 -0.0871  0.0668  0.2811
  445loPI    C2 7106  12.186  11.556  10.511 -0.0185  0.0390 -0.0065
  445loPI    C3 7107  12.141  11.830  10.799  0.3055 -0.0232  0.1083
  445loPI   PO4 7108  11.970  11.859  10.130 -0.0318 -0.3476 -0.1973
  445loPI   GL1 7109  12.085  11.869   9.729 -0.2421  0.1604  0.0814
  445loPI   GL2 7110  12.439  11.914   9.650  0.2873 -0.0114 -0.0120
  445loPI   C1A 7111  11.979  11.588   9.303 -0.0740  0.0329 -0.0296
  445loPI   C2A 7112  12.142  11.648   8.797 -0.2942 -0.1329 -0.0860
  445loPI   C3A 7113  12.060  11.657   8.378  0.0932 -0.0021  0.1229
  445loPI   C4A 7114  12.189  11.744   7.872 -0.1743  0.1075 -0.0023
  445loPI   C5A 7115  12.068  11.481   7.463  0.1647  0.2313  0.0498
  445loPI   C6A 7116  12.141  11.153   7.404 -0.0680  0.0013  0.0706
  445loPI   C1B 7117  12.428  11.783   9.196  0.0233  0.0920 -0.2479
  445loPI   C2B 7118  12.602  11.753   8.752 -0.1413  0.0742 -0.2946
  445loPI   C3B 7119  12.516  11.827   8.285  0.3766  0.0962 -0.0104
  445loPI   C4B 7120  12.232  12.126   8.102  0.2284  0.1126  0.2589
  446loPI    C1 7121   3.693   3.378  10.257 -0.2193  0.0491  0.0296
  446loPI    C2 7122   3.759   3.169  10.591 -0.2337  0.0640  0.0417
  446loPI    C3 7123   3.501   3.474  10.594 -0.2189  0.0767  0.0218
  446loPI   PO4 7124   3.872   3.263  10.082 -0.0280  0.2822  0.2467
  446loPI   GL1 7125   4.052   2.977   9.799  0.1055  0.0322 -0.2917
  446loPI   GL2 7126   3.802   2.626   9.809 -0.1430 -0.1396  0.1060
  446loPI   C1A 7127   3.902   2.997   9.450 -0.1904  0.0349 -0.0429
  446loPI   C2A 7128   4.015   3.052   9.049 -0.1540 -0.0744  0.0066
  446loPI   C3A 7129   3.929   2.975   8.621  0.1063 -0.2523  0.0672
  446loPI   C4A 7130   3.937   3.010   8.163  0.1693 -0.0941 -0.0882
  446loPI   C5A 7131   3.886   3.070   7.756 -0.0209 -0.0606  0.0396
  446loPI   C6A 7132   3.855   3.137   7.309 -0.3029  0.1820 -0.1156
  446loPI   C1B 7133   3.740   2.481   9.501  0.3617 -0.1651 -0.0308
  446loPI   C2B 7134   3.712   2.589   9.084  0.0615 -0.3031 -0.3998
  446loPI   C3B 7135   3.635   2.559   8.634 -0.1024 -0.3883  0.1204
  446loPI   C4B 7136   3.689   2.544   8.150 -0.0937 -0.1808 -0.0359
  447loPI    C1 7137   5.728  11.749  10.093  0.2752 -0.1606  0.0300
  447loPI    C2 7138   5.548  11.779  10.449  0.3784  0.1509  0.0590
  447loPI    C3 7139   5.947  11.768  10.427  0.3673 -0.1883 -0.0286
  447loPI   PO4 7140   5.514  11.667   9.940  0.2651 -0.0145 -0.5432
  447loPI   GL1 7141   5.179  11.836   9.667 -0.1919  0.3053  0.1308
  447loPI   GL2 7142   5.461  12.039   9.581 -0.2071 -0.1025  0.3350
  447loPI   C1A 7143   4.938  11.732   9.306  0.0560  0.0954  0.1109
  447loPI   C2A 7144   4.955  11.746   8.863  0.1006 -0.0740 -0.1353
  447loPI   C3A 7145   4.969  11.792   8.423  0.1163 -0.1185 -0.0757
  447loPI   C4A 7146   4.878  11.800   8.028  0.1228  0.0711 -0.0647
  447loPI   C5A 7147   4.804  11.520   7.733  0.2718  0.3190  0.0489
  447loPI   C6A 7148   4.962  11.664   7.385 -0.1413 -0.1197  0.3405
  447loPI   C1B 7149   5.405  11.861   9.096  0.0190 -0.0105 -0.0781
  447loPI   C2B 7150   5.483  11.876   8.701 -0.0887  0.1732 -0.2077
  447loPI   C3B 7151   5.416  11.749   8.205  0.1551 -0.1018 -0.0331
  447loPI   C4B 7152   5.226  11.872   7.740  0.0171 -0.1670 -0.5680
  448loPI    C1 7153   8.502  16.893  10.151 -0.1299  0.1594 -0.1019
  448loPI    C2 7154   8.898  16.931  10.113 -0.1234  0.0312 -0.1655
  448loPI    C3 7155   8.746  16.649  10.353 -0.1766  0.0233 -0.2084
  448loPI   PO4 7156   8.386  16.925   9.923 -0.0972  0.0406 -0.2192
  448loPI   GL1 7157   8.343  16.966   9.412 -0.0546 -0.1192 -0.3891
  448loPI   GL2 7158   8.432  16.644   9.383  0.1703  0.0098 -0.0295
  448loPI   C1A 7159   8.456  17.258   9.136  0.0960 -0.1923  0.0307
  448loPI   C2A 7160   8.501  17.380   8.757  0.0610 -0.1579 -0.0991
  448loPI   C3A 7161   8.465  17.401   8.288  0.2635 -0.1764  0.1400
  448loPI   C4A 7162   8.324  17.304   7.816  0.1489  0.1511 -0.3454
  448loPI   C5A 7163   8.448  17.235   7.397 -0.1809  0.1673 -0.3404
  448loPI   C6A 7164   8.698  17.012   7.180  0.0782 -0.0635 -0.2542
  448loPI   C1B 7165   8.612  16.766   8.984  0.1265 -0.1873 -0.0780
  448loPI   C2B 7166   8.601  16.963   8.565  0.1367 -0.0859 -0.1027
  448loPI   C3B 7167   8.647  17.017   8.119 -0.2467  0.0864 -0.0349
  448loPI   C4B 7168   8.593  16.873   7.687 -0.1110 -0.2525 -0.0146
  449loPI    C1 7169   8.040   2.162  10.404 -0.2290 -0.1570 -0.1198
  449loPI    C2 7170   7.894   2.514  10.527 -0.0526 -0.0790 -0.1313
  449loPI    C3 7171   7.950   2.217  10.790 -0.2891 -0.1310 -0.1374
  449loPI   PO4 7172   7.875   2.041  10.150 -0.2370 -0.3896  0.0308
  449loPI   GL1 7173   7.684   1.962   9.681 -0.1019  0.0367  0.1854
  449loPI   GL2 7174   7.346   2.007   9.594 -0.0124 -0.0629  0.0486
  449loPI   C1A 7175   7.666   1.998   9.209  0.0304 -0.0618 -0.1483
  449loPI   C2A 7176   7.623   2.146   8.795 -0.0453  0.2275  0.1511
  449loPI   C3A 7177   7.649   2.274   8.360 -0.1522 -0.4777  0.0203
  449loPI   C4A 7178   7.616   2.408   7.932 -0.1577  0.0444  0.3591
  449loPI   C5A 7179   7.672   2.281   7.609 -0.1665 -0.0839 -0.1149
  449loPI   C6A 7180   7.972   2.082   7.521  0.0675  0.1545  0.2811
  449loPI   C1B 7181   7.218   2.131   9.208  0.3053  0.1898 -0.1870
  449loPI   C2B 7182   7.173   2.227   8.873  0.0483 -0.6048 -0.2800
  449loPI   C3B 7183   7.145   2.247   8.478 -0.0173  0.1690 -0.0024
  449loPI   C4B 7184   7.055   2.267   8.038  0.0844  0.2047  0.3205
  450loPI    C1 7185  13.160   9.626  10.412 -0.1784 -0.0730  0.3512
  450loPI    C2 7186  13.015   9.975  10.544 -0.3560 -0.0405  0.0766
  450loPI    C3 7187  13.392   9.952  10.412 -0.3818  0.0774 -0.0196
  450loPI   PO4 7188  13.059   9.507  10.170 -0.2068 -0.0740  0.0086
  450loPI   GL1 7189  12.969   9.534   9.694 -0.1256 -0.1044  0.0627
  450loPI   GL2 7190  13.257   9.464   9.468  0.1334  0.1553  0.0167
  450loPI   C1A 7191  12.802   9.384   9.206  0.2125 -0.3501 -0.3518
  450loPI   C2A 7192  12.881   9.467   8.824  0.2249 -0.2270  0.1251
  450loPI   C3A 7193  12.834   9.436   8.352 -0.1371 -0.2669 -0.4206
  450loPI   C4A 7194  12.948   9.387   7.850  0.1857 -0.5332  0.4547
  450loPI   C5A 7195  12.905   9.567   7.483  0.0520  0.2016 -0.0309
  450loPI   C6A 7196  13.094   9.892   7.395  0.0437 -0.3505 -0.0507
  450loPI   C1B 7197  13.315   9.416   8.982  0.0079 -0.0037  0.2104
  450loPI   C2B 7198  13.317   9.486   8.579 -0.2780  0.1869 -0.0176
  450loPI   C3B 7199  13.336   9.413   8.174 -0.1974 -0.0497  0.1257
  450loPI   C4B 7200  13.435   9.353   7.648  0.1466 -0.2340  0.0756
  451loPI    C1 7201   0.712   1.264  10.356 -0.1013  0.1304 -0.0657
  451loPI    C2 7202   0.592   0.894  10.449  0.1147  0.0110 -0.2499
  451loPI    C3 7203   0.556   1.190  10.716  0.1950 -0.2012  0.0001
  451loPI   PO4 7204   0.682   1.310  10.123  0.1775  0.1078  0.0120
  451loPI   GL1 7205   0.680   1.258   9.689 -0.0703 -0.1144 -0.1657
  451loPI   GL2 7206   0.723   1.583   9.701  0.4192 -0.0868 -0.1136
  451loPI   C1A 7207   0.492   1.016   9.278  0.2279 -0.1802  0.1575
  451loPI   C2A 7208   0.376   0.983   8.848 -0.0811  0.0863  0.3072
  451loPI   C3A 7209   0.306   0.935   8.493 -0.0382  0.0086  0.1751
  451loPI   C4A 7210   0.300   0.959   7.989 -0.0951 -0.1258  0.0707
  451loPI   C5A 7211   0.333   0.776   7.570  0.2728  0.1663  0.1805
  451loPI   C6A 7212   0.188   0.840   7.104 -0.1339  0.3239  0.0773
  451loPI   C1B 7213   0.674   1.518   9.258  0.5392  0.1340  0.2556
  451loPI   C2B 7214   0.630   1.390   8.816 -0.0820 -0.2448  0.1018
  451loPI   C3B 7215   0.540   1.346   8.456  0.1163  0.1065 -0.0462
  451loPI   C4B 7216   0.622   1.509   8.129 -0.1158 -0.1229  0.1882
  452loPI    C1 7217   6.688  14.733   9.725 -0.1323  0.1599 -0.0778
  452loPI    C2 7218   6.919  14.932   9.984 -0.0579  0.0215 -0.0371
  452loPI    C3 7219   6.694  14.626  10.111 -0.2046  0.1059 -0.0914
  452loPI   PO4 7220   6.548  14.858   9.632 -0.1247  0.1405  0.0919
  452loPI   GL1 7221   6.660  15.079   9.249  0.0864 -0.2362  0.0779
  452loPI   GL2 7222   6.805  14.791   9.164  0.0441 -0.5071  0.3863
  452loPI   C1A 7223   6.513  15.347   8.825 -0.0111  0.0190  0.0319
  452loPI   C2A 7224   6.499  15.369   8.366 -0.3280  0.5342  0.0261
  452loPI   C3A 7225   6.420  15.419   7.987 -0.2923 -0.1302  0.1395
  452loPI   C4A 7226   6.376  15.302   7.558 -0.1164 -0.0162  0.4237
  452loPI   C5A 7227   6.020  15.158   7.333  0.5216  0.1320  0.0151
  452loPI   C6A 7228   5.628  15.208   7.375 -0.0135  0.0741  0.0639
  452loPI   C1B 7229   6.812  14.870   8.708  0.1836  0.0682  0.4248
  452loPI   C2B 7230   6.761  14.919   8.348  0.1381  0.1212 -0.2569
  452loPI   C3B 7231   6.572  14.960   7.896  0.0733  0.4267 -0.0804
  452loPI   C4B 7232   6.482  14.856   7.479 -0.1767 -0.1864  0.2040
  453loPI    C1 7233   2.147   0.246  10.058 -0.1077  0.2001 -0.2123
  453loPI    C2 7234   1.789   0.216  10.234 -0.0144 -0.2210 -0.0845
  453loPI    C3 7235   1.880   0.542  10.021 -0.4015 -0.0274  0.0374
  453loPI   PO4 7236   2.243   0.089   9.917  0.0168  0.0965 -0.2197
  453loPI   GL1 7237   2.196  -0.102   9.518  0.2886  0.2794 -0.1279
  453loPI   GL2 7238   2.314  -0.400   9.408  0.0512  0.1431 -0.2432
  453loPI   C1A 7239   1.842  -0.256   9.133 -0.2002  0.2449 -0.2107
  453loPI   C2A 7240   1.719  -0.218   8.740  0.2523 -0.0316  0.1103
  453loPI   C3A 7241   1.679  -0.313   8.292 -0.1352  0.2863 -0.2943
  453loPI   C4A 7242   1.750  -0.405   7.920  0.0942  0.3415  0.5500
  453loPI   C5A 7243   1.609  -0.514   7.540 -0.1209 -0.5784 -0.2580
  453loPI   C6A 7244   1.353  -0.842   7.359 -0.1271  0.1173 -0.2627
  453loPI   C1B 7245   2.260  -0.279   8.967  0.1467  0.1127  0.1505
  453loPI   C2B 7246   2.316  -0.367   8.584 -0.1578 -0.3249 -0.0159
  453loPI   C3B 7247   2.176  -0.289   8.204  0.1601 -0.3464 -0.0031
  453loPI   C4B 7248   2.124  -0.337   7.665 -0.1238 -0.1824  0.3986
  454loPI    C1 7249   1.637  14.884  10.167  0.1028  0.3778  0.0500
  454loPI    C2 7250   2.019  14.985  10.227  0.1944  0.1473 -0.1282
  454loPI    C3 7251   1.763  14.980  10.535  0.3659  0.1717  0.0168
  454loPI   PO4 7252   1.545  15.064   9.986  0.0513  0.2314  0.1337
  454loPI   GL1 7253   1.750  15.327   9.688 -0.1348  0.0836  0.3389
  454loPI   GL2 7254   1.996  15.312   9.820  0.1263  0.2126 -0.1524
  454loPI   C1A 7255   1.543  15.373   9.319  0.1140 -0.2716 -0.2615
  454loPI   C2A 7256   1.562  15.342   8.923  0.1037 -0.2019 -0.2072
  454loPI   C3A 7257   1.590  15.256   8.425 -0.0346  0.1120 -0.0997
  454loPI   C4A 7258   1.580  15.271   7.972  0.0383  0.2888 -0.0259
  454loPI   C5A 7259   1.566  15.232   7.525  0.2708 -0.0593 -0.0693
  454loPI   C6A 7260   1.411  15.175   7.232  0.1720  0.0183 -0.0703
  454loPI   C1B 7261   2.115  15.410   9.392 -0.0387  0.0168  0.0925
  454loPI   C2B 7262   2.157  15.297   9.024 -0.0726  0.1251  0.4434
  454loPI   C3B 7263   2.117  15.305   8.605 -0.1566 -0.0056 -0.1659
  454loPI   C4B 7264   2.109  15.186   8.094  0.1124 -0.2666  0.1005
  455loPI    C1 7265   5.985  12.284  10.254  0.0671 -0.1594 -0.1273
  455loPI    C2 7266   6.092  12.347  10.635  0.1489  0.1297 -0.1957
  455loPI    C3 7267   5.719  12.231  10.548  0.2031 -0.1962 -0.0096
  455loPI   PO4 7268   6.000  12.431  10.081 -0.2682 -0.1535 -0.1977
  455loPI   GL1 7269   5.901  12.525   9.707 -0.1291 -0.0847 -0.0899
  455loPI   GL2 7270   5.711  12.755   9.735  0.0754 -0.1879 -0.0047
  455loPI   C1A 7271   5.849  12.332   9.289  0.0588 -0.0735  0.1187
  455loPI   C2A 7272   5.755  12.295   8.775 -0.3463  0.1477 -0.1990
  455loPI   C3A 7273   5.696  12.132   8.356 -0.0247 -0.1834  0.0403
  455loPI   C4A 7274   5.536  12.217   7.991 -0.3884  0.2431 -0.1348
  455loPI   C5A 7275   5.514  12.202   7.558  0.2237  0.2308  0.1315
  455loPI   C6A 7276   5.434  12.328   7.086 -0.1661  0.2595 -0.0212
  455loPI   C1B 7277   5.526  12.732   9.416 -0.3890  0.1487 -0.3798
  455loPI   C2B 7278   5.462  12.694   8.991 -0.0903  0.1239 -0.1429
  455loPI   C3B 7279   5.465  12.706   8.627  0.0994  0.1016 -0.0156
  455loPI   C4B 7280   5.403  12.663   8.172  0.3443  0.0322  0.1442
  456loPI    C1 7281   7.591   2.841  10.287  0.0059  0.1056  0.0968
  456loPI    C2 7282   7.457   3.215  10.328  0.1343  0.1564  0.0560
  456loPI    C3 7283   7.583   3.012  10.648 -0.2068  0.0442  0.1225
  456loPI   PO4 7284   7.860   2.881  10.097 -0.0285  0.0700 -0.1390
  456loPI   GL1 7285   7.939   3.051   9.795  0.0244  0.2592 -0.1826
  456loPI   GL2 7286   8.233   3.058   9.672 -0.0643 -0.0434  0.1152
  456loPI   C1A 7287   7.930   2.733   9.420  0.0004  0.0014 -0.0627
  456loPI   C2A 7288   7.931   2.735   8.970 -0.1604  0.0344  0.0604
  456loPI   C3A 7289   7.897   2.635   8.612 -0.0104 -0.1971  0.2060
  456loPI   C4A 7290   7.905   2.752   8.179  0.3312 -0.1479  0.3354
  456loPI   C5A 7291   7.581   3.040   7.889 -0.0126  0.1329  0.1565
  456loPI   C6A 7292   7.508   3.129   7.440  0.0539  0.2990 -0.0961
  456loPI   C1B 7293   8.227   3.056   9.281 -0.2199 -0.0866  0.0756
  456loPI   C2B 7294   8.144   3.156   8.861  0.2330 -0.0408  0.2660
  456loPI   C3B 7295   8.139   3.140   8.363 -0.0505  0.0735 -0.3317
  456loPI   C4B 7296   8.053   3.199   8.031  0.2713  0.1394 -0.0276
  457loPI    C1 7297  18.004  15.527  10.427 -0.1433 -0.1136 -0.2854
  457loPI    C2 7298  17.645  15.683  10.505 -0.0503  0.0546 -0.1889
  457loPI    C3 7299  17.788  15.388  10.734 -0.0516  0.1089 -0.1176
  457loPI   PO4 7300  18.074  15.387  10.242  0.0558 -0.0346  0.1005
  457loPI   GL1 7301  18.199  15.349   9.785  0.0542 -0.3252 -0.1433
  457loPI   GL2 7302  18.085  15.507   9.688 -0.1397  0.2443 -0.4621
  457loPI   C1A 7303  18.327  15.169   9.282  0.1730 -0.2932 -0.0249
  457loPI   C2A 7304  18.392  15.168   8.830 -0.1431  0.0253 -0.3699
  457loPI   C3A 7305  18.401  15.222   8.459 -0.1387  0.1994 -0.0869
  457loPI   C4A 7306  18.312  15.216   8.101 -0.0359  0.0274 -0.0523
  457loPI   C5A 7307  18.246  15.314   7.688  0.1416  0.4563  0.0451
  457loPI   C6A 7308  18.332  15.322   7.243  0.3100 -0.0670 -0.2785
  457loPI   C1B 7309  18.105  15.598   9.323 -0.2049 -0.0837 -0.1830
  457loPI   C2B 7310  18.126  15.555   8.923 -0.2500  0.0552  0.0767
  457loPI   C3B 7311  18.028  15.610   8.496 -0.2941 -0.0900  0.1894
  457loPI   C4B 7312  18.044  15.620   8.096  0.0426 -0.0873  0.0676
  458loPI    C1 7313  11.426  12.520  10.093 -0.2489  0.0631 -0.2261
  458loPI    C2 7314  11.139  12.655  10.337 -0.0871  0.0162 -0.0070
  458loPI    C3 7315  11.472  12.870  10.281 -0.1008  0.0017 -0.1464
  458loPI   PO4 7316  11.250  12.495   9.879  0.1286  0.0597 -0.0839
  458loPI   GL1 7317  11.315  12.788   9.414 -0.0408  0.0273  0.0717
  458loPI   GL2 7318  11.532  12.569   9.357 -0.0315 -0.1539 -0.2341
  458loPI   C1A 7319  11.167  12.686   8.934  0.1861 -0.4553  0.2041
  458loPI   C2A 7320  11.371  12.534   8.449  0.1306  0.0048 -0.0688
  458loPI   C3A 7321  11.536  12.559   8.109 -0.2103 -0.1645  0.0527
  458loPI   C4A 7322  11.747  12.362   7.844 -0.0425  0.0604 -0.0533
  458loPI   C5A 7323  11.884  12.323   7.450 -0.0645 -0.3386 -0.1285
  458loPI   C6A 7324  11.635  12.228   7.073  0.1351  0.1078  0.1455
  458loPI   C1B 7325  11.675  12.554   8.862  0.1835 -0.0597  0.2872
  458loPI   C2B 7326  11.932  12.528   8.472 -0.1325  0.0890 -0.1193
  458loPI   C3B 7327  12.082  12.645   8.036  0.1138  0.2348 -0.2727
  458loPI   C4B 7328  12.321  12.456   7.730 -0.0339 -0.1170 -0.2609
  459loPI    C1 7329  17.268   3.980  11.076 -0.1130  0.0407 -0.1627
  459loPI    C2 7330  17.314   4.060  11.465  0.0902 -0.1760 -0.1398
  459loPI    C3 7331  17.360   4.351  11.195  0.0991 -0.0580 -0.0123
  459loPI   PO4 7332  17.116   3.854  11.026  0.0451 -0.1803 -0.2740
  459loPI   GL1 7333  16.991   3.667  10.605  0.2476  0.1882 -0.0254
  459loPI   GL2 7334  16.664   3.609  10.486 -0.2988  0.1183 -0.0894
  459loPI   C1A 7335  17.056   3.636  10.149 -0.2227 -0.5779 -0.0143
  459loPI   C2A 7336  16.950   3.547   9.730 -0.0162  0.1566 -0.1406
  459loPI   C3A 7337  17.026   3.719   9.337 -0.1948  0.0723  0.1084
  459loPI   C4A 7338  17.081   3.651   8.890 -0.0666 -0.1200  0.0384
  459loPI   C5A 7339  17.157   3.505   8.479  0.1349  0.1493 -0.1027
  459loPI   C6A 7340  17.458   3.281   8.390 -0.2821  0.1391  0.1975
  459loPI   C1B 7341  16.569   3.617  10.070  0.1920  0.0104  0.0983
  459loPI   C2B 7342  16.513   3.608   9.546 -0.2304  0.3003 -0.0691
  459loPI   C3B 7343  16.589   3.661   9.030  0.0506  0.0931 -0.0940
  459loPI   C4B 7344  16.686   3.575   8.561  0.1005 -0.1016 -0.0346
  460loPI    C1 7345  12.438   5.856  10.177  0.1597  0.1461 -0.2445
  460loPI    C2 7346  12.200   5.923   9.863 -0.0763  0.1053 -0.0766
  460loPI    C3 7347  12.100   6.065  10.223  0.1200  0.0298  0.0089
  460loPI   PO4 7348  12.717   5.967  10.152  0.0358 -0.1045  0.3524
  460loPI   GL1 7349  12.791   6.259   9.806 -0.0419 -0.2244  0.1656
  460loPI   GL2 7350  12.752   6.595   9.810  0.4540  0.1250 -0.1444
  460loPI   C1A 7351  12.705   6.111   9.366  0.0908 -0.2721  0.1965
  460loPI   C2A 7352  12.620   6.189   8.886  0.4030 -0.1246 -0.0190
  460loPI   C3A 7353  12.706   6.159   8.436 -0.1563  0.0140  0.0223
  460loPI   C4A 7354  12.525   6.279   7.994 -0.4569  0.1388 -0.2578
  460loPI   C5A 7355  12.644   6.144   7.482 -0.0738 -0.2109  0.2376
  460loPI   C6A 7356  12.971   6.312   7.261  0.1816 -0.1787 -0.3593
  460loPI   C1B 7357  12.843   6.631   9.445 -0.0038 -0.0768 -0.0221
  460loPI   C2B 7358  12.949   6.555   8.983 -0.1109 -0.5105  0.1942
  460loPI   C3B 7359  12.994   6.631   8.473  0.1152 -0.1219  0.3784
  460loPI   C4B 7360  12.873   6.581   8.109  0.1130  0.3328  0.1542
  461loPI    C1 7361  13.377  11.133  10.286  0.0627  0.1364 -0.1815
  461loPI    C2 7362  13.202  11.403  10.523  0.0239  0.0084 -0.0631
  461loPI    C3 7363  13.424  11.111  10.682  0.2644  0.1109 -0.2059
  461loPI   PO4 7364  13.560  11.271  10.108 -0.0133 -0.0289  0.4831
  461loPI   GL1 7365  13.673  11.265   9.696  0.3202 -0.0376  0.1244
  461loPI   GL2 7366  13.638  11.003   9.476 -0.0602  0.0943  0.3022
  461loPI   C1A 7367  13.769  11.497   9.293 -0.0326  0.1231 -0.2236
  461loPI   C2A 7368  13.820  11.365   8.860 -0.1724 -0.0509  0.0739
  461loPI   C3A 7369  13.869  11.221   8.437  0.3966  0.5872  0.0883
  461loPI   C4A 7370  13.940  11.128   7.966 -0.2527 -0.3222  0.1393
  461loPI   C5A 7371  14.030  11.336   7.610  0.2207 -0.1621  0.0316
  461loPI   C6A 7372  13.941  11.576   7.409  0.0926  0.2347 -0.0163
  461loPI   C1B 7373  13.504  10.898   9.102 -0.1073 -0.1495 -0.1587
  461loPI   C2B 7374  13.553  10.885   8.713 -0.0842 -0.1380  0.3836
  461loPI   C3B 7375  13.635  10.828   8.317  0.2403  0.2813 -0.1793
  461loPI   C4B 7376  13.662  10.704   7.850 -0.1661  0.3168 -0.1525
  462loPI    C1 7377   6.760   3.957  10.550 -0.0677 -0.1775 -0.1321
  462loPI    C2 7378   6.929   3.699  10.804  0.0038  0.0280  0.0325
  462loPI    C3 7379   6.787   4.047  10.939 -0.0503  0.0955 -0.1944
  462loPI   PO4 7380   6.626   3.789  10.411 -0.3662 -0.0095 -0.2971
  462loPI   GL1 7381   6.801   3.829   9.980  0.1773  0.0334 -0.0949
  462loPI   GL2 7382   6.953   3.590   9.847  0.1152 -0.3950  0.0740
  462loPI   C1A 7383   6.579   4.003   9.586  0.0252  0.0166  0.1692
  462loPI   C2A 7384   6.530   3.978   9.170  0.4065  0.1755  0.2456
  462loPI   C3A 7385   6.525   4.043   8.675  0.0154  0.1904 -0.1441
  462loPI   C4A 7386   6.634   3.935   8.295  0.0252  0.3655  0.2671
  462loPI   C5A 7387   6.566   3.858   7.855 -0.1121  0.0322  0.1895
  462loPI   C6A 7388   6.203   3.913   7.520 -0.3595 -0.2370 -0.2183
  462loPI   C1B 7389   6.814   3.577   9.502 -0.1345 -0.2773  0.0693
  462loPI   C2B 7390   6.780   3.557   9.052 -0.2160 -0.1375  0.0098
  462loPI   C3B 7391   6.829   3.536   8.579 -0.0079 -0.0166 -0.1991
  462loPI   C4B 7392   6.933   3.558   8.091 -0.1110 -0.0556 -0.3387
  463loPI    C1 7393  15.305  10.972  10.700 -0.0037 -0.0148  0.0562
  463loPI    C2 7394  15.624  10.971  10.942 -0.0358 -0.0344  0.0988
  463loPI    C3 7395  15.290  11.162  11.052  0.1289  0.4232 -0.1681
  463loPI   PO4 7396  15.334  10.922  10.446  0.0815  0.1514 -0.0249
  463loPI   GL1 7397  15.597  10.758  10.221 -0.0572 -0.2425 -0.1285
  463loPI   GL2 7398  15.788  10.390  10.226  0.1815 -0.0365  0.0447
  463loPI   C1A 7399  15.640  10.882   9.768  0.0018  0.1096 -0.1121
  463loPI   C2A 7400  15.674  10.989   9.369  0.0289  0.0901 -0.0673
  463loPI   C3A 7401  15.644  10.962   8.991  0.0607 -0.2927  0.3705
  463loPI   C4A 7402  15.752  11.062   8.509 -0.0561  0.0426 -0.0835
  463loPI   C5A 7403  15.772  11.245   8.163  0.2221  0.2812 -0.0847
  463loPI   C6A 7404  16.012  11.128   7.796  0.2458  0.3242 -0.1248
  463loPI   C1B 7405  15.900  10.402   9.763  0.2949 -0.5453  0.0178
  463loPI   C2B 7406  15.858  10.562   9.333 -0.0129 -0.0703 -0.0440
  463loPI   C3B 7407  15.906  10.553   8.930 -0.2965 -0.0159  0.0144
  463loPI   C4B 7408  15.836  10.555   8.519  0.0029 -0.0712  0.0387
  464loPI    C1 7409   0.157  11.214  10.565  0.1605 -0.0669 -0.2383
  464loPI    C2 7410   0.517  11.050  10.625  0.0428 -0.2381  0.0163
  464loPI    C3 7411   0.313  11.205  10.933 -0.1407 -0.2243 -0.1108
  464loPI   PO4 7412  -0.015  11.089  10.467  0.0859 -0.1638  0.0418
  464loPI   GL1 7413  -0.054  10.947   9.994  0.0538 -0.2862 -0.0669
  464loPI   GL2 7414  -0.407  10.988   9.994 -0.0941  0.0229 -0.1441
  464loPI   C1A 7415  -0.057  10.920   9.609 -0.0457 -0.4076  0.1768
  464loPI   C2A 7416  -0.019  10.976   9.206  0.1682  0.5122 -0.0168
  464loPI   C3A 7417  -0.102  10.992   8.753 -0.0332 -0.0553  0.1990
  464loPI   C4A 7418  -0.205  11.048   8.446 -0.0827  0.1816  0.1471
  464loPI   C5A 7419  -0.205  11.164   8.012 -0.0098 -0.1495 -0.1706
  464loPI   C6A 7420  -0.132  10.904   7.711 -0.0625  0.1738 -0.0155
  464loPI   C1B 7421  -0.589  10.969   9.570  0.1108 -0.4153  0.0971
  464loPI   C2B 7422  -0.633  11.092   9.096 -0.0174  0.0598  0.0862
  464loPI   C3B 7423  -0.704  11.058   8.641 -0.0916  0.0797 -0.0061
  464loPI   C4B 7424  -0.671  10.992   8.224  0.3125  0.0723 -0.2171
  465loPI    C1 7425   8.868  11.447   9.960  0.3750  0.0130  0.0524
  465loPI    C2 7426   8.646  11.289  10.253 -0.0574  0.3372 -0.0906
  465loPI    C3 7427   8.887  11.055  10.036 -0.2387 -0.0197  0.0845
  465loPI   PO4 7428   8.677  11.616   9.745 -0.0346 -0.0451 -0.0865
  465loPI   GL1 7429   8.595  11.616   9.322  0.2240 -0.2533  0.3236
  465loPI   GL2 7430   8.774  11.721   9.122 -0.2535  0.1161 -0.3485
  465loPI   C1A 7431   8.441  11.383   8.901 -0.0192  0.3368 -0.0930
  465loPI   C2A 7432   8.412  11.312   8.470  0.0086 -0.0350  0.3366
  465loPI   C3A 7433   8.352  11.449   8.082 -0.1355  0.0960 -0.1219
  465loPI   C4A 7434   8.336  11.598   7.706 -0.0845 -0.2317 -0.0990
  465loPI   C5A 7435   8.498  11.790   7.354  0.1629  0.2569  0.2153
  465loPI   C6A 7436   8.434  11.892   6.920 -0.1765 -0.1349  0.1347
  465loPI   C1B 7437   8.747  11.693   8.705 -0.2400  0.0501  0.2234
  465loPI   C2B 7438   8.826  11.595   8.307  0.2180  0.2969  0.1711
  465loPI   C3B 7439   9.069  11.667   8.123 -0.0782  0.2032  0.3434
  465loPI   C4B 7440   9.305  11.835   7.799 -0.0135  0.0159 -0.0528
  466loPI    C1 7441   9.275   6.730  10.331  0.3685  0.0066 -0.0939
  466loPI    C2 7442   9.316   7.099  10.478 -0.2197  0.1511 -0.2639
  466loPI    C3 7443   9.085   6.834  10.668  0.1115 -0.1001 -0.2030
  466loPI   PO4 7444   9.255   6.680  10.016  0.0810 -0.1171 -0.1790
  466loPI   GL1 7445   9.305   6.965   9.647 -0.1397  0.0512  0.4222
  466loPI   GL2 7446   9.603   6.852   9.404  0.2076 -0.1445  0.2765
  466loPI   C1A 7447   9.080   6.945   9.252  0.0385  0.1191  0.1593
  466loPI   C2A 7448   9.135   6.919   8.739 -0.1483 -0.2025  0.0327
  466loPI   C3A 7449   9.086   6.944   8.326 -0.3119  0.1952  0.0946
  466loPI   C4A 7450   9.116   6.981   7.915  0.0494 -0.1303 -0.6618
  466loPI   C5A 7451   8.983   6.708   7.772 -0.0479  0.1095  0.3574
  466loPI   C6A 7452   8.642   6.446   7.660  0.0070 -0.0735 -0.2674
  466loPI   C1B 7453   9.598   6.985   8.900 -0.0572  0.0915 -0.1215
  466loPI   C2B 7454   9.593   6.898   8.464 -0.0098 -0.1609 -0.1501
  466loPI   C3B 7455   9.655   6.951   8.010  0.3775  0.0371  0.0294
  466loPI   C4B 7456   9.522   7.094   7.582  0.2172 -0.4757  0.1566
  467loPI    C1 7457   7.387   6.361  10.336 -0.0472 -0.3352  0.0669
  467loPI    C2 7458   7.041   6.527  10.449  0.2086  0.1928  0.1064
  467loPI    C3 7459   7.265   6.329  10.715 -0.0639 -0.1675  0.0763
  467loPI   PO4 7460   7.346   6.233  10.058 -0.0291 -0.0538  0.0067
  467loPI   GL1 7461   7.133   6.027   9.802  0.4821  0.0099 -0.3319
  467loPI   GL2 7462   7.079   5.713   9.969  0.2411  0.0315  0.0313
  467loPI   C1A 7463   7.057   6.014   9.406 -0.1175 -0.1590  0.1794
  467loPI   C2A 7464   6.954   5.873   8.970  0.1021  0.0500 -0.0917
  467loPI   C3A 7465   7.101   5.881   8.532  0.1591  0.1879 -0.0015
  467loPI   C4A 7466   7.036   5.649   8.152  0.2782 -0.1857 -0.2034
  467loPI   C5A 7467   7.174   5.755   7.747 -0.1702  0.1607  0.0086
  467loPI   C6A 7468   7.268   5.542   7.247 -0.0913  0.1400  0.2348
  467loPI   C1B 7469   6.914   5.413   9.588  0.1457  0.0266  0.2033
  467loPI   C2B 7470   6.754   5.511   9.226  0.3071 -0.2278  0.1409
  467loPI   C3B 7471   6.694   5.521   8.791 -0.1895 -0.2023  0.2565
  467loPI   C4B 7472   6.764   5.284   8.342 -0.0500 -0.0709 -0.2622
  468loPI    C1 7473  11.956  13.172  10.126 -0.0393 -0.0684  0.1197
  468loPI    C2 7474  12.318  13.016  10.061  0.0945  0.3020 -0.0546
  468loPI    C3 7475  12.223  13.157  10.423  0.0637  0.0556  0.0348
  468loPI   PO4 7476  11.862  13.299   9.893 -0.1076  0.0818  0.3519
  468loPI   GL1 7477  11.582  13.217   9.474  0.3931  0.3286 -0.0607
  468loPI   GL2 7478  11.593  13.539   9.389 -0.3203 -0.1551 -0.1509
  468loPI   C1A 7479  11.658  13.105   8.997  0.0070  0.3949  0.1273
  468loPI   C2A 7480  11.620  12.947   8.619 -0.0784  0.0897 -0.0954
  468loPI   C3A 7481  11.690  12.977   8.334 -0.0169  0.0222  0.1685
  468loPI   C4A 7482  11.718  12.915   7.822  0.1133  0.2114  0.0347
  468loPI   C5A 7483  11.904  12.812   7.473  0.0037 -0.2541  0.1498
  468loPI   C6A 7484  12.320  12.891   7.384  0.0081  0.3558  0.1288
  468loPI   C1B 7485  11.598  13.624   8.995  0.0219 -0.2094 -0.0072
  468loPI   C2B 7486  11.651  13.573   8.562 -0.1130 -0.0898  0.1400
  468loPI   C3B 7487  11.459  13.386   8.208  0.0559 -0.0363  0.1899
  468loPI   C4B 7488  11.293  13.274   7.873 -0.1804  0.1380 -0.1050
  469loPI    C1 7489  18.417   7.752  10.706  0.0474 -0.0313  0.1664
  469loPI    C2 7490  18.560   8.117  10.785 -0.2558  0.1221  0.0204
  469loPI    C3 7491  18.315   7.937  11.045 -0.0636 -0.0027  0.1176
  469loPI   PO4 7492  18.271   7.695  10.403 -0.0559  0.0889  0.1755
  469loPI   GL1 7493  18.438   7.442   9.967  0.1004 -0.1170 -0.0093
  469loPI   GL2 7494  18.465   7.759   9.908 -0.1414  0.3089 -0.1581
  469loPI   C1A 7495  18.379   7.286   9.607 -0.1797 -0.0303  0.1876
  469loPI   C2A 7496  18.438   7.328   9.151  0.1562 -0.1050 -0.0963
  469loPI   C3A 7497  18.527   7.353   8.813 -0.3923  0.3570  0.1309
  469loPI   C4A 7498  18.522   7.280   8.305  0.0996  0.0901  0.3366
  469loPI   C5A 7499  18.282   7.210   7.963 -0.1629  0.4086 -0.1763
  469loPI   C6A 7500  18.074   7.528   7.648  0.1178 -0.0986  0.0039
  469loPI   C1B 7501  18.582   7.722   9.472  0.0356 -0.1161 -0.0566
  469loPI   C2B 7502  18.585   7.774   9.024  0.1167  0.1658 -0.1610
  469loPI   C3B 7503  18.773   7.805   8.649 -0.0572 -0.4484 -0.4127
  469loPI   C4B 7504  18.779   7.750   8.168 -0.0902  0.1238 -0.4295
  470loPI    C1 7505  16.928   4.459  10.830  0.2981  0.0584 -0.0618
  470loPI    C2 7506  16.871   4.338  11.207  0.3971  0.0062 -0.0631
  470loPI    C3 7507  16.990   4.713  11.133  0.3318  0.0306 -0.0453
  470loPI   PO4 7508  17.029   4.255  10.735  0.0082 -0.2170  0.3045
  470loPI   GL1 7509  17.194   4.077  10.359  0.0093  0.2586  0.3277
  470loPI   GL2 7510  16.801   4.025  10.348 -0.0157  0.3267  0.0747
  470loPI   C1A 7511  17.315   4.067   9.952  0.0133 -0.0827  0.0271
  470loPI   C2A 7512  17.265   4.113   9.502  0.0498 -0.0059 -0.0169
  470loPI   C3A 7513  17.306   4.259   9.182  0.0073  0.3023  0.0508
  470loPI   C4A 7514  17.355   4.064   8.738 -0.0219  0.2389  0.0270
  470loPI   C5A 7515  17.338   3.978   8.265 -0.0058 -0.0199  0.2706
  470loPI   C6A 7516  17.097   4.109   7.942 -0.1393 -0.2838  0.0477
  470loPI   C1B 7517  16.822   4.051   9.865  0.1911  0.2703 -0.2416
  470loPI   C2B 7518  16.735   4.085   9.430 -0.3646  0.2355  0.1027
  470loPI   C3B 7519  16.838   4.161   8.972 -0.1980 -0.2610 -0.2763
  470loPI   C4B 7520  16.926   3.986   8.536  0.0202 -0.2970  0.0049
  471loPI    C1 7521  16.972   5.298  10.595 -0.0749  0.3562 -0.0854
  471loPI    C2 7522  17.281   5.458  10.792  0.1400  0.0768 -0.1885
  471loPI    C3 7523  17.066   5.166  10.961  0.0533  0.1364 -0.1954
  471loPI   PO4 7524  17.096   5.146  10.393 -0.1364 -0.3099  0.0068
  471loPI   GL1 7525  17.282   5.064   9.954  0.0171 -0.0043 -0.3536
  471loPI   GL2 7526  17.409   5.402   9.930  0.0787  0.2691  0.1166
  471loPI   C1A 7527  17.156   4.970   9.599  0.2634 -0.0739  0.1858
  471loPI   C2A 7528  17.260   5.099   9.148  0.0140 -0.1556 -0.1760
  471loPI   C3A 7529  17.367   5.039   8.722 -0.1012  0.0315  0.1423
  471loPI   C4A 7530  17.450   4.896   8.266  0.0510 -0.0122 -0.2779
  471loPI   C5A 7531  17.357   4.997   7.815  0.3672  0.0149 -0.0566
  471loPI   C6A 7532  17.306   5.168   7.460  0.2137  0.2118 -0.0993
  471loPI   C1B 7533  17.543   5.311   9.551 -0.0368  0.0634 -0.0185
  471loPI   C2B 7534  17.574   5.419   9.109  0.1468 -0.0972 -0.3066
  471loPI   C3B 7535  17.676   5.473   8.774 -0.0626 -0.0759 -0.0687
  471loPI   C4B 7536  17.578   5.433   8.427  0.2749  0.0366  0.0307
  472loPI    C1 7537  16.627   8.201  10.757 -0.0729 -0.0633 -0.0190
  472loPI    C2 7538  16.647   8.438  11.079  0.0668 -0.1914  0.0680
  472loPI    C3 7539  16.312   8.233  11.002 -0.0258 -0.0306  0.0379
  472loPI   PO4 7540  16.744   8.290  10.561  0.2807  0.1335  0.0319
  472loPI   GL1 7541  16.694   8.357  10.212  0.1339  0.0137 -0.2269
  472loPI   GL2 7542  16.590   8.627  10.100  0.1992 -0.1414 -0.0802
  472loPI   C1A 7543  16.818   8.140   9.890 -0.0786 -0.3515 -0.2273
  472loPI   C2A 7544  16.803   8.210   9.513 -0.1564  0.0907 -0.3207
  472loPI   C3A 7545  16.840   8.268   9.136 -0.0437 -0.2153  0.0536
  472loPI   C4A 7546  16.801   8.198   8.621  0.0117 -0.1859 -0.2261
  472loPI   C5A 7547  16.723   8.202   8.214  0.0288  0.1630  0.1774
  472loPI   C6A 7548  16.954   8.348   7.844 -0.0794  0.1133  0.1116
  472loPI   C1B 7549  16.495   8.697   9.678 -0.4395  0.0195  0.2829
  472loPI   C2B 7550  16.457   8.700   9.178  0.3907 -0.0590 -0.3310
  472loPI   C3B 7551  16.523   8.669   8.832 -0.0566 -0.1813 -0.0584
  472loPI   C4B 7552  16.512   8.870   8.441  0.0264 -0.2366 -0.2477
  473loPI    C1 7553   3.700   0.622  10.385 -0.2269 -0.3120  0.0312
  473loPI    C2 7554   3.324   0.527  10.481 -0.2545 -0.0259  0.2180
  473loPI    C3 7555   3.593   0.592  10.769 -0.0618 -0.2225  0.0850
  473loPI   PO4 7556   3.711   0.849  10.155  0.2150 -0.1185 -0.0941
  473loPI   GL1 7557   3.614   0.873   9.806 -0.3045  0.0416  0.2918
  473loPI   GL2 7558   3.647   1.132   9.554  0.0271  0.0916 -0.2705
  473loPI   C1A 7559   3.344   0.759   9.527  0.2937  0.0483  0.2131
  473loPI   C2A 7560   3.153   0.776   9.151 -0.2348 -0.0813 -0.0445
  473loPI   C3A 7561   3.343   0.680   8.817  0.1688 -0.2733 -0.2269
  473loPI   C4A 7562   3.365   0.598   8.339  0.1495 -0.3093 -0.1869
  473loPI   C5A 7563   3.298   0.674   7.860  0.0972  0.0268  0.0592
  473loPI   C6A 7564   3.264   0.736   7.418  0.1834 -0.1072 -0.0653
  473loPI   C1B 7565   3.521   1.211   9.101  0.2318  0.1022  0.2621
  473loPI   C2B 7566   3.485   1.179   8.669  0.0569 -0.0497 -0.1711
  473loPI   C3B 7567   3.510   1.181   8.252 -0.0675  0.0815  0.0868
  473loPI   C4B 7568   3.458   1.183   7.787 -0.2887 -0.3756 -0.1481
  474loPI    C1 7569   9.678  14.135   9.920 -0.2979 -0.0536  0.0306
  474loPI    C2 7570   9.534  14.095  10.291 -0.2525  0.0375  0.0583
  474loPI    C3 7571   9.897  14.252  10.234 -0.1798 -0.1541 -0.0136
  474loPI   PO4 7572   9.567  13.902   9.772  0.2935  0.1796 -0.2157
  474loPI   GL1 7573   9.238  13.898   9.479  0.0001 -0.1501 -0.3885
  474loPI   GL2 7574   9.095  13.692   9.281 -0.2046  0.3963  0.0711
  474loPI   C1A 7575   9.075  14.128   9.018  0.2160  0.2894  0.2631
  474loPI   C2A 7576   8.971  14.233   8.611 -0.2363  0.0762  0.0051
  474loPI   C3A 7577   8.910  14.177   8.149  0.2174  0.0306 -0.2778
  474loPI   C4A 7578   9.084  14.174   7.752  0.2230 -0.0886  0.0520
  474loPI   C5A 7579   8.879  14.376   7.407  0.2084  0.0043 -0.1164
  474loPI   C6A 7580   8.870  14.893   7.470 -0.1522  0.1815 -0.0707
  474loPI   C1B 7581   8.892  13.612   8.804  0.1726  0.1346  0.0496
  474loPI   C2B 7582   8.740  13.582   8.405 -0.0620 -0.0085  0.0796
  474loPI   C3B 7583   8.760  13.510   7.959  0.3991 -0.0589  0.1560
  474loPI   C4B 7584   9.085  13.399   7.621  0.0097  0.1157 -0.3278
  475loPI    C1 7585   8.006  10.812   9.651  0.0390  0.1153 -0.0966
  475loPI    C2 7586   7.822  11.149   9.765 -0.2110 -0.0287 -0.0683
  475loPI    C3 7587   7.729  10.801   9.939 -0.0615 -0.1364 -0.2007
  475loPI   PO4 7588   8.169  10.892   9.425  0.1051  0.4087 -0.1647
  475loPI   GL1 7589   8.099  11.075   9.037 -0.1899  0.1287 -0.0401
  475loPI   GL2 7590   7.704  11.047   9.285 -0.2424 -0.3510 -0.1829
  475loPI   C1A 7591   8.038  11.053   8.622 -0.3570 -0.0503 -0.1336
  475loPI   C2A 7592   8.046  11.001   8.169 -0.2461 -0.0354  0.5678
  475loPI   C3A 7593   8.279  10.945   7.845  0.2552 -0.1575  0.2026
  475loPI   C4A 7594   8.459  11.161   7.552  0.0839 -0.1381 -0.1962
  475loPI   C5A 7595   8.559  11.339   7.222 -0.2214  0.3511 -0.0739
  475loPI   C6A 7596   8.956  11.289   7.227 -0.1471  0.0239 -0.0982
  475loPI   C1B 7597   7.572  10.965   8.854 -0.1159  0.1873 -0.1050
  475loPI   C2B 7598   7.606  10.857   8.323 -0.1171 -0.4597 -0.0470
  475loPI   C3B 7599   7.633  10.583   7.959  0.2147 -0.4445  0.0408
  475loPI   C4B 7600   7.546  10.549   7.559 -0.2532 -0.1621 -0.1715
  476loPI    C1 7601   5.813   3.101  10.401  0.0203  0.0929  0.0357
  476loPI    C2 7602   6.000   2.798  10.584 -0.0531  0.0400  0.0238
  476loPI    C3 7603   5.712   3.000  10.775  0.0150  0.1207  0.0419
  476loPI   PO4 7604   5.992   3.209  10.243  0.2420 -0.2613 -0.0540
  476loPI   GL1 7605   5.837   3.398   9.917  0.0450 -0.0552 -0.1880
  476loPI   GL2 7606   6.019   3.227   9.751 -0.1363 -0.3157 -0.0381
  476loPI   C1A 7607   5.749   3.572   9.550 -0.2077  0.0309 -0.0662
  476loPI   C2A 7608   5.820   3.514   9.179  0.2654  0.0231  0.3418
  476loPI   C3A 7609   5.840   3.527   8.731 -0.1730  0.0869 -0.1961
  476loPI   C4A 7610   5.821   3.527   8.330  0.0866  0.3824  0.0088
  476loPI   C5A 7611   5.760   3.474   7.913  0.0723 -0.1141 -0.3833
  476loPI   C6A 7612   5.857   3.558   7.563  0.2234  0.0798 -0.1323
  476loPI   C1B 7613   6.081   3.145   9.383  0.0766  0.0470 -0.1162
  476loPI   C2B 7614   6.153   3.000   9.026 -0.2320 -0.0873 -0.1889
  476loPI   C3B 7615   6.092   3.088   8.642 -0.0487  0.0061  0.2579
  476loPI   C4B 7616   5.986   3.091   8.221  0.2010 -0.1401 -0.2139
  477loPI    C1 7617   1.215  13.877  10.485 -0.0510 -0.1203 -0.1315
  477loPI    C2 7618   1.492  13.939  10.767  0.0639 -0.1851 -0.2294
  477loPI    C3 7619   1.231  13.638  10.806 -0.0531 -0.0675 -0.0920
  477loPI   PO4 7620   1.189  14.090  10.236  0.1321 -0.3115  0.2484
  477loPI   GL1 7621   1.221  14.271   9.825  0.1392 -0.0067 -0.1592
  477loPI   GL2 7622   1.363  14.074   9.723  0.0347  0.2229 -0.0353
  477loPI   C1A 7623   1.092  14.398   9.432  0.0471  0.2719  0.2135
  477loPI   C2A 7624   1.071  14.365   8.990 -0.1617 -0.0844  0.1773
  477loPI   C3A 7625   1.010  14.334   8.623  0.3105 -0.0008  0.0510
  477loPI   C4A 7626   1.032  14.437   8.238 -0.0778  0.0036  0.2343
  477loPI   C5A 7627   1.002  14.381   7.716  0.2383 -0.2258 -0.0136
  477loPI   C6A 7628   1.293  14.068   7.513  0.0509 -0.0016 -0.1550
  477loPI   C1B 7629   1.322  13.971   9.267 -0.1592 -0.1924  0.1230
  477loPI   C2B 7630   1.363  13.937   8.817 -0.0504  0.0532  0.1674
  477loPI   C3B 7631   1.216  13.911   8.428 -0.2682 -0.0088 -0.1015
  477loPI   C4B 7632   1.357  13.926   7.979 -0.4819 -0.4176  0.0374
  478loPI    C1 7633  15.821  12.594  10.796  0.2517  0.0025 -0.0002
  478loPI    C2 7634  15.836  12.532  11.191 -0.1046  0.2721  0.0606
  478loPI    C3 7635  15.932  12.890  11.040 -0.0202  0.1855 -0.0939
  478loPI   PO4 7636  15.783  12.393  10.581 -0.1889  0.2445 -0.3277
  478loPI   GL1 7637  15.784  12.311  10.100  0.2947 -0.2768  0.2079
  478loPI   GL2 7638  16.074  12.107   9.934  0.2154  0.3198 -0.0191
  478loPI   C1A 7639  15.802  12.344   9.571 -0.1713 -0.0042 -0.2533
  478loPI   C2A 7640  15.854  12.352   9.159  0.0072  0.1890  0.0467
  478loPI   C3A 7641  15.872  12.357   8.742 -0.0945 -0.1285 -0.1976
  478loPI   C4A 7642  15.899  12.660   8.298  0.0076 -0.1718 -0.1816
  478loPI   C5A 7643  15.395  12.657   8.044 -0.1816 -0.1371  0.1950
  478loPI   C6A 7644  15.107  12.943   8.118 -0.1933  0.0335  0.2736
  478loPI   C1B 7645  16.171  11.861   9.643  0.4246 -0.1355 -0.1415
  478loPI   C2B 7646  16.143  11.830   9.274  0.0423  0.1569 -0.1355
  478loPI   C3B 7647  16.109  11.906   8.852 -0.3086  0.0694  0.0362
  478loPI   C4B 7648  16.148  12.091   8.421  0.2084  0.0630 -0.0235
  479loPI    C1 7649   0.061   6.973  10.657  0.1773  0.1024 -0.0840
  479loPI    C2 7650  -0.006   6.785  11.003 -0.0978  0.0609 -0.1580
  479loPI    C3 7651  -0.119   7.165  10.957  0.2759  0.1860 -0.0775
  479loPI   PO4 7652   0.010   6.860  10.503  0.1540 -0.3430 -0.2152
  479loPI   GL1 7653   0.026   7.017  10.155  0.0322  0.2423  0.1409
  479loPI   GL2 7654   0.353   6.854  10.098  0.2702 -0.1491 -0.1034
  479loPI   C1A 7655  -0.241   6.987   9.852  0.3803  0.1534  0.3684
  479loPI   C2A 7656  -0.345   6.795   9.464  0.0593  0.2886  0.0166
  479loPI   C3A 7657  -0.310   6.845   9.150 -0.2266  0.3982 -0.1489
  479loPI   C4A 7658  -0.138   6.898   8.754 -0.4678 -0.0064  0.2074
  479loPI   C5A 7659  -0.075   6.827   8.215 -0.2078 -0.1814 -0.2528
  479loPI   C6A 7660  -0.239   6.811   7.741 -0.0345 -0.0384 -0.1803
  479loPI   C1B 7661   0.241   6.813   9.695 -0.0548 -0.0585 -0.0824
  479loPI   C2B 7662   0.396   6.925   9.364  0.4398  0.1821 -0.0053
  479loPI   C3B 7663   0.426   6.944   8.959  0.0210  0.1864  0.2154
  479loPI   C4B 7664   0.470   6.885   8.568  0.3063 -0.1521  0.1893
  480loPI    C1 7665  13.335   4.661  10.500 -0.1520 -0.2225  0.1625
  480loPI    C2 7666  13.565   4.383  10.327 -0.2661 -0.2631  0.0749
  480loPI    C3 7667  13.644   4.505  10.700  0.0738 -0.0650 -0.0571
  480loPI   PO4 7668  13.269   4.856  10.339 -0.3535  0.0984  0.0227
  480loPI   GL1 7669  13.313   4.872   9.953 -0.3264  0.2167  0.0999
  480loPI   GL2 7670  13.479   4.932   9.665 -0.1298  0.0976  0.0027
  480loPI   C1A 7671  13.128   4.650   9.563 -0.0161  0.0565 -0.3469
  480loPI   C2A 7672  13.057   4.766   9.123  0.1161  0.0206 -0.0830
  480loPI   C3A 7673  13.041   4.671   8.768  0.0661 -0.1576 -0.0480
  480loPI   C4A 7674  12.977   4.737   8.340  0.1635  0.2539 -0.2386
  480loPI   C5A 7675  13.044   4.846   7.983 -0.0776 -0.3605 -0.1534
  480loPI   C6A 7676  12.782   4.771   7.626  0.1946 -0.2196  0.0343
  480loPI   C1B 7677  13.561   4.755   9.219  0.1678  0.1792 -0.4285
  480loPI   C2B 7678  13.628   4.754   8.814 -0.1333 -0.1595  0.1881
  480loPI   C3B 7679  13.435   4.776   8.452  0.5827  0.0343  0.3388
  480loPI   C4B 7680  13.546   4.818   8.030 -0.4260 -0.1570 -0.1061
  481loPI    C1 7681  10.747  16.741   9.964  0.1592  0.1291 -0.0673
  481loPI    C2 7682  10.616  16.677  10.337 -0.2366  0.2679 -0.1773
  481loPI    C3 7683  10.629  16.375  10.075 -0.1879  0.2211 -0.1213
  481loPI   PO4 7684  10.928  16.981   9.924 -0.2059  0.2896  0.5259
  481loPI   GL1 7685  11.114  17.359   9.796 -0.0586  0.1077 -0.0002
  481loPI   GL2 7686  11.268  17.117   9.638  0.0140  0.0214  0.4180
  481loPI   C1A 7687  10.953  17.513   9.468 -0.0945 -0.1873  0.0537
  481loPI   C2A 7688  11.076  17.525   9.054 -0.0502  0.3155  0.0508
  481loPI   C3A 7689  10.973  17.568   8.582  0.0619 -0.1031  0.0040
  481loPI   C4A 7690  10.848  17.625   8.185 -0.2211  0.0748  0.0397
  481loPI   C5A 7691  10.625  17.663   7.786 -0.1935 -0.0313 -0.0964
  481loPI   C6A 7692  10.349  17.889   7.380 -0.2367 -0.0264  0.1691
  481loPI   C1B 7693  11.182  17.062   9.214 -0.0510 -0.3065  0.2263
  481loPI   C2B 7694  11.189  17.082   8.771 -0.2152  0.0696 -0.1566
  481loPI   C3B 7695  11.190  17.073   8.397 -0.2191  0.0714  0.1203
  481loPI   C4B 7696  11.108  17.209   7.969  0.2126  0.1663 -0.2850
  482loPI    C1 7697  18.031  14.397  10.542  0.2086 -0.2326 -0.0893
  482loPI    C2 7698  18.217  14.630  10.808 -0.2613 -0.0133  0.0589
  482loPI    C3 7699  18.107  14.260  10.909 -0.1142 -0.0617  0.0454
  482loPI   PO4 7700  18.054  14.500  10.316  0.1357 -0.4546  0.4355
  482loPI   GL1 7701  17.719  14.663   9.929 -0.0817 -0.2131  0.1750
  482loPI   GL2 7702  17.865  14.348   9.911  0.3955  0.1565  0.0573
  482loPI   C1A 7703  17.624  14.602   9.455  0.1600  0.2275 -0.0637
  482loPI   C2A 7704  17.599  14.635   9.104  0.3071  0.3173 -0.1381
  482loPI   C3A 7705  17.647  14.713   8.676 -0.4079  0.2440  0.2124
  482loPI   C4A 7706  17.618  14.632   8.234 -0.4402 -0.3214  0.1208
  482loPI   C5A 7707  17.713  14.670   7.821  0.1390  0.1873  0.0545
  482loPI   C6A 7708  17.805  14.457   7.455  0.4468 -0.0551  0.0636
  482loPI   C1B 7709  17.854  14.181   9.547 -0.3011  0.0178  0.1204
  482loPI   C2B 7710  17.869  14.204   9.208 -0.0420 -0.1049 -0.4402
  482loPI   C3B 7711  17.880  14.178   8.754  0.2000  0.0371  0.4572
  482loPI   C4B 7712  17.768  14.181   8.324 -0.2637  0.3787 -0.2873
  483loPI    C1 7713   9.358  16.907   9.740  0.0387 -0.1355  0.0050
  483loPI    C2 7714   9.252  16.587   9.956  0.1977 -0.1259  0.0988
  483loPI    C3 7715   9.386  16.916  10.139 -0.1418  0.0633  0.0149
  483loPI   PO4 7716   9.327  16.821   9.514  0.1520  0.1976  0.0305
  483loPI   GL1 7717   9.437  16.587   9.204 -0.1965 -0.0504  0.0776
  483loPI   GL2 7718   9.532  16.808   9.046 -0.2068  0.0249 -0.1223
  483loPI   C1A 7719   9.111  16.693   8.874 -0.0721  0.0631  0.1564
  483loPI   C2A 7720   9.179  16.904   8.473  0.2389  0.0551 -0.1848
  483loPI   C3A 7721   9.207  17.126   8.096 -0.2730  0.2283 -0.0951
  483loPI   C4A 7722   9.045  17.188   7.769 -0.3785 -0.1733 -0.2648
  483loPI   C5A 7723   9.071  17.326   7.311  0.1604 -0.2096  0.0863
  483loPI   C6A 7724   8.730  17.541   6.953  0.0304 -0.0113  0.1513
  483loPI   C1B 7725   9.506  17.121   8.839 -0.0148 -0.0199  0.2707
  483loPI   C2B 7726   9.542  17.325   8.467  0.1362 -0.0748  0.0165
  483loPI   C3B 7727   9.408  17.588   8.059 -0.0923  0.0265  0.1022
  483loPI   C4B 7728   9.259  17.680   7.592 -0.1333  0.0607 -0.4949
  484loPI    C1 7729   4.940  14.531   9.769 -0.0046 -0.0289 -0.1019
  484loPI    C2 7730   4.729  14.832   9.927 -0.0083 -0.0266 -0.1109
  484loPI    C3 7731   5.036  14.910   9.683  0.0930 -0.0265  0.0156
  484loPI   PO4 7732   4.780  14.387   9.601  0.1658  0.1133 -0.1778
  484loPI   GL1 7733   4.898  14.200   9.211 -0.1124 -0.0210 -0.0637
  484loPI   GL2 7734   5.140  14.089   9.333  0.1976 -0.1432  0.1151
  484loPI   C1A 7735   4.771  14.526   8.993  0.0324  0.1983 -0.0267
  484loPI   C2A 7736   4.721  14.485   8.624  0.0250 -0.0239  0.0859
  484loPI   C3A 7737   4.814  14.476   8.063  0.2141  0.0013  0.0328
  484loPI   C4A 7738   4.562  14.561   7.668 -0.0301  0.1275  0.1941
  484loPI   C5A 7739   4.240  14.834   7.457  0.0486  0.1895  0.3745
  484loPI   C6A 7740   3.763  14.854   7.418  0.0623 -0.1245  0.1127
  484loPI   C1B 7741   5.077  14.047   8.790  0.3062  0.1489  0.1776
  484loPI   C2B 7742   5.057  14.019   8.325 -0.0036 -0.1102  0.0051
  484loPI   C3B 7743   5.002  14.046   7.994 -0.3347 -0.2223  0.1667
  484loPI   C4B 7744   4.841  14.126   7.651  0.1109  0.1144 -0.1487
  485loPI    C1 7745   6.563  15.356   9.967  0.0435 -0.2300  0.1491
  485loPI    C2 7746   6.204  15.250   9.826  0.0122  0.0225  0.0344
  485loPI    C3 7747   6.393  15.014  10.088 -0.1823 -0.1714  0.0031
  485loPI   PO4 7748   6.545  15.632   9.844  0.2303  0.1178 -0.1184
  485loPI   GL1 7749   6.486  15.617   9.418 -0.1726  0.2321  0.1078
  485loPI   GL2 7750   6.788  15.562   9.211 -0.2740 -0.1028  0.1642
  485loPI   C1A 7751   6.215  15.623   9.104 -0.2925  0.0151  0.1084
  485loPI   C2A 7752   6.084  15.665   8.693 -0.2783 -0.0662 -0.2176
  485loPI   C3A 7753   6.151  15.714   8.294  0.2129  0.4050  0.1180
  485loPI   C4A 7754   6.089  15.935   7.858  0.0740 -0.1697  0.2365
  485loPI   C5A 7755   6.089  16.149   7.502  0.2066 -0.0212 -0.0639
  485loPI   C6A 7756   5.899  15.989   7.128 -0.1065 -0.0642  0.0713
  485loPI   C1B 7757   6.574  15.862   8.952  0.3279  0.1665  0.5259
  485loPI   C2B 7758   6.624  15.831   8.497  0.1426 -0.0292 -0.1279
  485loPI   C3B 7759   6.670  15.846   8.118  0.2149 -0.4349 -0.1720
  485loPI   C4B 7760   6.580  15.910   7.754 -0.4004 -0.3280  0.1910
  486loPI    C1 7761   5.725   4.876  10.349 -0.0455 -0.0912  0.1345
  486loPI    C2 7762   5.366   4.947  10.510 -0.0513 -0.0330  0.0964
  486loPI    C3 7763   5.694   5.104  10.676 -0.0455 -0.0680  0.1183
  486loPI   PO4 7764   5.765   4.624  10.301 -0.1934 -0.1079 -0.1328
  486loPI   GL1 7765   5.878   4.302   9.915  0.2262 -0.0870  0.0889
  486loPI   GL2 7766   5.696   4.393   9.845 -0.0190  0.1631  0.1826
  486loPI   C1A 7767   6.226   4.422   9.589 -0.0186  0.1739 -0.1030
  486loPI   C2A 7768   6.295   4.438   9.208 -0.1582  0.0846 -0.1664
  486loPI   C3A 7769   6.321   4.504   8.805  0.2020 -0.0627  0.3321
  486loPI   C4A 7770   6.314   4.378   8.370 -0.1651 -0.0980  0.0747
  486loPI   C5A 7771   6.264   4.417   7.884  0.1707  0.0891  0.3098
  486loPI   C6A 7772   6.597   4.231   7.622  0.2195 -0.1597 -0.1855
  486loPI   C1B 7773   5.817   4.452   9.356 -0.1731 -0.0047 -0.0720
  486loPI   C2B 7774   5.766   4.362   8.982 -0.0741 -0.0183 -0.3767
  486loPI   C3B 7775   5.821   4.378   8.588  0.3866  0.4207 -0.3676
  486loPI   C4B 7776   5.750   4.398   8.169  0.2290  0.1449  0.0451
  487loPI    C1 7777   5.663  13.556  10.156  0.1833 -0.0705 -0.1137
  487loPI    C2 7778   5.579  13.812  10.452  0.2606  0.0654 -0.2084
  487loPI    C3 7779   5.478  13.426  10.486  0.0486  0.1286 -0.1091
  487loPI   PO4 7780   5.555  13.659   9.948  0.1567  0.0604  0.1228
  487loPI   GL1 7781   5.508  13.686   9.480  0.1174  0.0219  0.2926
  487loPI   GL2 7782   5.874  13.667   9.379 -0.3264  0.1014 -0.0848
  487loPI   C1A 7783   5.396  13.599   9.043 -0.0107  0.1936 -0.0215
  487loPI   C2A 7784   5.350  13.492   8.565  0.1746  0.0543  0.0236
  487loPI   C3A 7785   5.333  13.583   8.141 -0.1639 -0.1328  0.0195
  487loPI   C4A 7786   5.144  13.660   7.728 -0.0510  0.0583  0.2594
  487loPI   C5A 7787   5.368  13.818   7.350  0.1885 -0.1756 -0.1876
  487loPI   C6A 7788   5.669  13.870   7.174 -0.3389 -0.1091 -0.0754
  487loPI   C1B 7789   5.986  13.567   9.024 -0.1005 -0.2069 -0.1183
  487loPI   C2B 7790   5.916  13.533   8.625  0.1490 -0.3130 -0.1805
  487loPI   C3B 7791   5.867  13.524   8.135 -0.1362 -0.2089 -0.2614
  487loPI   C4B 7792   5.721  13.641   7.722 -0.2013  0.3170 -0.0124
  488loPI    C1 7793  17.042   3.260  11.066 -0.0580 -0.1419 -0.1326
  488loPI    C2 7794  16.706   3.145  11.250 -0.0705 -0.2336 -0.2122
  488loPI    C3 7795  16.701   3.459  11.002 -0.0229 -0.0199  0.0528
  488loPI   PO4 7796  17.123   2.985  10.985 -0.0335 -0.0864 -0.0376
  488loPI   GL1 7797  17.151   3.073  10.520  0.1482 -0.1272  0.1566
  488loPI   GL2 7798  17.344   2.874  10.398  0.1012 -0.1214 -0.1588
  488loPI   C1A 7799  16.830   3.179  10.108 -0.1458  0.3127  0.1721
  488loPI   C2A 7800  16.843   3.006   9.717  0.3090 -0.0182 -0.0422
  488loPI   C3A 7801  16.751   3.190   9.374  0.3122  0.4584 -0.1489
  488loPI   C4A 7802  16.810   3.143   8.876  0.4070  0.1140 -0.2532
  488loPI   C5A 7803  16.914   3.105   8.491  0.0863 -0.0216  0.0854
  488loPI   C6A 7804  16.951   3.033   8.044 -0.0302  0.2941  0.3786
  488loPI   C1B 7805  17.311   3.203  10.062 -0.2169  0.1999 -0.0727
  488loPI   C2B 7806  17.354   3.224   9.671  0.1337  0.1032 -0.0299
  488loPI   C3B 7807  17.351   3.265   9.262  0.0928 -0.4038  0.2921
  488loPI   C4B 7808  17.332   3.164   8.842 -0.0684  0.1024  0.2747
  489loPI    C1 7809   9.940  17.514   9.974  0.0729  0.0381  0.0308
  489loPI    C2 7810   9.618  17.308   9.857  0.0296  0.1492 -0.0466
  489loPI    C3 7811   9.695  17.355  10.247  0.0160  0.0238 -0.0285
  489loPI   PO4 7812  10.111  17.461   9.757  0.1274  0.2065  0.3698
  489loPI   GL1 7813  10.308  17.394   9.442  0.1545 -0.0217  0.2394
  489loPI   GL2 7814  10.575  17.229   9.596 -0.1695 -0.0871  0.4628
  489loPI   C1A 7815  10.190  17.449   9.067  0.1429 -0.1623 -0.0829
  489loPI   C2A 7816  10.000  17.549   8.679  0.1128 -0.0062 -0.0429
  489loPI   C3A 7817   9.884  17.634   8.240  0.2804 -0.2438  0.0344
  489loPI   C4A 7818   9.759  17.666   7.713 -0.0150 -0.3180  0.3863
  489loPI   C5A 7819   9.832  17.843   7.339 -0.3737 -0.2627 -0.0071
  489loPI   C6A 7820  10.051  17.954   6.998  0.0320  0.1377 -0.4192
  489loPI   C1B 7821  10.665  17.258   9.054  0.1114  0.0267  0.1797
  489loPI   C2B 7822  10.498  17.481   8.686 -0.2209  0.2912 -0.0129
  489loPI   C3B 7823  10.376  17.484   8.249  0.1155 -0.2209  0.2748
  489loPI   C4B 7824  10.169  17.341   7.808 -0.1184  0.1142 -0.0891
  490loPI    C1 7825  15.069   4.421  10.595  0.0544 -0.0748  0.0029
  490loPI    C2 7826  15.289   4.437  10.929  0.1443 -0.0532 -0.0568
  490loPI    C3 7827  14.899   4.351  10.950  0.1596 -0.0987  0.0490
  490loPI   PO4 7828  15.232   4.437  10.401 -0.0907  0.2017 -0.1285
  490loPI   GL1 7829  15.296   4.603  10.000  0.1473  0.0475  0.0931
  490loPI   GL2 7830  15.097   4.785   9.860 -0.1875  0.0697  0.0416
  490loPI   C1A 7831  15.422   4.418   9.673 -0.0443  0.1754 -0.1381
  490loPI   C2A 7832  15.507   4.414   9.176 -0.1252  0.0738  0.2323
  490loPI   C3A 7833  15.482   4.530   8.792 -0.1280 -0.1791  0.2134
  490loPI   C4A 7834  15.511   4.439   8.280  0.0823  0.3831  0.0315
  490loPI   C5A 7835  15.863   4.649   8.133 -0.0252 -0.1348  0.1929
  490loPI   C6A 7836  15.994   4.969   7.945 -0.1384  0.1648  0.3633
  490loPI   C1B 7837  15.194   4.829   9.402  0.0734 -0.0410  0.1865
  490loPI   C2B 7838  15.177   4.877   8.949 -0.1819 -0.0612 -0.5115
  490loPI   C3B 7839  15.119   4.950   8.540  0.0170  0.1171  0.2806
  490loPI   C4B 7840  15.196   5.036   8.009  0.1541  0.0194  0.3446
  491loPI    C1 7841  14.022   1.916  10.444  0.2215 -0.1768  0.1867
  491loPI    C2 7842  14.022   2.159  10.127 -0.2334 -0.1955  0.1669
  491loPI    C3 7843  14.363   2.086  10.322  0.0090  0.0031 -0.1716
  491loPI   PO4 7844  13.828   1.670  10.343  0.0524 -0.2316  0.1454
  491loPI   GL1 7845  13.718   1.765   9.905  0.3430  0.1205  0.2617
  491loPI   GL2 7846  13.373   1.697   9.953  0.1872  0.0143  0.0343
  491loPI   C1A 7847  13.632   1.898   9.544 -0.0324  0.0438 -0.0364
  491loPI   C2A 7848  13.762   2.014   9.196 -0.2093  0.0328  0.0476
  491loPI   C3A 7849  13.655   1.978   8.712 -0.0051  0.2502  0.1633
  491loPI   C4A 7850  13.873   2.061   8.351  0.2430 -0.2067  0.4707
  491loPI   C5A 7851  13.865   1.954   7.937 -0.0189 -0.0121 -0.0011
  491loPI   C6A 7852  13.793   1.617   7.791  0.2679  0.1762  0.4241
  491loPI   C1B 7853  13.428   1.472   9.491  0.0029  0.3923 -0.1970
  491loPI   C2B 7854  13.441   1.609   9.115  0.1586  0.1142 -0.0219
  491loPI   C3B 7855  13.449   1.510   8.680  0.2912 -0.3959 -0.0390
  491loPI   C4B 7856  13.560   1.609   8.268  0.1122 -0.0103 -0.1949
  492loPI    C1 7857   3.101  16.517  10.408 -0.0838  0.1729 -0.0068
  492loPI    C2 7858   2.876  16.186  10.396  0.3017 -0.1020  0.1554
  492loPI    C3 7859   2.881  16.413  10.726  0.0017  0.0970  0.0277
  492loPI   PO4 7860   3.171  16.514  10.115 -0.1477 -0.4518 -0.0684
  492loPI   GL1 7861   3.264  16.704   9.609 -0.0237 -0.1550  0.0848
  492loPI   GL2 7862   3.154  17.034   9.504 -0.0953  0.0064 -0.1176
  492loPI   C1A 7863   3.372  16.626   9.259  0.3083  0.1971 -0.0465
  492loPI   C2A 7864   3.282  16.724   8.900  0.0700 -0.0716 -0.5093
  492loPI   C3A 7865   3.314  16.660   8.494  0.2472 -0.0660 -0.3364
  492loPI   C4A 7866   3.297  16.698   8.069  0.1351 -0.2609 -0.5226
  492loPI   C5A 7867   3.181  16.765   7.672 -0.0381  0.2250  0.1842
  492loPI   C6A 7868   3.194  16.394   7.381  0.3848 -0.1867  0.0510
  492loPI   C1B 7869   3.062  17.209   9.092 -0.3276  0.1227 -0.0072
  492loPI   C2B 7870   3.085  17.283   8.684  0.1576  0.2095 -0.0040
  492loPI   C3B 7871   3.124  17.126   8.273  0.3856  0.0760 -0.0973
  492loPI   C4B 7872   3.117  17.192   7.857 -0.0384 -0.1723  0.2510
  493loPI    C1 7873   0.948  10.108  10.773  0.0620 -0.1212  0.1815
  493loPI    C2 7874   0.601   9.919  10.833  0.1009 -0.1803  0.2222
  493loPI    C3 7875   0.698  10.236  11.057 -0.2095  0.2292 -0.2040
  493loPI   PO4 7876   1.009  10.141  10.482 -0.1277  0.1512 -0.1311
  493loPI   GL1 7877   1.075  10.278  10.032 -0.0875  0.0162  0.1889
  493loPI   GL2 7878   1.219  10.516   9.926 -0.0916  0.1514  0.1557
  493loPI   C1A 7879   0.927  10.178   9.582 -0.0446  0.4010 -0.0866
  493loPI   C2A 7880   1.045  10.146   9.166 -0.0294 -0.4924  0.1935
  493loPI   C3A 7881   0.956  10.143   8.745 -0.0344  0.3808  0.2323
  493loPI   C4A 7882   0.895  10.140   8.280  0.0510 -0.1437 -0.0834
  493loPI   C5A 7883   1.061  10.352   8.007  0.0869  0.1852  0.3047
  493loPI   C6A 7884   1.516  10.380   7.840  0.0710 -0.0396 -0.1077
  493loPI   C1B 7885   1.223  10.602   9.518 -0.0589 -0.4295 -0.1542
  493loPI   C2B 7886   1.261  10.777   9.164  0.2507  0.0973  0.2559
  493loPI   C3B 7887   1.216  10.712   8.737  0.2503 -0.1320 -0.2959
  493loPI   C4B 7888   1.120  10.731   8.370 -0.0363  0.1512  0.2612
  494loPI    C1 7889   8.782   2.775  10.485  0.2939  0.0233  0.0015
  494loPI    C2 7890   8.941   3.076  10.694  0.1800  0.0238  0.0885
  494loPI    C3 7891   8.927   2.709  10.851  0.4488 -0.0588 -0.0739
  494loPI   PO4 7892   8.812   2.901  10.260 -0.1436  0.2824 -0.1357
  494loPI   GL1 7893   8.618   2.740   9.880 -0.0251 -0.2557 -0.1985
  494loPI   GL2 7894   8.970   2.610   9.689 -0.1908  0.0807  0.3976
  494loPI   C1A 7895   8.506   2.624   9.427  0.0794  0.1177 -0.0889
  494loPI   C2A 7896   8.485   2.643   9.038 -0.0372  0.0949 -0.2374
  494loPI   C3A 7897   8.384   2.682   8.569  0.2012  0.3204 -0.1230
  494loPI   C4A 7898   8.555   2.742   8.196  0.0806 -0.0052  0.3269
  494loPI   C5A 7899   8.367   2.878   7.794 -0.1595  0.1620  0.0930
  494loPI   C6A 7900   7.913   2.704   7.636  0.7160  0.0376  0.3914
  494loPI   C1B 7901   9.054   2.763   9.221  0.1473  0.0318  0.0698
  494loPI   C2B 7902   8.903   2.714   8.828 -0.2682  0.0712  0.0977
  494loPI   C3B 7903   8.995   2.690   8.448 -0.0858 -0.1683 -0.1290
  494loPI   C4B 7904   9.025   2.848   7.924  0.2116  0.0596 -0.4138
  495loPI    C1 7905   5.415  12.854  10.393 -0.2347 -0.1608  0.0622
  495loPI    C2 7906   5.791  12.724  10.434 -0.1733 -0.0766 -0.2148
  495loPI    C3 7907   5.648  13.004  10.681 -0.1123 -0.2337  0.0018
  495loPI   PO4 7908   5.380  12.795  10.081 -0.5395  0.0637 -0.0768
  495loPI   GL1 7909   5.186  12.581   9.884 -0.0104  0.0197  0.0942
  495loPI   GL2 7910   5.125  12.322   9.851  0.0010 -0.4279 -0.2501
  495loPI   C1A 7911   5.076  12.747   9.515 -0.1110 -0.1047  0.0664
  495loPI   C2A 7912   4.896  12.645   9.186  0.1835  0.1299 -0.1460
  495loPI   C3A 7913   4.914  12.693   8.721  0.0734 -0.1019 -0.0557
  495loPI   C4A 7914   4.835  12.694   8.251  0.1474 -0.0759 -0.1201
  495loPI   C5A 7915   4.835  12.698   7.817  0.0199  0.1942 -0.5411
  495loPI   C6A 7916   5.238  12.673   7.680  0.2431  0.2806 -0.2136
  495loPI   C1B 7917   5.142  12.291   9.396  0.0963  0.0186  0.4004
  495loPI   C2B 7918   5.205  12.290   8.886 -0.1647 -0.0580 -0.0271
  495loPI   C3B 7919   5.195  12.267   8.432  0.1541 -0.2381 -0.2344
  495loPI   C4B 7920   5.067  12.294   8.027 -0.2634 -0.0095  0.0131
  496loPI    C1 7921   7.058  11.929  10.206 -0.1587 -0.1450 -0.1229
  496loPI    C2 7922   7.294  11.839  10.517 -0.0277  0.5533 -0.0043
  496loPI    C3 7923   6.909  11.732  10.520  0.1636 -0.1855  0.0091
  496loPI   PO4 7924   7.159  11.893   9.939 -0.2530 -0.0046 -0.4957
  496loPI   GL1 7925   7.031  12.112   9.514 -0.3501  0.1380 -0.0139
  496loPI   GL2 7926   6.852  12.338   9.455  0.0892  0.1262 -0.2038
  496loPI   C1A 7927   7.074  11.811   9.204 -0.1806 -0.1772 -0.1323
  496loPI   C2A 7928   6.948  11.708   8.823  0.2123  0.0446  0.2246
  496loPI   C3A 7929   6.931  11.724   8.357 -0.5397 -0.1397 -0.0609
  496loPI   C4A 7930   6.999  11.788   7.950 -0.2639 -0.0737 -0.2634
  496loPI   C5A 7931   6.821  11.782   7.443  0.0404 -0.2724  0.1019
  496loPI   C6A 7932   7.027  11.514   7.140  0.3677 -0.3102  0.0374
  496loPI   C1B 7933   6.744  12.262   8.962  0.4212 -0.2936  0.1452
  496loPI   C2B 7934   6.716  12.184   8.581 -0.3221  0.1786  0.1202
  496loPI   C3B 7935   6.635  12.224   8.167  0.0043  0.0358 -0.2492
  496loPI   C4B 7936   6.832  12.272   7.782  0.1082 -0.0441 -0.0206
  497loPI    C1 7937  10.805  14.147   9.897 -0.1693 -0.1788  0.0986
  497loPI    C2 7938  10.722  13.867   9.624  0.1815 -0.1260 -0.0681
  497loPI    C3 7939  10.952  13.777   9.939 -0.0689 -0.1376  0.1145
  497loPI   PO4 7940  10.910  14.386   9.743  0.2038 -0.3967 -0.0702
  497loPI   GL1 7941  10.916  14.259   9.299 -0.3681  0.1686  0.2344
  497loPI   GL2 7942  11.145  14.554   9.364  0.1605 -0.2802 -0.0099
  497loPI   C1A 7943  11.164  13.837   9.032  0.2567 -0.3447  0.0528
  497loPI   C2A 7944  11.195  13.806   8.529  0.0955 -0.4060 -0.1383
  497loPI   C3A 7945  11.162  13.746   8.104 -0.2637  0.0851 -0.0421
  497loPI   C4A 7946  11.269  13.793   7.751 -0.0011  0.6871  0.0300
  497loPI   C5A 7947  11.101  13.521   7.461  0.0660 -0.1205  0.0337
  497loPI   C6A 7948  11.029  13.447   7.006 -0.1924  0.2059  0.1086
  497loPI   C1B 7949  11.261  14.417   8.928  0.2569 -0.1706 -0.2258
  497loPI   C2B 7950  11.074  14.312   8.441  0.3312 -0.4732  0.0274
  497loPI   C3B 7951  11.014  14.243   7.990 -0.0714 -0.0501  0.1895
  497loPI   C4B 7952  11.179  14.489   7.630 -0.0863  0.2307 -0.0477
  498loPI    C1 7953  17.229  12.820  10.778  0.1443 -0.0315  0.1492
  498loPI    C2 7954  17.502  13.100  10.696 -0.0153  0.1414  0.2001
  498loPI    C3 7955  17.608  12.768  10.893  0.2339  0.0306 -0.1104
  498loPI   PO4 7956  17.151  12.804  10.512  0.3211 -0.1165  0.0319
  498loPI   GL1 7957  17.385  12.935  10.215 -0.2251  0.1963  0.1689
  498loPI   GL2 7958  17.637  13.018  10.214 -0.0148  0.0358  0.0065
  498loPI   C1A 7959  17.253  12.759   9.813  0.1968 -0.3894  0.0201
  498loPI   C2A 7960  17.201  12.847   9.369 -0.0545  0.1431  0.1417
  498loPI   C3A 7961  17.147  12.833   8.854 -0.0559 -0.0594 -0.1332
  498loPI   C4A 7962  17.154  12.764   8.432 -0.0874 -0.0339  0.0835
  498loPI   C5A 7963  17.261  12.522   8.145 -0.2985 -0.3929 -0.0676
  498loPI   C6A 7964  17.280  12.119   8.014  0.2187 -0.1591  0.1871
  498loPI   C1B 7965  17.747  12.816   9.795  0.0022 -0.1500 -0.3102
  498loPI   C2B 7966  17.711  12.790   9.305  0.1413 -0.0645 -0.0857
  498loPI   C3B 7967  17.625  12.848   8.823 -0.1356  0.0503  0.2987
  498loPI   C4B 7968  17.652  12.861   8.393  0.2587 -0.2281  0.2473
  499loPI    C1 7969   7.209   7.870  10.424 -0.0263  0.1130 -0.1614
  499loPI    C2 7970   7.417   8.045  10.717  0.0611 -0.2475 -0.0038
  499loPI    C3 7971   7.023   7.989  10.757  0.0353 -0.1006 -0.0489
  499loPI   PO4 7972   7.332   7.985  10.164  0.2518 -0.2209 -0.0184
  499loPI   GL1 7973   7.174   7.908   9.852 -0.4148  0.0093 -0.1708
  499loPI   GL2 7974   7.473   7.872   9.592  0.2063 -0.0396  0.1033
  499loPI   C1A 7975   6.991   7.726   9.506 -0.0140 -0.1214 -0.1399
  499loPI   C2A 7976   6.916   7.661   9.075  0.1750 -0.3790 -0.1169
  499loPI   C3A 7977   6.877   7.726   8.701  0.2620  0.0181 -0.1372
  499loPI   C4A 7978   6.762   7.742   8.290 -0.1128 -0.0526 -0.2237
  499loPI   C5A 7979   6.527   7.689   7.906 -0.2717  0.1614  0.1524
  499loPI   C6A 7980   6.438   7.810   7.452  0.0301 -0.1053 -0.0506
  499loPI   C1B 7981   7.383   7.775   9.216  0.0812  0.4609  0.0001
  499loPI   C2B 7982   7.384   7.719   8.751  0.0116 -0.0160 -0.0054
  499loPI   C3B 7983   7.457   7.728   8.369  0.1311  0.1847  0.1520
  499loPI   C4B 7984   7.570   7.765   7.938 -0.3190  0.2280  0.1556
  500loPI    C1 7985  14.738   1.269  10.667 -0.2966 -0.0471 -0.0384
  500loPI    C2 7986  14.819   1.063  11.000  0.1118  0.0575 -0.0686
  500loPI    C3 7987  14.687   1.440  11.025  0.2187  0.0925 -0.0244
  500loPI   PO4 7988  14.653   1.064  10.495  0.1434 -0.1063  0.1812
  500loPI   GL1 7989  14.696   1.000  10.058  0.1971  0.3603  0.2873
  500loPI   GL2 7990  14.433   0.775   9.948  0.3780 -0.0656  0.2438
  500loPI   C1A 7991  14.702   1.172   9.724 -0.0076  0.0106 -0.0424
  500loPI   C2A 7992  14.834   1.061   9.336 -0.1053  0.1188 -0.1571
  500loPI   C3A 7993  14.851   1.072   8.984  0.1817 -0.0102  0.2159
  500loPI   C4A 7994  14.878   1.079   8.667  0.1667  0.0302  0.0753
  500loPI   C5A 7995  14.900   1.060   8.252  0.0833 -0.0879 -0.1725
  500loPI   C6A 7996  14.869   0.807   7.924 -0.1962 -0.0804 -0.2581
  500loPI   C1B 7997  14.487   0.719   9.597  0.2179  0.0468 -0.0012
  500loPI   C2B 7998  14.531   0.638   9.196  0.2197 -0.2840  0.0569
  500loPI   C3B 7999  14.577   0.650   8.750 -0.3605 -0.3524 -0.1174
  500loPI   C4B 8000  14.585   0.622   8.297  0.0347 -0.0872 -0.0086
  501loPI    C1 8001   0.785  14.649  10.586 -0.0083 -0.0456 -0.1003
  501loPI    C2 8002   0.556  14.489  10.872  0.0350  0.0288 -0.0231
  501loPI    C3 8003   0.822  14.773  10.965 -0.0229  0.1270 -0.1544
  501loPI   PO4 8004   0.594  14.728  10.336  0.1247  0.0887 -0.1359
  501loPI   GL1 8005   0.465  14.770   9.935  0.0193 -0.2150 -0.0723
  501loPI   GL2 8006   0.230  14.444  10.007 -0.0556 -0.2492  0.1805
  501loPI   C1A 8007   0.372  14.762   9.487  0.0434  0.0891 -0.2270
  501loPI   C2A 8008   0.271  14.748   9.066 -0.0505  0.0604 -0.1076
  501loPI   C3A 8009   0.238  14.766   8.632 -0.1569  0.1427 -0.4055
  501loPI   C4A 8010   0.297  14.752   8.149  0.2204  0.1007 -0.0599
  501loPI   C5A 8011   0.182  14.593   7.768  0.1006 -0.2279  0.0220
  501loPI   C6A 8012  -0.136  14.418   7.560  0.0512  0.1159 -0.2347
  501loPI   C1B 8013   0.068  14.363   9.661  0.1531 -0.1227  0.0070
  501loPI   C2B 8014   0.059  14.312   9.185 -0.0350  0.1362 -0.0450
  501loPI   C3B 8015   0.053  14.355   8.918 -0.0264  0.1962 -0.0255
  501loPI   C4B 8016   0.021  14.320   8.531 -0.2911 -0.0238  0.1117
  502loPI    C1 8017   4.601   0.480  10.123 -0.1271  0.0609 -0.0701
  502loPI    C2 8018   4.668   0.347  10.494  0.0863 -0.1584 -0.1846
  502loPI    C3 8019   4.820   0.697  10.377  0.1063 -0.1381 -0.0981
  502loPI   PO4 8020   4.431   0.360  10.035 -0.2148  0.2247  0.3685
  502loPI   GL1 8021   4.329   0.203   9.555 -0.0972 -0.0062 -0.4962
  502loPI   GL2 8022   4.075   0.274   9.386 -0.1245  0.0893 -0.0342
  502loPI   C1A 8023   4.494   0.168   9.121 -0.1398 -0.0827 -0.1233
  502loPI   C2A 8024   4.560   0.210   8.722  0.1554  0.0630 -0.0985
  502loPI   C3A 8025   4.615   0.301   8.267  0.1212  0.0996  0.3225
  502loPI   C4A 8026   4.678   0.227   7.923 -0.0377  0.3120  0.4168
  502loPI   C5A 8027   4.964   0.263   7.587 -0.0268 -0.2245 -0.3708
  502loPI   C6A 8028   4.883   0.329   7.179 -0.0650 -0.0377  0.2220
  502loPI   C1B 8029   3.993   0.291   9.032  0.0372 -0.2846  0.5414
  502loPI   C2B 8030   4.110   0.245   8.531  0.2647  0.1053 -0.2904
  502loPI   C3B 8031   4.096   0.176   8.033 -0.2948  0.0878 -0.2632
  502loPI   C4B 8032   4.065   0.000   7.606 -0.2564 -0.0372  0.0980
  503loPI    C1 8033  11.029  16.241   9.859 -0.0818  0.0668  0.0267
  503loPI    C2 8034  11.265  16.110  10.154 -0.1129  0.0742  0.0548
  503loPI    C3 8035  11.282  15.938   9.794  0.0686  0.1964  0.0038
  503loPI   PO4 8036  11.111  16.505   9.788  0.2281  0.2563 -0.1165
  503loPI   GL1 8037  11.306  16.568   9.492 -0.0369 -0.1143  0.0108
  503loPI   GL2 8038  11.099  16.308   9.319 -0.2122  0.1551  0.0563
  503loPI   C1A 8039  11.355  16.653   8.984 -0.2152  0.0277  0.3972
  503loPI   C2A 8040  11.358  16.601   8.550 -0.0494  0.2007 -0.0867
  503loPI   C3A 8041  11.361  16.725   8.112  0.0486 -0.1537 -0.0875
  503loPI   C4A 8042  11.384  16.843   7.712 -0.0362 -0.0473  0.0418
  503loPI   C5A 8043  11.378  17.205   7.480  0.1400 -0.3384 -0.3560
  503loPI   C6A 8044  11.206  17.672   7.337  0.0941 -0.1203  0.0583
  503loPI   C1B 8045  11.138  16.216   8.919  0.1629  0.3064  0.0395
  503loPI   C2B 8046  11.122  16.166   8.513  0.1415  0.1942  0.1341
  503loPI   C3B 8047  11.094  16.273   8.107  0.3795 -0.1355  0.0401
  503loPI   C4B 8048  11.161  16.383   7.586  0.2422  0.1917  0.1584
  504loPI    C1 8049   7.422   5.120  10.536  0.1333  0.0081 -0.0418
  504loPI    C2 8050   7.419   5.487  10.695  0.1458  0.0036 -0.0314
  504loPI    C3 8051   7.522   5.172  10.919 -0.1187 -0.0402  0.0326
  504loPI   PO4 8052   7.246   5.055  10.372 -0.2996 -0.6846 -0.0025
  504loPI   GL1 8053   7.181   4.998   9.960 -0.0292  0.0955  0.3981
  504loPI   GL2 8054   7.252   4.669  10.008 -0.0288 -0.0172  0.0658
  504loPI   C1A 8055   7.016   4.881   9.572  0.0843 -0.1307  0.1706
  504loPI   C2A 8056   7.060   4.790   9.163  0.0648  0.1034  0.2869
  504loPI   C3A 8057   7.115   4.896   8.696 -0.0166 -0.1869 -0.3072
  504loPI   C4A 8058   7.068   4.842   8.203  0.0522  0.0253 -0.0417
  504loPI   C5A 8059   7.185   4.683   7.869 -0.0813  0.3316 -0.0186
  504loPI   C6A 8060   7.494   4.326   7.697  0.1759 -0.0822 -0.0664
  504loPI   C1B 8061   7.279   4.466   9.653  0.0484 -0.0477  0.0669
  504loPI   C2B 8062   7.365   4.455   9.239 -0.1329 -0.2937  0.0478
  504loPI   C3B 8063   7.325   4.495   8.842 -0.0382 -0.1017  0.3026
  504loPI   C4B 8064   7.302   4.402   8.422 -0.0497  0.1389 -0.1610
  505loPI    C1 8065  16.043  17.664  10.561  0.0669 -0.1024 -0.1537
  505loPI    C2 8066  15.888  17.311  10.452  0.0270 -0.1885  0.1717
  505loPI    C3 8067  15.672  17.565  10.673  0.0872  0.0050  0.0112
  505loPI   PO4 8068  16.205  17.621  10.280 -0.0305  0.0602 -0.1186
  505loPI   GL1 8069  16.378  17.704   9.963  0.2656  0.1812  0.0447
  505loPI   GL2 8070  16.466  17.458   9.868 -0.0643  0.3174  0.2776
  505loPI   C1A 8071  16.360  17.892   9.574 -0.0712 -0.0502  0.3143
  505loPI   C2A 8072  16.521  17.766   9.195  0.3263  0.2095 -0.3154
  505loPI   C3A 8073  16.682  17.840   8.825 -0.3222 -0.3510 -0.0085
  505loPI   C4A 8074  16.780  17.785   8.553 -0.0681  0.4041  0.1210
  505loPI   C5A 8075  16.801  17.766   8.100  0.0178  0.2225  0.1588
  505loPI   C6A 8076  16.743  17.786   7.642 -0.0414  0.1546  0.0121
  505loPI   C1B 8077  16.508  17.295   9.441 -0.1408 -0.2155 -0.0091
  505loPI   C2B 8078  16.352  17.306   9.116  0.0940 -0.0175  0.0380
  505loPI   C3B 8079  16.528  17.302   8.773  0.2810  0.0922  0.1100
  505loPI   C4B 8080  16.612  17.345   8.368 -0.1050  0.1383  0.1268
  506loPI    C1 8081   3.781   9.189  10.606  0.5501 -0.0607  0.2792
  506loPI    C2 8082   3.774   8.795  10.537  0.1030  0.0490 -0.3943
  506loPI    C3 8083   3.434   8.990  10.619  0.3422  0.2800  0.0874
  506loPI   PO4 8084   4.002   9.261  10.401  0.2515 -0.0587  0.1534
  506loPI   GL1 8085   4.067   9.287   9.906  0.1299 -0.1611 -0.1646
  506loPI   GL2 8086   4.281   9.367   9.615 -0.0650  0.0173  0.3083
  506loPI   C1A 8087   3.716   9.499   9.576  0.2373  0.1290  0.3000
  506loPI   C2A 8088   3.776   9.507   9.161 -0.2106  0.1281 -0.1377
  506loPI   C3A 8089   3.643   9.368   8.725  0.3166  0.1652  0.3257
  506loPI   C4A 8090   3.545   9.458   8.305  0.1704  0.1713 -0.0820
  506loPI   C5A 8091   3.514   9.495   7.939  0.2303 -0.0228  0.1900
  506loPI   C6A 8092   3.643   9.651   7.683 -0.2812  0.0611 -0.1018
  506loPI   C1B 8093   4.268   9.429   9.179 -0.1625  0.1882 -0.1204
  506loPI   C2B 8094   4.175   9.433   8.682  0.2257 -0.1938  0.0454
  506loPI   C3B 8095   3.993   9.424   8.242  0.1764 -0.1128 -0.0756
  506loPI   C4B 8096   4.136   9.380   7.809 -0.1905 -0.2727 -0.2038
  507loPI    C1 8097   0.911   7.745  10.709  0.2118  0.1830  0.0012
  507loPI    C2 8098   0.620   7.825  10.971  0.2345  0.2560  0.0044
  507loPI    C3 8099   0.724   7.446  10.897  0.0514  0.2234 -0.0920
  507loPI   PO4 8100   0.843   7.830  10.549 -0.0776 -0.1587 -0.1047
  507loPI   GL1 8101   0.796   7.712  10.106 -0.0246  0.2776 -0.1862
  507loPI   GL2 8102   1.019   7.588  10.092 -0.4848  0.2175 -0.0632
  507loPI   C1A 8103   0.917   7.815   9.649  0.1381 -0.1150 -0.2020
  507loPI   C2A 8104   0.917   7.813   9.214 -0.0564 -0.3853  0.3147
  507loPI   C3A 8105   0.938   7.923   8.745 -0.0063  0.0191 -0.0692
  507loPI   C4A 8106   0.840   7.865   8.296 -0.3099 -0.1143  0.0363
  507loPI   C5A 8107   0.885   7.672   7.962  0.0516 -0.0717  0.1611
  507loPI   C6A 8108   0.548   7.479   7.749  0.3820 -0.1168 -0.2078
  507loPI   C1B 8109   1.155   7.405   9.748 -0.0073  0.0925  0.1250
  507loPI   C2B 8110   1.139   7.414   9.249  0.1779  0.1711 -0.1393
  507loPI   C3B 8111   1.161   7.351   8.819 -0.2563  0.1651  0.1192
  507loPI   C4B 8112   1.171   7.448   8.440 -0.2094 -0.0758  0.0570
  508loPI    C1 8113   0.728  15.651  10.110 -0.1936 -0.0464 -0.1836
  508loPI    C2 8114   1.015  15.640  10.389 -0.1328 -0.1952 -0.2506
  508loPI    C3 8115   0.631  15.609  10.496 -0.1356  0.1505 -0.1462
  508loPI   PO4 8116   0.797  15.539   9.881  0.1829 -0.0798  0.1655
  508loPI   GL1 8117   0.993  15.260   9.669 -0.0692 -0.1477  0.0892
  508loPI   GL2 8118   0.587  15.166   9.644  0.0927 -0.2644 -0.0552
  508loPI   C1A 8119   1.092  15.273   9.194 -0.1094 -0.2127 -0.0934
  508loPI   C2A 8120   1.088  15.201   8.835  0.1053 -0.1081  0.1939
  508loPI   C3A 8121   1.056  15.208   8.472 -0.1565  0.0600  0.2663
  508loPI   C4A 8122   1.040  15.203   8.058  0.1248 -0.0800  0.1956
  508loPI   C5A 8123   0.930  15.240   7.576 -0.0395  0.3559  0.0034
  508loPI   C6A 8124   0.822  15.119   7.105 -0.3629 -0.0036 -0.1650
  508loPI   C1B 8125   0.540  15.143   9.149  0.0943  0.1707 -0.2019
  508loPI   C2B 8126   0.549  15.196   8.738 -0.0685 -0.0938 -0.0621
  508loPI   C3B 8127   0.575  15.179   8.352 -0.2370  0.1344  0.0319
  508loPI   C4B 8128   0.415  15.210   7.922  0.2858 -0.4291 -0.2468
  509loPI    C1 8129  14.769  12.987  11.008  0.1051 -0.0250 -0.0410
  509loPI    C2 8130  14.899  12.814  11.344 -0.2602 -0.1206  0.0565
  509loPI    C3 8131  14.697  13.159  11.362 -0.1437 -0.0443 -0.0798
  509loPI   PO4 8132  14.919  12.896  10.787 -0.1060 -0.4493 -0.1044
  509loPI   GL1 8133  15.015  13.093  10.397  0.2038  0.1482 -0.1971
  509loPI   GL2 8134  15.272  12.989  10.240  0.0644 -0.0199 -0.1835
  509loPI   C1A 8135  14.755  13.295  10.094  0.2645  0.1359 -0.1552
  509loPI   C2A 8136  14.730  13.233   9.688  0.1317 -0.1817 -0.0853
  509loPI   C3A 8137  14.753  13.207   9.232 -0.0796  0.1434  0.0596
  509loPI   C4A 8138  14.790  13.224   8.826 -0.0793  0.0608  0.2535
  509loPI   C5A 8139  14.858  13.247   8.397  0.2560  0.0665  0.0320
  509loPI   C6A 8140  15.229  13.417   8.163  0.0852  0.0264  0.0500
  509loPI   C1B 8141  14.983  12.873   9.903  0.2248  0.1353  0.2997
  509loPI   C2B 8142  15.060  12.676   9.547 -0.1339  0.2130 -0.2874
  509loPI   C3B 8143  15.065  12.838   9.068 -0.0523  0.1455  0.0253
  509loPI   C4B 8144  15.010  12.807   8.623 -0.1889 -0.3056 -0.1053
  510loPI    C1 8145   5.108  18.553  10.025  0.1022  0.0312  0.2760
  510loPI    C2 8146   5.028  18.311  10.333  0.1204 -0.1180  0.1648
  510loPI    C3 8147   5.188  18.672  10.398  0.0131 -0.1004  0.3378
  510loPI   PO4 8148   5.182  18.302   9.815 -0.3275 -0.0765 -0.1072
  510loPI   GL1 8149   5.154  18.266   9.337 -0.0449 -0.2632 -0.1698
  510loPI   GL2 8150   5.035  17.964   9.480  0.1041  0.1708 -0.1140
  510loPI   C1A 8151   5.159  18.232   8.904 -0.1797 -0.2572  0.1192
  510loPI   C2A 8152   5.190  18.292   8.508 -0.2329  0.1060 -0.0289
  510loPI   C3A 8153   5.163  18.138   8.068  0.0378 -0.1947  0.0039
  510loPI   C4A 8154   5.135  18.037   7.669  0.0698  0.0705 -0.2417
  510loPI   C5A 8155   5.233  18.200   7.263 -0.2312 -0.0037 -0.0378
  510loPI   C6A 8156   5.106  18.581   7.025 -0.1674 -0.0411 -0.1839
  510loPI   C1B 8157   4.967  17.850   9.113 -0.1645  0.1078 -0.0833
  510loPI   C2B 8158   4.947  17.734   8.703  0.2046 -0.2643 -0.1192
  510loPI   C3B 8159   4.971  17.642   8.340 -0.2135 -0.4510  0.0943
  510loPI   C4B 8160   4.796  17.718   7.933  0.2507 -0.0764  0.3112
  511loPI    C1 8161   0.222  15.706  10.221  0.1013 -0.1436 -0.0648
  511loPI    C2 8162   0.033  15.451  10.464 -0.0598  0.0254 -0.0108
  511loPI    C3 8163   0.160  15.804  10.604  0.1223 -0.0054 -0.0961
  511loPI   PO4 8164   0.139  15.554   9.999  0.3605 -0.1387 -0.0531
  511loPI   GL1 8165   0.239  15.562   9.645  0.0831  0.2071 -0.0952
  511loPI   GL2 8166   0.409  15.853   9.666 -0.2577 -0.1877 -0.1475
  511loPI   C1A 8167   0.221  15.582   9.154 -0.4037  0.1836 -0.0420
  511loPI   C2A 8168   0.258  15.594   8.734  0.4132 -0.0541  0.2568
  511loPI   C3A 8169   0.304  15.601   8.263  0.1902  0.0973 -0.0303
  511loPI   C4A 8170   0.198  15.622   7.867 -0.1639 -0.0267  0.0425
  511loPI   C5A 8171   0.091  15.854   7.515 -0.0098  0.4077 -0.1329
  511loPI   C6A 8172  -0.110  15.787   7.097  0.0388 -0.2547 -0.2500
  511loPI   C1B 8173   0.712  15.653   9.250  0.2440  0.0283  0.0425
  511loPI   C2B 8174   0.760  15.657   8.902  0.0181  0.0494 -0.2189
  511loPI   C3B 8175   0.793  15.669   8.482  0.3573  0.2184 -0.1973
  511loPI   C4B 8176   0.738  15.617   7.989 -0.0298  0.0317 -0.0072
  512loPI    C1 8177  15.451   5.420  10.797 -0.1303 -0.3444 -0.0471
  512loPI    C2 8178  15.189   5.398  11.099  0.0257  0.2577  0.1464
  512loPI    C3 8179  15.551   5.230  11.135 -0.1632 -0.1856  0.0526
  512loPI   PO4 8180  15.327   5.324  10.575  0.1994 -0.1021  0.1231
  512loPI   GL1 8181  15.237   5.472  10.195 -0.2637  0.1309 -0.2823
  512loPI   GL2 8182  15.000   5.630  10.010  0.2735 -0.2382 -0.1980
  512loPI   C1A 8183  15.382   5.355   9.728 -0.3926 -0.1640 -0.3685
  512loPI   C2A 8184  15.395   5.368   9.279 -0.1568  0.1621  0.1745
  512loPI   C3A 8185  15.457   5.355   8.879  0.0397  0.0921  0.0631
  512loPI   C4A 8186  15.338   5.370   8.407  0.1336  0.1756 -0.2795
  512loPI   C5A 8187  15.601   5.353   7.930 -0.2744  0.0603  0.0284
  512loPI   C6A 8188  15.606   4.936   7.635  0.0719 -0.0205  0.1686
  512loPI   C1B 8189  15.057   5.768   9.552  0.3002  0.3505 -0.1708
  512loPI   C2B 8190  15.192   5.792   9.130 -0.2615  0.0802 -0.2849
  512loPI   C3B 8191  15.163   5.880   8.796 -0.0117  0.0458  0.1192
  512loPI   C4B 8192  15.177   5.829   8.390 -0.2663 -0.1695 -0.1700
  513loPI    C1 8193  10.196  10.170  10.017 -0.2576 -0.0705  0.1302
  513loPI    C2 8194  10.145  10.544  10.151  0.2157 -0.0324  0.2192
  513loPI    C3 8195   9.933  10.244  10.310 -0.2406  0.2063  0.0780
  513loPI   PO4 8196  10.231  10.276   9.696  0.2630  0.2437  0.0051
  513loPI   GL1 8197  10.558  10.092   9.396 -0.0492  0.5423  0.0462
  513loPI   GL2 8198  10.557   9.876   9.135 -0.0038  0.0188 -0.0454
  513loPI   C1A 8199  10.716  10.285   8.893  0.1058 -0.1214 -0.0706
  513loPI   C2A 8200  10.739  10.140   8.449 -0.1030 -0.3519  0.2147
  513loPI   C3A 8201  10.713  10.476   8.070 -0.2037 -0.2259  0.0758
  513loPI   C4A 8202  10.471  10.613   7.741  0.0274 -0.1817 -0.1549
  513loPI   C5A 8203  10.123  10.911   7.844 -0.0074 -0.1625 -0.0611
  513loPI   C6A 8204   9.771  11.107   7.998  0.0982 -0.3759  0.0498
  513loPI   C1B 8205  10.580   9.774   8.696 -0.2681 -0.0614  0.2188
  513loPI   C2B 8206  10.595   9.666   8.329  0.2739  0.1220 -0.0135
  513loPI   C3B 8207  10.655  10.003   7.924  0.1042  0.2682  0.0287
  513loPI   C4B 8208  10.766  10.234   7.642 -0.1742  0.0725 -0.1246
  514loPI    C1 8209  16.506   1.536  10.963 -0.1586 -0.0552 -0.0078
  514loPI    C2 8210  16.496   1.776  11.282 -0.0933 -0.5494  0.3786
  514loPI    C3 8211  16.818   1.549  11.213 -0.0383 -0.3272 -0.1393
  514loPI   PO4 8212  16.416   1.623  10.692  0.1525 -0.2645 -0.1295
  514loPI   GL1 8213  16.464   1.697  10.345 -0.2131 -0.0121  0.2584
  514loPI   GL2 8214  16.314   1.532  10.201 -0.3054 -0.3205  0.4041
  514loPI   C1A 8215  16.666   1.752   9.877  0.3369  0.2752  0.0025
  514loPI   C2A 8216  16.631   1.778   9.447  0.1052  0.1195 -0.0997
  514loPI   C3A 8217  16.647   1.750   9.008  0.0224 -0.0340 -0.2088
  514loPI   C4A 8218  16.679   1.855   8.551  0.0284  0.1400  0.4292
  514loPI   C5A 8219  16.842   1.992   8.080 -0.2831 -0.2525  0.2524
  514loPI   C6A 8220  17.130   2.037   7.743 -0.2022  0.2262  0.0442
  514loPI   C1B 8221  16.438   1.307   9.923  0.0362  0.2440 -0.0507
  514loPI   C2B 8222  16.426   1.300   9.462  0.4371 -0.4621  0.0939
  514loPI   C3B 8223  16.361   1.325   9.022 -0.0768 -0.0070 -0.1365
  514loPI   C4B 8224  16.482   1.395   8.574 -0.1090 -0.1686 -0.2154
  515loPI    C1 8225  16.678   0.744  10.932  0.2700  0.1191 -0.0227
  515loPI    C2 8226  16.691   1.100  11.113  0.0497  0.1054  0.0218
  515loPI    C3 8227  16.901   0.794  11.260  0.0932  0.1683  0.0913
  515loPI   PO4 8228  16.629   0.684  10.704  0.3421 -0.1696  0.2016
  515loPI   GL1 8229  16.564   0.685  10.297 -0.0219 -0.0603 -0.2077
  515loPI   GL2 8230  16.539   0.938  10.166 -0.2600  0.0290 -0.1517
  515loPI   C1A 8231  16.821   0.414  10.014 -0.1600 -0.1637 -0.0956
  515loPI   C2A 8232  16.967   0.369   9.505 -0.3517 -0.1354  0.1145
  515loPI   C3A 8233  16.932   0.470   9.011  0.1572 -0.0237  0.2085
  515loPI   C4A 8234  16.966   0.419   8.625 -0.2854  0.0621 -0.1481
  515loPI   C5A 8235  16.995   0.441   8.197  0.1866 -0.1122 -0.0709
  515loPI   C6A 8236  16.825   0.469   7.837  0.0166 -0.0667  0.2862
  515loPI   C1B 8237  16.669   0.795   9.806  0.0054 -0.0686  0.2749
  515loPI   C2B 8238  16.680   0.843   9.372 -0.2275  0.1340  0.1135
  515loPI   C3B 8239  16.625   0.891   8.955 -0.1037 -0.0965  0.0299
  515loPI   C4B 8240  16.695   0.853   8.555 -0.1002  0.0518  0.0893
  516loPI    C1 8241   4.984   1.659  10.343  0.0362 -0.2995 -0.2562
  516loPI    C2 8242   5.069   1.843  10.688 -0.3390  0.0125 -0.3228
  516loPI    C3 8243   5.149   1.454  10.644  0.0769  0.0578 -0.0283
  516loPI   PO4 8244   5.127   1.875  10.171 -0.0613 -0.0625 -0.0499
  516loPI   GL1 8245   4.949   2.276  10.009  0.3496  0.0715  0.2509
  516loPI   GL2 8246   5.307   2.338   9.942 -0.2015 -0.3285  0.1562
  516loPI   C1A 8247   4.862   2.465   9.618 -0.0098 -0.0089 -0.1182
  516loPI   C2A 8248   4.963   2.581   9.211 -0.0876 -0.2382 -0.0362
  516loPI   C3A 8249   4.870   2.659   8.749  0.1405  0.1245 -0.1500
  516loPI   C4A 8250   4.797   2.629   8.375 -0.4011 -0.1415 -0.2632
  516loPI   C5A 8251   4.639   2.620   7.934  0.3337  0.3076 -0.1407
  516loPI   C6A 8252   4.548   2.283   7.653 -0.6323  0.2089  0.1803
  516loPI   C1B 8253   5.443   2.526   9.509 -0.0585 -0.2143  0.0183
  516loPI   C2B 8254   5.444   2.647   9.047  0.0811 -0.0424 -0.0816
  516loPI   C3B 8255   5.327   2.764   8.746  0.0009 -0.0612 -0.0316
  516loPI   C4B 8256   5.296   2.573   8.356  0.1800 -0.2660  0.1197
  517loPI    C1 8257   6.726  18.124   9.580 -0.0097  0.1463 -0.0466
  517loPI    C2 8258   6.384  17.943   9.680  0.0552 -0.0102 -0.1043
  517loPI    C3 8259   6.620  18.098   9.964 -0.0283  0.0344 -0.0590
  517loPI   PO4 8260   6.891  17.975   9.455 -0.2368 -0.0303 -0.1851
  517loPI   GL1 8261   6.858  17.616   9.181  0.0105 -0.4079  0.1280
  517loPI   GL2 8262   7.022  17.432   9.011  0.2092 -0.0434  0.1699
  517loPI   C1A 8263   6.618  17.675   8.756  0.0495  0.3231 -0.1738
  517loPI   C2A 8264   6.470  17.761   8.371  0.2535 -0.2510 -0.0455
  517loPI   C3A 8265   6.491  17.866   7.907 -0.4853 -0.1694  0.2629
  517loPI   C4A 8266   6.464  17.736   7.484  0.3467 -0.0887 -0.0939
  517loPI   C5A 8267   6.608  17.352   7.160  0.3850  0.2170  0.0883
  517loPI   C6A 8268   7.004  17.141   6.966 -0.0507  0.0396 -0.1702
  517loPI   C1B 8269   7.063  17.621   8.678  0.3897 -0.1174  0.1665
  517loPI   C2B 8270   7.045  17.660   8.235  0.3049  0.3399  0.3265
  517loPI   C3B 8271   7.009  17.769   7.840 -0.1363  0.2182 -0.1712
  517loPI   C4B 8272   7.087  18.053   7.668  0.0735 -0.1744  0.0317
  518loPI    C1 8273  12.231  15.704  10.255 -0.2102 -0.0391  0.1224
  518loPI    C2 8274  12.201  16.035  10.477  0.2176  0.2200 -0.1916
  518loPI    C3 8275  12.435  15.734  10.598 -0.0843  0.0723  0.0386
  518loPI   PO4 8276  12.202  15.819   9.998 -0.1341 -0.2361 -0.0340
  518loPI   GL1 8277  12.172  16.093   9.663  0.2702  0.3311 -0.2630
  518loPI   GL2 8278  12.477  15.822   9.502 -0.2329  0.2978  0.1260
  518loPI   C1A 8279  12.240  16.221   9.294 -0.1229 -0.0759  0.1332
  518loPI   C2A 8280  12.236  16.220   8.841  0.1051 -0.0240 -0.0157
  518loPI   C3A 8281  12.309  16.287   8.394  0.1742  0.1155 -0.2695
  518loPI   C4A 8282  12.058  16.319   8.049  0.2460 -0.1446  0.1057
  518loPI   C5A 8283  12.091  16.396   7.615  0.2225 -0.2820 -0.0692
  518loPI   C6A 8284  12.129  16.143   7.308  0.1351 -0.3289 -0.1435
  518loPI   C1B 8285  12.507  15.855   9.053  0.2402 -0.1037 -0.2601
  518loPI   C2B 8286  12.519  15.797   8.573  0.1535 -0.3630  0.1068
  518loPI   C3B 8287  12.482  15.888   8.096  0.1751  0.1273  0.2741
  518loPI   C4B 8288  12.216  15.949   7.767  0.0319  0.2338 -0.0530
  519loPI    C1 8289   6.115   6.423  10.338  0.2583 -0.0521 -0.1296
  519loPI    C2 8290   5.991   6.682  10.617  0.0776 -0.0553 -0.2052
  519loPI    C3 8291   6.095   6.310  10.721 -0.2328 -0.1353 -0.1733
  519loPI   PO4 8292   6.313   6.641  10.193  0.1721 -0.0747  0.4030
  519loPI   GL1 8293   6.229   7.029   9.889  0.1628 -0.0324 -0.1142
  519loPI   GL2 8294   6.351   6.777   9.694  0.1845 -0.3446  0.1572
  519loPI   C1A 8295   6.234   7.224   9.526 -0.2300  0.1679  0.1981
  519loPI   C2A 8296   6.072   7.285   9.132 -0.0966  0.5305  0.0468
  519loPI   C3A 8297   6.180   7.250   8.720 -0.2614  0.0034  0.0504
  519loPI   C4A 8298   5.935   7.181   8.329 -0.2695  0.3010 -0.1310
  519loPI   C5A 8299   6.074   7.223   8.047 -0.0517  0.0433  0.0410
  519loPI   C6A 8300   6.066   7.552   7.779 -0.0343 -0.1793  0.3537
  519loPI   C1B 8301   6.417   6.868   9.191  0.0181 -0.2529 -0.1542
  519loPI   C2B 8302   6.472   6.816   8.816 -0.1205  0.4068 -0.2661
  519loPI   C3B 8303   6.505   6.716   8.376  0.2271 -0.0961 -0.0973
  519loPI   C4B 8304   6.526   6.826   7.938  0.2103  0.1833  0.4607
  520loPI    C1 8305   0.568   9.075  10.463  0.1573 -0.0015 -0.0975
  520loPI    C2 8306   0.384   8.973  10.802  0.0264 -0.0948 -0.1955
  520loPI    C3 8307   0.734   8.805  10.706  0.0044 -0.1581 -0.1652
  520loPI   PO4 8308   0.417   9.100  10.267  0.0421 -0.0219 -0.0127
  520loPI   GL1 8309   0.343   8.974   9.818  0.2380  0.1454 -0.1252
  520loPI   GL2 8310   0.175   8.711   9.793 -0.1177  0.0348  0.0058
  520loPI   C1A 8311   0.538   9.226   9.460  0.1186  0.0234 -0.1093
  520loPI   C2A 8312   0.385   9.183   9.017  0.2081  0.2362 -0.0613
  520loPI   C3A 8313   0.426   9.226   8.681  0.0315 -0.1598 -0.0575
  520loPI   C4A 8314   0.406   9.182   8.221  0.0249  0.2962  0.2919
  520loPI   C5A 8315   0.687   9.291   7.822  0.1313 -0.0759  0.2316
  520loPI   C6A 8316   0.716   8.973   7.448  0.2229 -0.0121  0.0643
  520loPI   C1B 8317   0.205   8.817   9.310 -0.0892 -0.2029  0.2129
  520loPI   C2B 8318   0.175   8.790   8.865  0.2070  0.1272  0.1290
  520loPI   C3B 8319   0.259   8.757   8.446 -0.1814 -0.0257 -0.3032
  520loPI   C4B 8320   0.340   8.775   7.904  0.1671  0.0744  0.0242
  521loPI    C1 8321  10.362  12.920   9.508  0.0063  0.2185  0.0822
  521loPI    C2 8322  10.169  12.640   9.718 -0.0721  0.1537 -0.0754
  521loPI    C3 8323  10.274  12.983   9.893  0.0514  0.0145  0.1269
  521loPI   PO4 8324  10.191  12.932   9.293  0.0108 -0.0868  0.0252
  521loPI   GL1 8325  10.211  12.833   8.905 -0.3783 -0.1406 -0.4815
  521loPI   GL2 8326  10.051  12.574   8.896 -0.2069 -0.0940 -0.0089
  521loPI   C1A 8327  10.280  13.129   8.533  0.1609  0.1330  0.3129
  521loPI   C2A 8328  10.126  13.063   8.154  0.3850 -0.1493  0.3256
  521loPI   C3A 8329  10.291  12.938   7.782  0.2038  0.0804 -0.3168
  521loPI   C4A 8330  10.329  12.777   7.370 -0.1101  0.4409 -0.2582
  521loPI   C5A 8331  10.610  12.602   7.084  0.0242 -0.0486  0.5946
  521loPI   C6A 8332  10.781  12.543   6.661  0.0134 -0.0968  0.0665
  521loPI   C1B 8333  10.104  12.501   8.526  0.1708 -0.1470 -0.0814
  521loPI   C2B 8334  10.088  12.494   8.175 -0.0965 -0.1566  0.1264
  521loPI   C3B 8335  10.234  12.409   7.836  0.3799  0.3135 -0.0243
  521loPI   C4B 8336  10.361  12.290   7.399 -0.0190 -0.0595 -0.1713
  522loPI    C1 8337  16.304  12.424  10.849 -0.0044 -0.0258  0.2124
  522loPI    C2 8338  16.533  12.096  10.846 -0.2906 -0.2292  0.1865
  522loPI    C3 8339  16.333  12.197  11.177 -0.0752  0.0137  0.2463
  522loPI   PO4 8340  16.353  12.525  10.643  0.0135  0.2502 -0.0954
  522loPI   GL1 8341  16.474  12.304  10.156  0.3760  0.1828  0.0437
  522loPI   GL2 8342  16.641  12.567  10.132 -0.0746  0.2095 -0.2165
  522loPI   C1A 8343  16.489  12.297   9.701 -0.1173  0.4543 -0.1375
  522loPI   C2A 8344  16.333  12.242   9.366  0.0449 -0.1640  0.0441
  522loPI   C3A 8345  16.357  12.350   8.914  0.1078 -0.1607 -0.0202
  522loPI   C4A 8346  16.376  12.500   8.476  0.1563  0.0107 -0.1742
  522loPI   C5A 8347  16.700  12.619   8.154  0.3670  0.3401 -0.0533
  522loPI   C6A 8348  16.883  12.976   7.967  0.0585 -0.1833  0.2827
  522loPI   C1B 8349  16.601  12.768   9.815 -0.1241  0.3050 -0.1127
  522loPI   C2B 8350  16.617  12.869   9.373 -0.0123  0.3899  0.1393
  522loPI   C3B 8351  16.662  12.785   8.951  0.2288  0.1215  0.0919
  522loPI   C4B 8352  16.684  12.867   8.552 -0.1291  0.0494 -0.1037
  523loPI    C1 8353   0.450  17.580   9.951 -0.2438 -0.1601  0.1172
  523loPI    C2 8354   0.268  17.520  10.302  0.2501 -0.4076  0.3413
  523loPI    C3 8355   0.566  17.279  10.187  0.2578 -0.1811 -0.1416
  523loPI   PO4 8356   0.505  17.886  10.001 -0.2233  0.2707 -0.1281
  523loPI   GL1 8357   0.570  18.196   9.713 -0.0611  0.0743 -0.2807
  523loPI   GL2 8358   0.777  18.359   9.540 -0.1288  0.1410  0.1546
  523loPI   C1A 8359   0.568  18.034   9.309 -0.0006 -0.1854 -0.0242
  523loPI   C2A 8360   0.598  18.059   8.894  0.1542  0.0266 -0.3153
  523loPI   C3A 8361   0.517  17.963   8.531  0.1893  0.0049  0.2391
  523loPI   C4A 8362   0.520  17.897   8.121 -0.0743  0.3157 -0.0373
  523loPI   C5A 8363   0.472  17.983   7.650 -0.1925  0.1566 -0.1715
  523loPI   C6A 8364   0.141  17.857   7.345 -0.0697 -0.0092 -0.0154
  523loPI   C1B 8365   0.795  18.431   9.184 -0.0412 -0.2767  0.3881
  523loPI   C2B 8366   0.687  18.519   8.701 -0.1697 -0.2721 -0.1040
  523loPI   C3B 8367   0.766  18.362   8.327  0.0218 -0.1884  0.0749
  523loPI   C4B 8368   0.682  18.377   7.907  0.2163 -0.2017  0.0621
  524loPI    C1 8369  12.761  18.446  10.295 -0.0277 -0.2797  0.1818
  524loPI    C2 8370  12.879  18.341  10.663 -0.0539  0.0274  0.2812
  524loPI    C3 8371  12.509  18.253  10.539 -0.0815  0.0190  0.3684
  524loPI   PO4 8372  12.952  18.399  10.163  0.1330 -0.0415  0.2399
  524loPI   GL1 8373  12.941  18.509   9.734 -0.0147 -0.0321  0.0715
  524loPI   GL2 8374  12.635  18.592   9.793 -0.0874  0.0849 -0.2657
  524loPI   C1A 8375  12.877  18.542   9.287  0.0260  0.4227  0.1616
  524loPI   C2A 8376  12.990  18.466   8.883 -0.0446 -0.2473 -0.1187
  524loPI   C3A 8377  12.962  18.613   8.473 -0.2705  0.0778  0.0017
  524loPI   C4A 8378  13.030  18.560   8.205 -0.0841  0.0075  0.1093
  524loPI   C5A 8379  13.337  18.621   7.876 -0.3056  0.1839  0.1557
  524loPI   C6A 8380  13.544  19.013   7.600 -0.1346  0.0322 -0.2395
  524loPI   C1B 8381  12.398  18.478   9.475 -0.0170  0.0520  0.0120
  524loPI   C2B 8382  12.413  18.505   9.058 -0.0155  0.0995  0.1176
  524loPI   C3B 8383  12.354  18.551   8.583 -0.1995  0.0099 -0.1501
  524loPI   C4B 8384  12.470  18.533   8.220 -0.2186 -0.1856 -0.1109
  525loPI    C1 8385   2.819  12.480  10.172 -0.2605 -0.1044  0.1734
  525loPI    C2 8386   2.471  12.678  10.165 -0.1639  0.0678  0.1699
  525loPI    C3 8387   2.711  12.706  10.484 -0.0612  0.1111  0.0893
  525loPI   PO4 8388   2.881  12.478   9.899 -0.1951  0.0735 -0.3542
  525loPI   GL1 8389   2.590  12.373   9.642 -0.2092 -0.0503 -0.0050
  525loPI   GL2 8390   2.514  12.686   9.688 -0.0804  0.0319  0.3104
  525loPI   C1A 8391   2.504  12.118   9.278  0.2780 -0.1696 -0.2554
  525loPI   C2A 8392   2.443  12.093   8.849 -0.0131  0.1191 -0.0811
  525loPI   C3A 8393   2.512  12.037   8.460  0.1678 -0.0020  0.2410
  525loPI   C4A 8394   2.434  11.938   8.024  0.1581 -0.2009 -0.0804
  525loPI   C5A 8395   2.480  12.160   7.684  0.1125 -0.0444 -0.0161
  525loPI   C6A 8396   2.829  12.419   7.551  0.0354  0.1601  0.1289
  525loPI   C1B 8397   2.269  12.737   9.321 -0.1425 -0.3253  0.2247
  525loPI   C2B 8398   2.208  12.611   8.906 -0.2998 -0.0242 -0.1428
  525loPI   C3B 8399   2.250  12.567   8.467 -0.0975 -0.1390 -0.1725
  525loPI   C4B 8400   2.101  12.523   8.038 -0.0863 -0.1125  0.2088
  526loPI    C1 8401  18.520  14.978  10.573 -0.0624  0.0483  0.0310
  526loPI    C2 8402  18.438  15.361  10.655 -0.2340  0.0248 -0.0267
  526loPI    C3 8403  18.644  15.139  10.917 -0.0068  0.1960 -0.0574
  526loPI   PO4 8404  18.355  14.939  10.421 -0.0430  0.3822  0.0387
  526loPI   GL1 8405  18.151  14.881  10.029 -0.1007 -0.3710  0.0375
  526loPI   GL2 8406  18.264  14.696   9.829 -0.1059 -0.0238  0.1399
  526loPI   C1A 8407  17.874  14.995   9.652 -0.2182  0.0942  0.0916
  526loPI   C2A 8408  17.826  15.072   9.181  0.0501  0.0798  0.2468
  526loPI   C3A 8409  17.904  15.117   8.719  0.0779 -0.0865 -0.0271
  526loPI   C4A 8410  17.900  15.195   8.376 -0.0575 -0.0147  0.0304
  526loPI   C5A 8411  17.853  15.146   7.933 -0.1146 -0.2470 -0.0691
  526loPI   C6A 8412  17.710  15.289   7.578  0.0216 -0.2286 -0.3632
  526loPI   C1B 8413  18.158  14.650   9.349 -0.0183 -0.0246  0.0098
  526loPI   C2B 8414  18.121  14.759   8.891 -0.2188  0.1958  0.1749
  526loPI   C3B 8415  18.143  14.755   8.485  0.1608 -0.2208  0.0347
  526loPI   C4B 8416  18.111  14.751   8.087  0.0002  0.1644  0.0678
  527loPI    C1 8417  13.168   7.097  10.523 -0.1251 -0.1792  0.1102
  527loPI    C2 8418  13.544   7.055  10.393 -0.0116 -0.1350  0.4155
  527loPI    C3 8419  13.382   6.776  10.629 -0.1339 -0.1002  0.3733
  527loPI   PO4 8420  13.016   7.070  10.231  0.1419  0.1091 -0.0355
  527loPI   GL1 8421  12.967   7.203   9.843 -0.3638  0.1079  0.0554
  527loPI   GL2 8422  12.672   7.080   9.738  0.1605  0.2448 -0.1299
  527loPI   C1A 8423  13.181   7.018   9.442 -0.2444  0.0514 -0.1889
  527loPI   C2A 8424  13.235   7.057   9.088  0.0303  0.3338 -0.0335
  527loPI   C3A 8425  13.249   7.046   8.630 -0.3107 -0.1498 -0.0440
  527loPI   C4A 8426  13.132   7.093   8.195 -0.1278  0.1717  0.0244
  527loPI   C5A 8427  12.961   7.034   7.888  0.0188 -0.2809 -0.0326
  527loPI   C6A 8428  12.696   7.292   7.619  0.0937  0.0928 -0.1774
  527loPI   C1B 8429  12.745   7.098   9.239  0.3023  0.0816 -0.1666
  527loPI   C2B 8430  12.705   7.090   8.727 -0.0824 -0.4081 -0.2166
  527loPI   C3B 8431  12.626   7.067   8.245 -0.3570 -0.1442 -0.1384
  527loPI   C4B 8432  12.456   6.936   7.902  0.2342  0.3263  0.0340
  528loPI    C1 8433  16.723   7.443  11.007 -0.1820  0.0134  0.0442
  528loPI    C2 8434  16.476   7.136  10.936  0.0646 -0.1909  0.0535
  528loPI    C3 8435  16.482   7.308  11.297  0.0236 -0.2648  0.0896
  528loPI   PO4 8436  16.948   7.355  10.796 -0.2397  0.0191 -0.1518
  528loPI   GL1 8437  16.757   7.277  10.430  0.1330  0.1253 -0.2177
  528loPI   GL2 8438  17.056   7.545  10.329  0.4247 -0.1512  0.1046
  528loPI   C1A 8439  16.814   7.248   9.999 -0.2204  0.1075  0.1682
  528loPI   C2A 8440  16.794   7.255   9.595  0.0921  0.0256  0.1494
  528loPI   C3A 8441  16.828   7.277   9.115  0.1181 -0.1581  0.2752
  528loPI   C4A 8442  16.920   7.103   8.750 -0.1297  0.2478 -0.1925
  528loPI   C5A 8443  16.775   6.915   8.384 -0.1598  0.0244  0.1205
  528loPI   C6A 8444  16.327   6.974   8.164 -0.1633  0.0630 -0.1860
  528loPI   C1B 8445  17.039   7.713   9.896  0.0334  0.1191  0.1881
  528loPI   C2B 8446  17.048   7.705   9.555  0.1885  0.1642 -0.1517
  528loPI   C3B 8447  17.115   7.777   9.108 -0.0116 -0.1118  0.1183
  528loPI   C4B 8448  16.990   7.607   8.622  0.1318 -0.0209  0.2440
  529loPI    C1 8449   0.723   2.164  10.448 -0.0748  0.1066  0.0514
  529loPI    C2 8450   1.123   2.173  10.452 -0.0694 -0.0711 -0.0077
  529loPI    C3 8451   0.917   2.275  10.780  0.0349 -0.3868  0.1610
  529loPI   PO4 8452   0.687   2.246  10.176 -0.1523 -0.2512  0.1208
  529loPI   GL1 8453   0.621   2.398   9.784 -0.0795  0.1982 -0.4806
  529loPI   GL2 8454   0.821   2.602   9.671  0.2109  0.3193  0.2632
  529loPI   C1A 8455   0.476   2.435   9.341 -0.1018  0.1625  0.0689
  529loPI   C2A 8456   0.487   2.417   9.010  0.0016 -0.1460  0.2060
  529loPI   C3A 8457   0.618   2.352   8.566  0.0737 -0.2102 -0.3012
  529loPI   C4A 8458   0.665   2.404   8.134  0.0006 -0.1696 -0.0597
  529loPI   C5A 8459   0.392   2.502   7.730  0.0067  0.0242 -0.0173
  529loPI   C6A 8460   0.054   2.288   7.638 -0.0907  0.2757  0.1371
  529loPI   C1B 8461   0.869   2.857   9.319 -0.0236 -0.4470  0.0890
  529loPI   C2B 8462   0.856   2.879   8.847  0.2016  0.2044 -0.3003
  529loPI   C3B 8463   0.948   2.735   8.398 -0.0636  0.1322 -0.0356
  529loPI   C4B 8464   0.928   2.772   7.917  0.1868 -0.0588  0.0086
  530loPI    C1 8465   3.950  15.604   9.860 -0.2877 -0.0857  0.2340
  530loPI    C2 8466   4.087  15.969   9.773  0.0137 -0.2970 -0.2218
  530loPI    C3 8467   3.722  15.858   9.653  0.1215 -0.3164 -0.5406
  530loPI   PO4 8468   4.200  15.425   9.807 -0.0301  0.1215 -0.1641
  530loPI   GL1 8469   4.420  15.299   9.436 -0.2884 -0.2867 -0.0465
  530loPI   GL2 8470   4.723  15.269   9.625 -0.1047  0.4171 -0.0234
  530loPI   C1A 8471   4.280  15.411   8.965  0.0450 -0.0333 -0.3230
  530loPI   C2A 8472   4.202  15.478   8.540  0.1130  0.0177  0.0628
  530loPI   C3A 8473   4.157  15.509   8.065  0.2123  0.0667 -0.4946
  530loPI   C4A 8474   4.060  15.445   7.589 -0.1055 -0.2210  0.1939
  530loPI   C5A 8475   4.038  15.232   7.160 -0.1018 -0.0365  0.2923
  530loPI   C6A 8476   3.950  14.953   6.914 -0.3288 -0.0660  0.1482
  530loPI   C1B 8477   4.747  14.955   9.234  0.0248 -0.1437  0.0327
  530loPI   C2B 8478   4.501  14.977   8.819  0.1731 -0.1703  0.1559
  530loPI   C3B 8479   4.521  14.940   8.329 -0.1221 -0.0046  0.0711
  530loPI   C4B 8480   4.428  15.041   7.886  0.1286  0.1908 -0.4312
  531loPI    C1 8481   6.732   7.799  10.361  0.0396 -0.0130  0.0003
  531loPI    C2 8482   6.503   8.044  10.579  0.0939 -0.0644  0.1160
  531loPI    C3 8483   6.617   7.690  10.728  0.1490 -0.0910  0.0122
  531loPI   PO4 8484   6.813   7.998  10.196  0.0516 -0.0500 -0.1087
  531loPI   GL1 8485   6.743   8.238   9.925 -0.1836  0.1441  0.0272
  531loPI   GL2 8486   7.008   8.403   9.775 -0.1556 -0.1054  0.0314
  531loPI   C1A 8487   6.656   8.151   9.549  0.1320  0.0115 -0.1549
  531loPI   C2A 8488   6.672   8.094   9.146 -0.3216 -0.4630 -0.0899
  531loPI   C3A 8489   6.622   8.167   8.727 -0.3276 -0.1110 -0.1882
  531loPI   C4A 8490   6.737   8.494   8.437 -0.0574 -0.2321  0.0575
  531loPI   C5A 8491   6.732   8.559   7.926  0.1679 -0.5304 -0.2465
  531loPI   C6A 8492   6.640   8.590   7.471 -0.1540  0.1296 -0.0686
  531loPI   C1B 8493   7.113   8.205   9.385 -0.1419  0.0615  0.2643
  531loPI   C2B 8494   7.128   8.137   8.902 -0.2215 -0.0274  0.1542
  531loPI   C3B 8495   7.102   8.116   8.528 -0.1126 -0.1075 -0.0259
  531loPI   C4B 8496   7.044   8.152   8.005  0.1607 -0.0381 -0.1213
  532loPI    C1 8497   2.089  12.588  10.512  0.1454  0.1047 -0.2003
  532loPI    C2 8498   2.412  12.363  10.583  0.0821  0.0258 -0.1604
  532loPI    C3 8499   2.115  12.374  10.849 -0.0080 -0.0079 -0.2589
  532loPI   PO4 8500   1.978  12.552  10.224 -0.4271 -0.0490 -0.2945
  532loPI   GL1 8501   2.128  12.479   9.840  0.0284  0.2026 -0.1809
  532loPI   GL2 8502   1.789  12.579   9.718  0.1948 -0.1209  0.0396
  532loPI   C1A 8503   2.059  12.142   9.505 -0.0138  0.2021 -0.0929
  532loPI   C2A 8504   2.006  12.102   9.077  0.0666  0.1388  0.1496
  532loPI   C3A 8505   1.943  12.105   8.622  0.2851  0.0972 -0.1706
  532loPI   C4A 8506   1.994  12.075   8.217  0.0495  0.1738  0.1731
  532loPI   C5A 8507   1.803  12.275   7.756  0.1394  0.2053  0.2191
  532loPI   C6A 8508   1.667  12.591   7.512 -0.0480 -0.0033  0.2765
  532loPI   C1B 8509   1.775  12.630   9.295 -0.1954  0.0332  0.1431
  532loPI   C2B 8510   1.733  12.537   8.843 -0.1359 -0.2496 -0.0617
  532loPI   C3B 8511   1.681  12.517   8.430  0.1078  0.1662 -0.2177
  532loPI   C4B 8512   1.596  12.646   8.061 -0.2320  0.0281  0.1762
  533loPI    C1 8513   9.373   7.623  10.383 -0.1138 -0.0141  0.0092
  533loPI    C2 8514   9.048   7.551  10.605 -0.1618  0.1589 -0.0033
  533loPI    C3 8515   9.175   7.926  10.552  0.0534  0.0908  0.0188
  533loPI   PO4 8516   9.344   7.501  10.183 -0.0261 -0.0478 -0.1312
  533loPI   GL1 8517   9.148   7.476   9.827 -0.2072 -0.0743 -0.0437
  533loPI   GL2 8518   9.387   7.499   9.655 -0.0102  0.2018 -0.4341
  533loPI   C1A 8519   9.006   7.756   9.489 -0.0234  0.0276  0.2460
  533loPI   C2A 8520   9.034   7.928   9.058  0.0415  0.1304  0.0332
  533loPI   C3A 8521   8.883   7.849   8.706 -0.1220 -0.0924  0.1035
  533loPI   C4A 8522   9.042   7.795   8.300  0.0490 -0.2376 -0.0091
  533loPI   C5A 8523   9.063   7.797   7.865 -0.0745  0.0597 -0.1814
  533loPI   C6A 8524   9.367   7.721   7.429 -0.2746  0.3252 -0.2059
  533loPI   C1B 8525   9.363   7.398   9.271  0.1518 -0.3823 -0.0255
  533loPI   C2B 8526   9.192   7.422   8.829 -0.3200  0.1668  0.3034
  533loPI   C3B 8527   9.335   7.352   8.434  0.1842  0.0301 -0.0070
  533loPI   C4B 8528   9.327   7.432   8.022 -0.2414 -0.2060  0.0268
  534loPI    C1 8529   2.416   8.607  10.362  0.2897  0.1017  0.3251
  534loPI    C2 8530   2.510   8.223  10.420  0.2953  0.0583  0.0401
  534loPI    C3 8531   2.488   8.472  10.732  0.1671 -0.2002  0.2417
  534loPI   PO4 8532   2.291   8.645  10.137 -0.0442  0.2524 -0.0940
  534loPI   GL1 8533   2.126   8.514   9.760  0.0539 -0.0281 -0.2313
  534loPI   GL2 8534   1.790   8.442   9.889  0.1475 -0.4486  0.1632
  534loPI   C1A 8535   2.183   8.423   9.358 -0.1536  0.4134 -0.1704
  534loPI   C2A 8536   2.050   8.380   8.946  0.1632 -0.0071  0.0906
  534loPI   C3A 8537   1.977   8.427   8.564 -0.0626 -0.2780  0.4905
  534loPI   C4A 8538   2.144   8.327   8.083  0.4747 -0.1530  0.1614
  534loPI   C5A 8539   2.148   8.202   7.588 -0.0826 -0.0887  0.2365
  534loPI   C6A 8540   2.088   8.280   7.094 -0.0285  0.2439  0.0324
  534loPI   C1B 8541   1.633   8.419   9.517  0.0116  0.0314 -0.1389
  534loPI   C2B 8542   1.603   8.385   9.023  0.1078  0.0647  0.2441
  534loPI   C3B 8543   1.491   8.452   8.571  0.3096 -0.1137 -0.1226
  534loPI   C4B 8544   1.550   8.358   8.136 -0.3690  0.0038 -0.1412
  535loPI    C1 8545  15.191   3.944  10.792  0.0402  0.1681  0.0683
  535loPI    C2 8546  15.526   3.928  11.009  0.0494  0.0642  0.0468
  535loPI    C3 8547  15.178   4.016  11.185  0.0474 -0.0785  0.1155
  535loPI   PO4 8548  15.285   3.902  10.425  0.0818 -0.1197  0.4606
  535loPI   GL1 8549  15.254   4.066  10.027  0.4726 -0.0651 -0.1626
  535loPI   GL2 8550  15.546   4.189  10.138 -0.0298 -0.2363  0.0367
  535loPI   C1A 8551  15.290   3.981   9.507  0.0561  0.0407  0.0290
  535loPI   C2A 8552  15.314   3.976   9.033  0.0617  0.2492  0.2428
  535loPI   C3A 8553  15.282   3.991   8.641  0.3016  0.0858  0.0501
  535loPI   C4A 8554  15.552   3.873   8.219  0.1259  0.1406  0.2601
  535loPI   C5A 8555  15.870   3.730   8.037  0.1114  0.3696 -0.2270
  535loPI   C6A 8556  16.159   3.559   7.715 -0.0420  0.1206 -0.6693
  535loPI   C1B 8557  15.822   4.013   9.850  0.3346 -0.0230  0.0138
  535loPI   C2B 8558  15.706   3.976   9.337 -0.1201 -0.0386  0.3910
  535loPI   C3B 8559  15.829   4.088   9.011 -0.1121  0.3437  0.0112
  535loPI   C4B 8560  15.848   4.039   8.550 -0.3067 -0.0958 -0.1634
  536loPI    C1 8561   1.422   4.069  10.838 -0.1918  0.0132 -0.1382
  536loPI    C2 8562   1.755   4.085  11.059 -0.0377  0.0107 -0.3663
  536loPI    C3 8563   1.404   4.004  11.232  0.0950 -0.0889 -0.1391
  536loPI   PO4 8564   1.428   4.049  10.544  0.1716 -0.3010  0.1851
  536loPI   GL1 8565   1.568   4.375  10.129  0.2680  0.1074  0.1115
  536loPI   GL2 8566   1.270   4.591   9.983 -0.2419  0.0335 -0.0753
  536loPI   C1A 8567   1.592   4.218   9.725 -0.2683 -0.0334  0.0357
  536loPI   C2A 8568   1.573   4.211   9.292 -0.2052  0.2534 -0.1410
  536loPI   C3A 8569   1.559   4.240   8.823  0.1496  0.2713  0.1701
  536loPI   C4A 8570   1.549   4.349   8.387  0.2544  0.0233  0.2486
  536loPI   C5A 8571   1.745   4.235   7.866 -0.0822 -0.2659 -0.1226
  536loPI   C6A 8572   1.608   4.376   7.479 -0.0149 -0.0188  0.0668
  536loPI   C1B 8573   1.280   4.622   9.458 -0.0067  0.1486  0.1506
  536loPI   C2B 8574   1.262   4.745   9.044 -0.1358 -0.3033 -0.0150
  536loPI   C3B 8575   1.271   4.734   8.620  0.1556  0.0100  0.1769
  536loPI   C4B 8576   1.147   4.711   8.198 -0.3929  0.2748  0.0140
  537loPI    C1 8577   4.852  16.454  10.311 -0.0959 -0.1724 -0.2788
  537loPI    C2 8578   4.514  16.240  10.298 -0.1153 -0.1455 -0.2251
  537loPI    C3 8579   4.564  16.518  10.581 -0.0300 -0.1795 -0.2065
  537loPI   PO4 8580   4.946  16.508   9.969 -0.0977 -0.1475  0.2358
  537loPI   GL1 8581   5.146  16.645   9.597  0.1225 -0.0593  0.2639
  537loPI   GL2 8582   5.372  16.756   9.411  0.1430 -0.0865  0.1999
  537loPI   C1A 8583   5.199  16.438   9.128 -0.0098  0.2761 -0.0235
  537loPI   C2A 8584   5.235  16.400   8.728  0.1176  0.1047 -0.2944
  537loPI   C3A 8585   5.301  16.362   8.339 -0.0352 -0.0422 -0.0174
  537loPI   C4A 8586   5.214  16.313   7.884 -0.0223  0.0785  0.0893
  537loPI   C5A 8587   5.164  16.467   7.428  0.0773  0.0733  0.1651
  537loPI   C6A 8588   5.062  16.351   7.067  0.0660 -0.0798 -0.0623
  537loPI   C1B 8589   5.489  16.866   9.012  0.1615 -0.1606 -0.1109
  537loPI   C2B 8590   5.454  16.859   8.585 -0.0457  0.2281  0.0391
  537loPI   C3B 8591   5.501  16.891   8.179 -0.0486  0.1963  0.0434
  537loPI   C4B 8592   5.480  16.702   7.793  0.0027 -0.3772  0.3455
  538loPI    C1 8593   2.401  16.446  10.075 -0.1570 -0.0396  0.0644
  538loPI    C2 8594   2.685  16.699  10.201 -0.3254  0.1988 -0.0270
  538loPI    C3 8595   2.314  16.725  10.349 -0.2894 -0.1478  0.1334
  538loPI   PO4 8596   2.506  16.344   9.831  0.0832  0.0460 -0.2144
  538loPI   GL1 8597   2.547  16.271   9.369 -0.0934 -0.0719 -0.3202
  538loPI   GL2 8598   2.172  16.280   9.300  0.3077  0.0352 -0.1264
  538loPI   C1A 8599   2.539  16.271   8.957 -0.0806  0.1005  0.1547
  538loPI   C2A 8600   2.526  16.320   8.490  0.1246 -0.0530 -0.3143
  538loPI   C3A 8601   2.543  16.160   8.098 -0.0919 -0.3457  0.1178
  538loPI   C4A 8602   2.561  16.145   7.604  0.0108 -0.0144  0.0900
  538loPI   C5A 8603   2.784  15.960   7.202 -0.3978 -0.1126  0.0102
  538loPI   C6A 8604   3.152  16.128   6.994 -0.0358  0.1059 -0.0517
  538loPI   C1B 8605   2.026  16.292   8.979 -0.1459  0.2143 -0.2464
  538loPI   C2B 8606   2.061  16.362   8.442  0.0233 -0.0006  0.2610
  538loPI   C3B 8607   2.003  16.181   8.050  0.2434 -0.2099 -0.2478
  538loPI   C4B 8608   2.080  16.042   7.626 -0.3045 -0.1404 -0.0839
  539loPI    C1 8609   3.099   9.402  10.474 -0.0241 -0.0907  0.3116
  539loPI    C2 8610   3.031   9.239  10.833  0.0065  0.0656  0.3890
  539loPI    C3 8611   3.345   9.482  10.779 -0.0883  0.1688  0.2977
  539loPI   PO4 8612   3.150   9.323  10.278  0.0278  0.1100  0.0333
  539loPI   GL1 8613   3.296   9.433   9.855 -0.2983  0.3502 -0.2270
  539loPI   GL2 8614   3.589   9.204  10.101 -0.0130  0.0107  0.0914
  539loPI   C1A 8615   3.152   9.414   9.518 -0.0165  0.2074  0.1137
  539loPI   C2A 8616   3.240   9.364   9.062  0.0066 -0.0325  0.2540
  539loPI   C3A 8617   3.064   9.330   8.651  0.1192  0.0618  0.1643
  539loPI   C4A 8618   3.046   9.311   8.241  0.1738  0.0401  0.0058
  539loPI   C5A 8619   3.028   9.211   7.824 -0.0414  0.4556  0.0040
  539loPI   C6A 8620   3.007   9.235   7.445  0.1928  0.0237 -0.2671
  539loPI   C1B 8621   3.542   9.015   9.714 -0.0139 -0.2374  0.2124
  539loPI   C2B 8622   3.525   9.025   9.269  0.1236  0.3458 -0.2040
  539loPI   C3B 8623   3.430   8.914   8.841  0.0180  0.0809 -0.0917
  539loPI   C4B 8624   3.254   8.904   8.287  0.0052  0.0740 -0.1076
  540loPI    C1 8625  14.504   9.165  10.514 -0.1555 -0.0720 -0.1535
  540loPI    C2 8626  14.169   9.211  10.727  0.0399 -0.1008  0.1658
  540loPI    C3 8627  14.427   8.919  10.820  0.1190 -0.1266 -0.1254
  540loPI   PO4 8628  14.410   9.453  10.333  0.2315 -0.0927 -0.0998
  540loPI   GL1 8629  14.301   9.467   9.899 -0.1122 -0.0628  0.0891
  540loPI   GL2 8630  14.005   9.463   9.900  0.1737  0.0394  0.3109
  540loPI   C1A 8631  14.343   9.472   9.531 -0.0059  0.0127 -0.0936
  540loPI   C2A 8632  14.364   9.603   9.101 -0.1722  0.1518 -0.0360
  540loPI   C3A 8633  14.404   9.505   8.636 -0.1520 -0.3872  0.0912
  540loPI   C4A 8634  14.500   9.706   8.250  0.1897 -0.0843 -0.3483
  540loPI   C5A 8635  14.237   9.548   7.853  0.0245 -0.3991 -0.3165
  540loPI   C6A 8636  13.887   9.242   7.781  0.0001 -0.2602 -0.0092
  540loPI   C1B 8637  14.060   9.850   9.633  0.0514 -0.1973 -0.0912
  540loPI   C2B 8638  13.973  10.058   9.344  0.0528 -0.0185 -0.1120
  540loPI   C3B 8639  14.105   9.972   9.001 -0.0400  0.0681 -0.0168
  540loPI   C4B 8640  14.191   9.997   8.605 -0.1121 -0.2415  0.0232
  541loPI    C1 8641   6.651   7.274  10.366  0.1350 -0.1762 -0.0675
  541loPI    C2 8642   6.845   6.964  10.527  0.0016  0.0126  0.4766
  541loPI    C3 8643   6.539   7.131  10.722 -0.3942  0.0376 -0.1387
  541loPI   PO4 8644   6.640   7.236  10.109  0.4441  0.0697  0.1133
  541loPI   GL1 8645   6.692   7.400   9.747  0.0941  0.1076 -0.3782
  541loPI   GL2 8646   6.606   7.723   9.845 -0.0763 -0.2944 -0.0746
  541loPI   C1A 8647   6.669   7.343   9.401 -0.1070  0.1568  0.3547
  541loPI   C2A 8648   6.585   7.293   8.994 -0.0767 -0.2301  0.1732
  541loPI   C3A 8649   6.686   7.245   8.552  0.0925 -0.4033 -0.0342
  541loPI   C4A 8650   6.530   7.277   8.255 -0.0887  0.0298  0.2553
  541loPI   C5A 8651   6.687   7.258   7.708 -0.1132  0.2269  0.0390
  541loPI   C6A 8652   6.775   6.947   7.486  0.0963 -0.1277 -0.1677
  541loPI   C1B 8653   6.349   7.757   9.554  0.0474 -0.2186 -0.0075
  541loPI   C2B 8654   6.377   7.738   9.137  0.3547 -0.0199 -0.0949
  541loPI   C3B 8655   6.427   7.661   8.668 -0.0277 -0.0870 -0.0201
  541loPI   C4B 8656   6.263   7.692   8.375  0.0800 -0.0238 -0.0612
  542loPI    C1 8657   4.522   1.807  10.230 -0.1540  0.1002 -0.1111
  542loPI    C2 8658   4.465   2.176  10.088  0.1684  0.1553 -0.1052
  542loPI    C3 8659   4.728   2.115  10.383 -0.1112 -0.0354  0.1092
  542loPI   PO4 8660   4.591   1.613  10.018  0.3230  0.2496 -0.1913
  542loPI   GL1 8661   4.471   1.517   9.615 -0.4828 -0.1080  0.4111
  542loPI   GL2 8662   4.602   1.319   9.552  0.1722  0.0718  0.0885
  542loPI   C1A 8663   4.353   1.654   9.113  0.0364 -0.1372 -0.1128
  542loPI   C2A 8664   4.261   1.749   8.624  0.1876 -0.3532  0.2395
  542loPI   C3A 8665   4.289   1.620   8.246  0.2615 -0.3819 -0.1557
  542loPI   C4A 8666   4.303   1.480   7.768 -0.3381 -0.2709  0.0024
  542loPI   C5A 8667   3.914   1.460   7.473 -0.2047  0.1108  0.2722
  542loPI   C6A 8668   3.547   1.633   7.517 -0.1398  0.3543  0.1133
  542loPI   C1B 8669   4.693   1.268   9.169 -0.2606 -0.2700  0.1161
  542loPI   C2B 8670   4.595   1.255   8.674 -0.0425 -0.0299  0.0673
  542loPI   C3B 8671   4.551   1.219   8.248  0.2502 -0.1136 -0.2331
  542loPI   C4B 8672   4.559   1.064   7.786  0.2269  0.0607  0.1980
  543loPI    C1 8673   3.383   7.437  10.623 -0.2482  0.1154 -0.3276
  543loPI    C2 8674   3.670   7.233  10.433  0.1019  0.0026  0.2921
  543loPI    C3 8675   3.763   7.563  10.639 -0.2747  0.1515  0.2318
  543loPI   PO4 8676   3.189   7.471  10.397  0.4965  0.1400  0.0833
  543loPI   GL1 8677   3.329   7.470  10.003  0.0916  0.2388 -0.1391
  543loPI   GL2 8678   3.573   7.355   9.874  0.0420  0.0449 -0.2673
  543loPI   C1A 8679   3.193   7.540   9.511  0.2573  0.3805 -0.0372
  543loPI   C2A 8680   3.309   7.449   9.093  0.0275  0.0757 -0.2989
  543loPI   C3A 8681   3.199   7.551   8.671  0.1334 -0.1518  0.1098
  543loPI   C4A 8682   3.095   7.572   8.162  0.0438  0.2462 -0.4435
  543loPI   C5A 8683   2.952   7.467   7.819  0.3072  0.0796 -0.1090
  543loPI   C6A 8684   3.109   7.072   7.586  0.1887  0.0450  0.3337
  543loPI   C1B 8685   3.770   7.470   9.449 -0.0331 -0.0399  0.2000
  543loPI   C2B 8686   3.790   7.493   8.981  0.0410  0.1396  0.0069
  543loPI   C3B 8687   3.757   7.539   8.605  0.4042  0.3160 -0.0616
  543loPI   C4B 8688   3.661   7.532   8.171  0.0393 -0.0050  0.2915
  544loPI    C1 8689  10.836   8.870   9.994  0.1785 -0.1336 -0.1117
  544loPI    C2 8690  10.625   9.079  10.262  0.2329 -0.0860 -0.1058
  544loPI    C3 8691  10.959   9.234  10.105  0.1622 -0.0834 -0.2561
  544loPI   PO4 8692  10.608   8.808   9.777 -0.0891  0.3499  0.1471
  544loPI   GL1 8693  10.761   8.810   9.407  0.2060  0.0978  0.0053
  544loPI   GL2 8694  10.640   8.988   9.269 -0.0113 -0.1101 -0.3650
  544loPI   C1A 8695  11.059   8.855   9.010 -0.1686  0.1170 -0.3012
  544loPI   C2A 8696  11.145   8.917   8.616  0.4597  0.1880 -0.1623
  544loPI   C3A 8697  11.051   8.935   8.176 -0.0462  0.1649 -0.0035
  544loPI   C4A 8698  11.127   9.001   7.762 -0.3935  0.1651 -0.1772
  544loPI   C5A 8699  11.225   9.138   7.322 -0.0414  0.3491 -0.0883
  544loPI   C6A 8700  11.358   9.387   6.987  0.1270  0.2099  0.1805
  544loPI   C1B 8701  10.620   8.936   8.829  0.0978 -0.0346  0.1597
  544loPI   C2B 8702  10.580   8.805   8.389  0.2293 -0.1188  0.3148
  544loPI   C3B 8703  10.572   8.865   7.916  0.0732  0.0625  0.1863
  544loPI   C4B 8704  10.719   9.144   7.575  0.0888 -0.1564 -0.0144
  545loPI    C1 8705  10.614   7.421  10.378 -0.0980  0.2114 -0.0669
  545loPI    C2 8706  11.000   7.372  10.471 -0.0062  0.4618 -0.3031
  545loPI    C3 8707  10.716   7.236  10.718  0.2298 -0.0457 -0.2986
  545loPI   PO4 8708  10.643   7.504  10.064  0.1187 -0.0322  0.3287
  545loPI   GL1 8709  10.591   7.121   9.729 -0.3263 -0.0527 -0.3277
  545loPI   GL2 8710  10.908   7.032   9.956  0.0372 -0.2365 -0.0436
  545loPI   C1A 8711  10.553   6.957   9.356 -0.0514  0.2011 -0.0714
  545loPI   C2A 8712  10.590   7.021   8.964 -0.0211 -0.1697  0.1846
  545loPI   C3A 8713  10.643   7.056   8.534  0.3050 -0.3574  0.2394
  545loPI   C4A 8714  10.742   6.970   8.162  0.0592 -0.2965 -0.3044
  545loPI   C5A 8715  10.942   7.077   7.915 -0.3429  0.2254  0.2061
  545loPI   C6A 8716  11.352   6.831   7.654  0.3532 -0.1483  0.1301
  545loPI   C1B 8717  11.023   6.977   9.529 -0.3058  0.4250  0.0634
  545loPI   C2B 8718  11.157   6.996   9.168 -0.3249 -0.0791  0.1268
  545loPI   C3B 8719  11.139   7.120   8.774 -0.1161  0.3921  0.0350
  545loPI   C4B 8720  11.175   7.156   8.368 -0.2817  0.2375  0.0306
  546loPI    C1 8721   3.462   0.447  10.005 -0.0505 -0.1713 -0.3986
  546loPI    C2 8722   3.637   0.150  10.210 -0.0232 -0.0789 -0.2871
  546loPI    C3 8723   3.860   0.403   9.994  0.0016  0.1431 -0.0075
  546loPI   PO4 8724   3.230   0.333   9.967  0.0393 -0.0610 -0.1790
  546loPI   GL1 8725   3.150  -0.013   9.684  0.2126 -0.0234  0.0906
  546loPI   GL2 8726   3.295  -0.218   9.564 -0.1231  0.3536 -0.0901
  546loPI   C1A 8727   3.040   0.210   9.375 -0.1116  0.1360  0.2410
  546loPI   C2A 8728   2.982   0.315   9.008 -0.1886 -0.2902  0.0753
  546loPI   C3A 8729   3.011   0.195   8.598  0.0992 -0.1126 -0.3016
  546loPI   C4A 8730   3.036   0.238   8.167  0.1212  0.1303 -0.3010
  546loPI   C5A 8731   3.000   0.170   7.699  0.0122  0.2620 -0.1336
  546loPI   C6A 8732   3.318   0.222   7.431  0.1128 -0.3549 -0.1501
  546loPI   C1B 8733   3.209  -0.256   9.215  0.0906 -0.0995 -0.0679
  546loPI   C2B 8734   3.310  -0.170   8.793 -0.3469 -0.0294 -0.3765
  546loPI   C3B 8735   3.215  -0.220   8.396  0.2664  0.0209 -0.2350
  546loPI   C4B 8736   3.237  -0.253   7.942  0.1198 -0.0534 -0.0512
  547loPI    C1 8737   0.119  14.996  10.441 -0.2080  0.1717  0.0275
  547loPI    C2 8738   0.092  14.807  10.792  0.0399 -0.1280 -0.1108
  547loPI    C3 8739   0.413  15.031  10.711 -0.1916  0.2520 -0.0004
  547loPI   PO4 8740   0.101  14.897  10.283  0.0963  0.0951 -0.4105
  547loPI   GL1 8741  -0.095  14.896   9.905  0.1700 -0.0659  0.0056
  547loPI   GL2 8742   0.142  15.107   9.856  0.1507 -0.0521  0.2395
  547loPI   C1A 8743  -0.215  14.744   9.496 -0.2836 -0.0106 -0.0583
  547loPI   C2A 8744  -0.268  14.775   9.100 -0.2388 -0.0348 -0.3717
  547loPI   C3A 8745  -0.257  14.774   8.655  0.2419  0.0320  0.0003
  547loPI   C4A 8746  -0.179  14.663   8.138  0.3702 -0.4049  0.3544
  547loPI   C5A 8747  -0.316  14.840   7.840  0.2257  0.0920  0.0214
  547loPI   C6A 8748  -0.334  14.882   7.428  0.0766 -0.2364  0.0476
  547loPI   C1B 8749   0.059  15.169   9.410  0.1637  0.6493 -0.1957
  547loPI   C2B 8750   0.054  15.192   8.979 -0.1722  0.0783  0.1738
  547loPI   C3B 8751   0.037  15.208   8.527 -0.1245  0.1721  0.0976
  547loPI   C4B 8752  -0.071  15.220   8.084 -0.0872 -0.1122 -0.1680
  548loPI    C1 8753  12.360  13.951  10.209 -0.0805  0.0659 -0.0023
  548loPI    C2 8754  12.592  13.913  10.532  0.0090 -0.0434 -0.0785
  548loPI    C3 8755  12.306  13.643  10.458  0.0894 -0.1034 -0.1718
  548loPI   PO4 8756  12.525  14.216  10.117  0.1091 -0.0620 -0.0060
  548loPI   GL1 8757  12.883  14.305   9.877 -0.1077  0.2488  0.1447
  548loPI   GL2 8758  12.826  14.027   9.614 -0.2020  0.1645 -0.2183
  548loPI   C1A 8759  12.974  14.536   9.503  0.0768 -0.3416 -0.1075
  548loPI   C2A 8760  12.903  14.475   9.131 -0.5642 -0.1054 -0.3198
  548loPI   C3A 8761  12.790  14.374   8.654 -0.0223 -0.3642  0.2161
  548loPI   C4A 8762  12.728  14.384   8.269  0.0598 -0.2328  0.0284
  548loPI   C5A 8763  12.331  14.408   8.135  0.3030  0.0661 -0.0272
  548loPI   C6A 8764  12.048  14.107   7.898 -0.0778  0.2405  0.2562
  548loPI   C1B 8765  12.700  13.993   9.199 -0.1444  0.2371 -0.0082
  548loPI   C2B 8766  12.625  13.842   8.865  0.2667 -0.1120 -0.2337
  548loPI   C3B 8767  12.509  14.016   8.419 -0.1026 -0.0623 -0.0755
  548loPI   C4B 8768  12.596  14.058   7.903  0.1954  0.1302 -0.2766
  549loPI    C1 8769   5.934  11.260  10.320  0.3326  0.1254  0.1992
  549loPI    C2 8770   5.776  10.989  10.568 -0.3660  0.2214 -0.1182
  549loPI    C3 8771   5.860  11.357  10.701 -0.4907  0.1943  0.0392
  549loPI   PO4 8772   5.894  11.274  10.124 -0.2351  0.0610 -0.4144
  549loPI   GL1 8773   5.994  11.413   9.716 -0.0308 -0.2456 -0.3903
  549loPI   GL2 8774   6.230  11.384   9.585 -0.1470 -0.0611 -0.1728
  549loPI   C1A 8775   5.758  11.479   9.364 -0.3768  0.1171 -0.0869
  549loPI   C2A 8776   5.651  11.438   8.946 -0.0616 -0.3110  0.2442
  549loPI   C3A 8777   5.725  11.262   8.563 -0.1281 -0.1168  0.0864
  549loPI   C4A 8778   5.669  11.218   8.099  0.1400 -0.3691  0.0444
  549loPI   C5A 8779   5.745  11.152   7.675 -0.2071 -0.0394  0.0095
  549loPI   C6A 8780   5.975  11.313   7.395 -0.0321  0.0521 -0.1383
  549loPI   C1B 8781   6.213  11.370   9.179  0.0882  0.2214  0.2308
  549loPI   C2B 8782   6.212  11.288   8.718  0.3217 -0.1342  0.0957
  549loPI   C3B 8783   6.201  11.147   8.240  0.1228 -0.1415 -0.1921
  549loPI   C4B 8784   6.228  11.266   7.863  0.1913 -0.1775  0.0029
  550loPI    C1 8785  14.606  15.340  10.498 -0.1579 -0.0570 -0.2988
  550loPI    C2 8786  14.635  15.565  10.828 -0.0247 -0.1056 -0.2768
  550loPI    C3 8787  14.302  15.355  10.758 -0.1500  0.0976 -0.2978
  550loPI   PO4 8788  14.649  15.522  10.340 -0.3594  0.0946  0.0135
  550loPI   GL1 8789  14.858  15.582   9.949 -0.1489 -0.1480 -0.0749
  550loPI   GL2 8790  14.507  15.610   9.882  0.1063  0.2350 -0.2641
  550loPI   C1A 8791  15.003  15.342   9.596 -0.1298 -0.3383  0.2067
  550loPI   C2A 8792  14.937  15.413   9.218  0.3506  0.0075 -0.1268
  550loPI   C3A 8793  15.018  15.444   8.821  0.0028  0.0388 -0.2121
  550loPI   C4A 8794  14.903  15.568   8.514  0.2555  0.0249  0.1927
  550loPI   C5A 8795  14.855  15.507   8.100 -0.4020 -0.2100 -0.0374
  550loPI   C6A 8796  15.197  15.380   7.884 -0.1482 -0.0278  0.0100
  550loPI   C1B 8797  14.501  15.445   9.517  0.3778  0.0101 -0.0608
  550loPI   C2B 8798  14.465  15.417   9.126  0.1297  0.0625  0.1927
  550loPI   C3B 8799  14.394  15.359   8.726 -0.1796 -0.0225  0.1466
  550loPI   C4B 8800  14.352  15.462   8.402  0.0869 -0.0628  0.2739
  551loPI    C1 8801   1.613  16.025  10.054  0.1280 -0.2099  0.1693
  551loPI    C2 8802   1.462  15.858  10.385  0.1746 -0.3739  0.1089
  551loPI    C3 8803   1.836  16.001  10.386  0.1269 -0.2476  0.1674
  551loPI   PO4 8804   1.550  15.867   9.822 -0.1910  0.0281 -0.0649
  551loPI   GL1 8805   1.823  15.905   9.484  0.2743  0.0440  0.2374
  551loPI   GL2 8806   1.681  16.200   9.502 -0.2858 -0.2094  0.0002
  551loPI   C1A 8807   1.775  15.799   9.112 -0.0813  0.1931  0.2577
  551loPI   C2A 8808   1.784  15.700   8.585  0.1512 -0.1797 -0.0162
  551loPI   C3A 8809   1.740  15.720   8.192 -0.1315  0.2583  0.0124
  551loPI   C4A 8810   1.882  15.605   7.801 -0.2107  0.0408  0.5109
  551loPI   C5A 8811   1.699  15.691   7.438  0.0403 -0.2235 -0.2604
  551loPI   C6A 8812   1.700  15.518   7.082 -0.1316 -0.2689 -0.1074
  551loPI   C1B 8813   1.485  16.188   9.027 -0.1869 -0.1272  0.0784
  551loPI   C2B 8814   1.562  16.159   8.609  0.2284 -0.0896 -0.1392
  551loPI   C3B 8815   1.526  16.275   8.138 -0.0244  0.1696 -0.2298
  551loPI   C4B 8816   1.564  16.117   7.786 -0.0468 -0.2712  0.3535
  552loPI    C1 8817  16.687  16.838  10.602  0.3983 -0.1181  0.2037
  552loPI    C2 8818  16.532  16.542  10.822 -0.3019  0.0858  0.0088
  552loPI    C3 8819  16.746  16.831  10.998  0.0471 -0.3112  0.2560
  552loPI   PO4 8820  16.487  16.715  10.309  0.0540  0.3502  0.1754
  552loPI   GL1 8821  16.330  16.749   9.867 -0.1315  0.0991 -0.0773
  552loPI   GL2 8822  16.418  16.380   9.955 -0.3023  0.3129 -0.0003
  552loPI   C1A 8823  16.336  16.797   9.407  0.0172  0.0274  0.0856
  552loPI   C2A 8824  16.306  16.854   9.004  0.0046 -0.0842 -0.0177
  552loPI   C3A 8825  16.193  16.850   8.648  0.0377  0.3336  0.1352
  552loPI   C4A 8826  16.351  16.877   8.258  0.0185  0.2654  0.0537
  552loPI   C5A 8827  16.349  16.929   7.903  0.2775  0.1914  0.0964
  552loPI   C6A 8828  15.842  17.067   7.789  0.1150 -0.0424 -0.0614
  552loPI   C1B 8829  16.586  16.406   9.530 -0.1079 -0.1512 -0.3535
  552loPI   C2B 8830  16.592  16.416   9.093 -0.0350 -0.1387 -0.1683
  552loPI   C3B 8831  16.524  16.483   8.653 -0.1548  0.3104  0.1020
  552loPI   C4B 8832  16.470  16.397   8.140  0.1518  0.0635 -0.2159
  553loPI    C1 8833   7.528  14.499   9.668 -0.2093 -0.0950  0.1346
  553loPI    C2 8834   7.699  14.861   9.664  0.0383 -0.2103 -0.1318
  553loPI    C3 8835   7.466  14.753   9.971 -0.0711  0.1871 -0.0685
  553loPI   PO4 8836   7.385  14.438   9.408  0.3357  0.0481 -0.0203
  553loPI   GL1 8837   7.314  14.697   9.037 -0.1830  0.2329 -0.4526
  553loPI   GL2 8838   7.104  14.471   8.897 -0.0148  0.0267  0.1433
  553loPI   C1A 8839   7.306  14.901   8.686  0.0528 -0.0644 -0.3031
  553loPI   C2A 8840   7.358  14.963   8.338 -0.2320 -0.1698 -0.0791
  553loPI   C3A 8841   7.289  15.096   7.920 -0.0342 -0.4396 -0.3665
  553loPI   C4A 8842   7.034  15.085   7.710  0.0283 -0.0093 -0.1673
  553loPI   C5A 8843   6.851  15.201   7.337 -0.0820  0.0826  0.0201
  553loPI   C6A 8844   6.907  15.392   6.966  0.1822 -0.1137  0.1438
  553loPI   C1B 8845   7.086  14.528   8.448 -0.0605 -0.0323  0.3928
  553loPI   C2B 8846   6.911  14.525   8.042 -0.0714 -0.1641 -0.1535
  553loPI   C3B 8847   6.925  14.603   7.594 -0.2791  0.1861  0.1426
  553loPI   C4B 8848   6.960  14.745   7.136  0.0046  0.0150 -0.2713
  554loPI    C1 8849   8.417   2.448  10.613  0.0694  0.2317  0.1425
  554loPI    C2 8850   8.532   2.080  10.717  0.0855  0.1557 -0.1378
  554loPI    C3 8851   8.449   2.350  11.000 -0.1237 -0.1232  0.0726
  554loPI   PO4 8852   8.562   2.334  10.234  0.4171  0.2751  0.0811
  554loPI   GL1 8853   8.483   2.040   9.914  0.2867  0.0038  0.5002
  554loPI   GL2 8854   8.719   2.075   9.665 -0.2205 -0.0381 -0.0489
  554loPI   C1A 8855   8.207   2.198   9.569  0.1684  0.3111  0.0352
  554loPI   C2A 8856   8.132   2.328   9.203  0.2520  0.0349 -0.0046
  554loPI   C3A 8857   8.218   2.238   8.706 -0.2201  0.1091  0.0708
  554loPI   C4A 8858   8.227   2.227   8.286 -0.0966 -0.0376 -0.0432
  554loPI   C5A 8859   8.154   2.391   7.937  0.1862  0.0604 -0.2225
  554loPI   C6A 8860   8.326   2.461   7.460 -0.0985  0.1814  0.0894
  554loPI   C1B 8861   8.788   2.225   9.214 -0.3205  0.0848 -0.0562
  554loPI   C2B 8862   8.696   2.257   8.777  0.0869 -0.2490  0.0516
  554loPI   C3B 8863   8.765   2.272   8.331 -0.0537 -0.3768  0.0372
  554loPI   C4B 8864   8.810   2.365   7.851  0.2686 -0.0575 -0.0545
  555loPI    C1 8865  10.676  18.589  10.619  0.0178  0.0056  0.0497
  555loPI    C2 8866  10.654  18.855  10.917  0.2057  0.0947 -0.0146
  555loPI    C3 8867  10.635  18.463  10.997  0.0451  0.1233  0.0923
  555loPI   PO4 8868  10.880  18.669  10.416 -0.2060 -0.2568  0.2140
  555loPI   GL1 8869  10.923  18.662   9.996 -0.2112 -0.2231  0.0075
  555loPI   GL2 8870  10.993  18.504   9.802 -0.0747  0.0015  0.0217
  555loPI   C1A 8871  11.073  18.945   9.667 -0.1498  0.1502  0.2699
  555loPI   C2A 8872  11.093  18.806   9.258  0.0972 -0.1090 -0.0431
  555loPI   C3A 8873  11.132  18.862   8.823  0.1022  0.2654  0.1686
  555loPI   C4A 8874  11.207  18.963   8.405  0.1896  0.0997 -0.3193
  555loPI   C5A 8875  11.394  18.595   8.079  0.1628  0.2324 -0.1575
  555loPI   C6A 8876  11.457  18.449   7.635  0.0893  0.4200  0.1450
  555loPI   C1B 8877  11.342  18.465   9.637 -0.1985  0.2902  0.2214
  555loPI   C2B 8878  11.407  18.450   9.296  0.1947 -0.0683  0.3131
  555loPI   C3B 8879  11.344  18.421   8.921  0.1689  0.0631 -0.0504
  555loPI   C4B 8880  11.418  18.513   8.599  0.5553 -0.1440 -0.0848
  556loPI    C1 8881  17.066   6.557  11.098 -0.0787 -0.1193 -0.0278
  556loPI    C2 8882  16.705   6.464  11.242 -0.0655 -0.2776 -0.0950
  556loPI    C3 8883  16.795   6.845  11.161 -0.1180 -0.2017  0.1909
  556loPI   PO4 8884  17.241   6.418  10.778 -0.0112  0.1847  0.0704
  556loPI   GL1 8885  17.193   6.155  10.418  0.0698 -0.2021 -0.1993
  556loPI   GL2 8886  17.006   6.118  10.155 -0.0572  0.1245 -0.1330
  556loPI   C1A 8887  17.342   6.408   9.997  0.0265  0.0326  0.0722
  556loPI   C2A 8888  17.375   6.377   9.455  0.3131  0.0191  0.2890
  556loPI   C3A 8889  17.465   6.345   8.989 -0.2713 -0.2681 -0.2881
  556loPI   C4A 8890  17.493   6.330   8.522 -0.2176  0.1741 -0.0422
  556loPI   C5A 8891  17.309   6.291   8.037 -0.1602 -0.1349 -0.1745
  556loPI   C6A 8892  17.414   6.086   7.677 -0.2199  0.0127 -0.0311
  556loPI   C1B 8893  17.225   5.939   9.773  0.0060  0.0098 -0.3099
  556loPI   C2B 8894  17.271   5.903   9.358 -0.0105 -0.0698 -0.0998
  556loPI   C3B 8895  17.372   5.833   8.901 -0.4497 -0.1530  0.3092
  556loPI   C4B 8896  17.257   5.807   8.529  0.1251 -0.0799 -0.0339
  557loPI    C1 8897   7.976  11.646   9.903  0.2090  0.1989 -0.1172
  557loPI    C2 8898   7.943  11.765  10.283 -0.1060 -0.0083 -0.0757
  557loPI    C3 8899   8.300  11.660  10.137  0.0293  0.1427  0.1398
  557loPI   PO4 8900   7.852  11.731   9.751 -0.3348  0.1423  0.3199
  557loPI   GL1 8901   7.690  11.590   9.382 -0.1962 -0.2044  0.1385
  557loPI   GL2 8902   7.993  11.679   9.163  0.0068  0.1616 -0.0998
  557loPI   C1A 8903   7.366  11.458   8.942  0.0398 -0.1649  0.1753
  557loPI   C2A 8904   7.279  11.262   8.602  0.0374 -0.1631 -0.0533
  557loPI   C3A 8905   7.275  11.277   8.193 -0.0259  0.1131  0.0758
  557loPI   C4A 8906   7.440  11.037   7.809 -0.3202 -0.0863  0.1270
  557loPI   C5A 8907   7.802  11.034   7.593  0.1706 -0.0701 -0.0576
  557loPI   C6A 8908   7.917  11.427   7.364 -0.0953 -0.2887 -0.1406
  557loPI   C1B 8909   7.809  11.473   8.829  0.1693  0.0680  0.0216
  557loPI   C2B 8910   7.810  11.478   8.436  0.0246  0.1286 -0.1939
  557loPI   C3B 8911   7.865  11.517   7.974 -0.4364 -0.0012 -0.1730
  557loPI   C4B 8912   7.984  11.929   7.797  0.2590 -0.0442  0.4261
  558loPI    C1 8913   0.877   0.225  10.376  0.0418 -0.0379 -0.0819
  558loPI    C2 8914   0.964  -0.008  10.689 -0.2706 -0.0018  0.0348
  558loPI    C3 8915   1.010   0.389  10.715 -0.0598 -0.0194 -0.0507
  558loPI   PO4 8916   0.807   0.171  10.165  0.4237  0.3033 -0.0978
  558loPI   GL1 8917   0.929   0.310   9.805 -0.1208  0.2510 -0.1827
  558loPI   GL2 8918   0.991   0.087   9.658  0.1079 -0.0446 -0.0858
  558loPI   C1A 8919   0.714   0.625   9.583 -0.0461 -0.0517 -0.1745
  558loPI   C2A 8920   0.740   0.557   9.198 -0.0782 -0.2832  0.0768
  558loPI   C3A 8921   0.656   0.504   8.800 -0.2460  0.0805 -0.1785
  558loPI   C4A 8922   0.630   0.598   8.393 -0.2854  0.0567  0.2093
  558loPI   C5A 8923   0.516   0.477   8.026 -0.1183  0.0939  0.2023
  558loPI   C6A 8924   0.745   0.543   7.655 -0.4167 -0.0797 -0.2744
  558loPI   C1B 8925   1.079   0.071   9.245  0.0676  0.0990 -0.0340
  558loPI   C2B 8926   0.973   0.131   8.761  0.1237  0.3329 -0.3956
  558loPI   C3B 8927   0.938   0.143   8.352 -0.1315  0.1536 -0.1470
  558loPI   C4B 8928   0.961  -0.024   7.922  0.0209  0.0145 -0.0410
  559loPI    C1 8929   9.935   9.320   9.914  0.0670 -0.0378 -0.1895
  559loPI    C2 8930  10.268   9.103   9.866  0.0576 -0.1003  0.0200
  559loPI    C3 8931  10.003   9.004  10.149 -0.0506  0.0587 -0.0243
  559loPI   PO4 8932   9.785   9.404   9.683  0.1791 -0.0859 -0.0794
  559loPI   GL1 8933   9.996   9.280   9.328  0.0130 -0.0250  0.2387
  559loPI   GL2 8934  10.229   9.345   9.456 -0.3158 -0.5279 -0.1789
  559loPI   C1A 8935  10.123   9.048   9.043 -0.0828 -0.1391  0.0645
  559loPI   C2A 8936  10.166   8.823   8.832  0.0067  0.3257  0.0864
  559loPI   C3A 8937  10.021   8.784   8.371 -0.0163  0.3194 -0.3508
  559loPI   C4A 8938   9.973   8.853   8.009 -0.1863  0.1201 -0.1016
  559loPI   C5A 8939  10.107   9.215   7.691  0.0403 -0.2896  0.1306
  559loPI   C6A 8940   9.880   9.340   7.253 -0.0233 -0.0197  0.2082
  559loPI   C1B 8941  10.387   9.431   8.984 -0.2553  0.1361  0.1019
  559loPI   C2B 8942  10.344   9.250   8.567  0.1342 -0.0405 -0.1742
  559loPI   C3B 8943  10.359   9.241   8.171  0.0793 -0.1842 -0.0912
  559loPI   C4B 8944  10.474   9.524   7.832  0.0997 -0.3129  0.2206
  560loPI    C1 8945  16.690   8.851  10.858  0.1489 -0.0219 -0.1446
  560loPI    C2 8946  16.747   9.241  10.788  0.0129  0.0302  0.0262
  560loPI    C3 8947  16.412   9.118  10.968 -0.0339 -0.1858 -0.2026
  560loPI   PO4 8948  16.802   8.755  10.573 -0.2414 -0.1890 -0.0212
  560loPI   GL1 8949  17.001   8.799  10.280 -0.0154  0.3119 -0.2104
  560loPI   GL2 8950  16.965   9.061  10.223  0.2700  0.3360 -0.1641
  560loPI   C1A 8951  17.008   8.793   9.754 -0.3527 -0.2372  0.2259
  560loPI   C2A 8952  16.936   8.772   9.374 -0.2901 -0.0433  0.2016
  560loPI   C3A 8953  17.018   8.674   8.813 -0.0764  0.0650 -0.0163
  560loPI   C4A 8954  17.167   8.628   8.361 -0.0119  0.1120  0.0975
  560loPI   C5A 8955  16.879   8.784   8.078 -0.1023 -0.2357  0.3334
  560loPI   C6A 8956  16.478   9.041   7.966 -0.0006  0.1788  0.3459
  560loPI   C1B 8957  16.871   9.204   9.930 -0.0935  0.0411 -0.0528
  560loPI   C2B 8958  16.653   9.115   9.497 -0.0871 -0.0268  0.3082
  560loPI   C3B 8959  16.687   9.212   9.109  0.1356  0.0416 -0.0324
  560loPI   C4B 8960  16.748   9.218   8.692 -0.0465 -0.1614 -0.1535
  561loPI    C1 8961   1.732   8.077  10.346  0.0454  0.0629  0.1045
  561loPI    C2 8962   2.089   8.159  10.184  0.0270 -0.0861 -0.0140
  561loPI    C3 8963   1.921   8.418  10.439  0.1006  0.1065 -0.1584
  561loPI   PO4 8964   1.752   7.808  10.384 -0.1582  0.0333 -0.1438
  561loPI   GL1 8965   2.014   7.600  10.054 -0.0511 -0.0207 -0.1550
  561loPI   GL2 8966   2.189   7.524   9.899  0.0663 -0.1531  0.0458
  561loPI   C1A 8967   1.839   7.924   9.768  0.0061  0.1860  0.0890
  561loPI   C2A 8968   1.819   7.931   9.276 -0.1100  0.0079  0.1553
  561loPI   C3A 8969   1.893   7.855   8.845  0.1500  0.0897 -0.0291
  561loPI   C4A 8970   1.806   7.977   8.379 -0.2001 -0.4714  0.2822
  561loPI   C5A 8971   1.758   7.916   7.965 -0.2559 -0.3046  0.3040
  561loPI   C6A 8972   1.532   7.581   7.678 -0.1033 -0.3078  0.3010
  561loPI   C1B 8973   2.157   7.455   9.460  0.0123 -0.0455  0.1339
  561loPI   C2B 8974   2.235   7.437   8.993  0.0885 -0.0974 -0.1095
  561loPI   C3B 8975   2.264   7.479   8.615  0.1091 -0.0700  0.2327
  561loPI   C4B 8976   2.096   7.501   8.211 -0.1932  0.3256  0.0495
  562loPI    C1 8977  10.715   0.922  10.120  0.0541 -0.1724  0.1928
  562loPI    C2 8978  10.390   1.010  10.337 -0.1684 -0.2000 -0.1227
  562loPI    C3 8979  10.744   1.168  10.434 -0.3139 -0.0061  0.1021
  562loPI   PO4 8980  10.830   0.648  10.130  0.4411 -0.0977  0.0741
  562loPI   GL1 8981  10.799   0.529   9.814  0.3207 -0.0603  0.2055
  562loPI   GL2 8982  10.854   0.855   9.654  0.2452 -0.1917  0.1804
  562loPI   C1A 8983  10.819   0.419   9.335  0.0567 -0.1193  0.2057
  562loPI   C2A 8984  10.807   0.529   8.920  0.0028 -0.4588  0.1844
  562loPI   C3A 8985  10.877   0.528   8.485 -0.2749  0.0733  0.0587
  562loPI   C4A 8986  10.884   0.544   8.047  0.1415  0.2446 -0.4740
  562loPI   C5A 8987  10.872   0.216   7.694  0.1519  0.0311 -0.5111
  562loPI   C6A 8988  10.953   0.297   7.242 -0.1610  0.0772 -0.3659
  562loPI   C1B 8989  10.964   0.885   9.227  0.1601  0.0382 -0.1498
  562loPI   C2B 8990  11.101   0.906   8.745 -0.1077 -0.1747 -0.1718
  562loPI   C3B 8991  11.146   0.987   8.311  0.1671  0.2172 -0.0388
  562loPI   C4B 8992  11.246   1.011   7.967  0.0488 -0.5237  0.5344
  563loPI    C1 8993  11.481   0.691  10.441  0.2023  0.2330  0.0509
  563loPI    C2 8994  11.121   0.593  10.585  0.2081 -0.0504 -0.1206
  563loPI    C3 8995  11.180   0.954  10.424  0.0314  0.0371  0.0079
  563loPI   PO4 8996  11.514   0.551  10.223 -0.0298  0.1061 -0.0617
  563loPI   GL1 8997  11.350   0.434   9.902 -0.3699  0.0664  0.1414
  563loPI   GL2 8998  11.486   0.086   9.949  0.1347  0.0518 -0.3688
  563loPI   C1A 8999  11.290   0.498   9.489  0.1930 -0.2565  0.1246
  563loPI   C2A 9000  11.348   0.465   9.035 -0.2946  0.1279 -0.0373
  563loPI   C3A 9001  11.421   0.564   8.610 -0.1766  0.0033 -0.3046
  563loPI   C4A 9002  11.367   0.511   8.141 -0.0861  0.1153  0.0741
  563loPI   C5A 9003  11.328   0.146   7.892 -0.3325 -0.0033 -0.1849
  563loPI   C6A 9004  11.406   0.081   7.429 -0.4741  0.0514  0.1040
  563loPI   C1B 9005  11.560   0.050   9.540 -0.3748  0.0450  0.0663
  563loPI   C2B 9006  11.589   0.009   9.076 -0.1728 -0.0959 -0.0968
  563loPI   C3B 9007  11.671   0.043   8.660  0.2535  0.2419  0.1443
  563loPI   C4B 9008  11.664   0.118   8.237 -0.0160 -0.5618 -0.0242
  564loPI    C1 9009  14.856   8.772  11.046 -0.0485 -0.0420 -0.1498
  564loPI    C2 9010  14.580   8.895  11.307  0.0091  0.0487 -0.1314
  564loPI    C3 9011  14.555   8.529  11.148 -0.2464  0.1366 -0.2998
  564loPI   PO4 9012  14.921   8.828  10.678  0.0360  0.0957 -0.0314
  564loPI   GL1 9013  14.743   8.806  10.212 -0.1813  0.2001  0.1336
  564loPI   GL2 9014  14.542   8.999  10.039 -0.1449 -0.2246 -0.1981
  564loPI   C1A 9015  15.099   8.877   9.846 -0.1753  0.0582 -0.0378
  564loPI   C2A 9016  15.216   9.089   9.459  0.0842 -0.0789 -0.1623
  564loPI   C3A 9017  15.188   9.124   9.027  0.1009  0.0009  0.0202
  564loPI   C4A 9018  15.194   9.061   8.593 -0.0382  0.0148  0.0415
  564loPI   C5A 9019  15.277   9.175   8.143  0.2986  0.4314 -0.0229
  564loPI   C6A 9020  15.279   9.491   7.825 -0.1262  0.3343  0.0272
  564loPI   C1B 9021  14.627   9.010   9.583  0.1072 -0.0287 -0.0621
  564loPI   C2B 9022  14.603   9.029   9.137 -0.2461 -0.2604  0.0442
  564loPI   C3B 9023  14.639   9.086   8.628  0.1407 -0.0231  0.1891
  564loPI   C4B 9024  14.677   9.140   8.192  0.0161 -0.1614 -0.0547
  565loPI    C1 9025  15.752  14.164  10.872 -0.2346 -0.0019  0.0689
  565loPI    C2 9026  16.010  14.253  11.164 -0.2961  0.0298  0.1138
  565loPI    C3 9027  15.790  13.920  11.186 -0.1886 -0.0477  0.0280
  565loPI   PO4 9028  15.940  14.212  10.651  0.0288  0.1309 -0.0422
  565loPI   GL1 9029  15.973  14.143  10.167  0.0962  0.1140 -0.0228
  565loPI   GL2 9030  15.649  14.022  10.242  0.0583  0.0781 -0.0722
  565loPI   C1A 9031  15.756  14.091   9.685 -0.1683 -0.1391  0.2011
  565loPI   C2A 9032  15.861  14.094   9.220  0.0928  0.0334 -0.0700
  565loPI   C3A 9033  15.886  14.211   8.879  0.2331 -0.0031  0.0612
  565loPI   C4A 9034  15.842  14.177   8.449  0.2310 -0.4877 -0.3466
  565loPI   C5A 9035  15.536  14.434   8.235 -0.1894  0.0244  0.1352
  565loPI   C6A 9036  15.307  14.269   7.905 -0.0091  0.0613 -0.0267
  565loPI   C1B 9037  15.450  13.829   9.938  0.3079  0.2306 -0.1587
  565loPI   C2B 9038  15.450  13.680   9.411 -0.0857  0.2437 -0.2876
  565loPI   C3B 9039  15.584  13.744   9.010  0.0677  0.1406  0.1795
  565loPI   C4B 9040  15.555  13.753   8.538 -0.2809  0.0759  0.0549
  566loPI    C1 9041  18.666  12.878  10.523 -0.1770  0.2570 -0.2257
  566loPI    C2 9042  18.411  13.165  10.411 -0.2088  0.3745  0.1338
  566loPI    C3 9043  18.727  13.256  10.639 -0.1420  0.1448  0.1355
  566loPI   PO4 9044  18.631  12.709  10.318 -0.0957  0.2235 -0.1811
  566loPI   GL1 9045  18.673  12.773   9.872 -0.1511  0.0747  0.0444
  566loPI   GL2 9046  18.719  12.403   9.947  0.1206  0.3095  0.2939
  566loPI   C1A 9047  18.786  12.928   9.462  0.1575  0.2230 -0.1864
  566loPI   C2A 9048  18.672  12.865   9.030  0.2810 -0.1764 -0.0141
  566loPI   C3A 9049  18.619  12.983   8.614  0.5385 -0.1189  0.0810
  566loPI   C4A 9050  18.617  13.030   8.127  0.0052  0.1534 -0.0701
  566loPI   C5A 9051  18.527  13.143   7.679 -0.0571  0.0212 -0.1570
  566loPI   C6A 9052  18.227  13.378   7.555  0.1293  0.1061  0.2221
  566loPI   C1B 9053  18.448  12.319   9.689 -0.0093 -0.3152  0.0586
  566loPI   C2B 9054  18.498  12.308   9.330  0.0606 -0.2403  0.1463
  566loPI   C3B 9055  18.471  12.347   8.830  0.1834  0.0083  0.0909
  566loPI   C4B 9056  18.437  12.513   8.359  0.4646  0.2054 -0.3002
  567loPI    C1 9057  12.292   7.737  10.309  0.1207 -0.0277 -0.1813
  567loPI    C2 9058  12.619   7.754  10.538  0.0740 -0.1092 -0.1080
  567loPI    C3 9059  12.278   7.920  10.664 -0.0209 -0.3786 -0.0010
  567loPI   PO4 9060  12.324   7.802  10.127 -0.0716  0.1618 -0.2355
  567loPI   GL1 9061  12.462   7.657   9.779  0.2795 -0.2024  0.0354
  567loPI   GL2 9062  12.751   7.627   9.712  0.0799  0.2468  0.0538
  567loPI   C1A 9063  12.413   7.560   9.391  0.0939  0.1760  0.0661
  567loPI   C2A 9064  12.426   7.428   8.973  0.2283  0.0303 -0.1823
  567loPI   C3A 9065  12.445   7.522   8.493 -0.0541  0.1773  0.1939
  567loPI   C4A 9066  12.413   7.524   8.054  0.2835 -0.0629 -0.1276
  567loPI   C5A 9067  12.267   7.526   7.578 -0.0796  0.1519 -0.2728
  567loPI   C6A 9068  11.983   7.765   7.320 -0.2024 -0.0649  0.1924
  567loPI   C1B 9069  12.918   7.535   9.397 -0.0586 -0.1480  0.4159
  567loPI   C2B 9070  12.895   7.518   8.951 -0.1442  0.0235 -0.1966
  567loPI   C3B 9071  12.930   7.517   8.536  0.1668 -0.1115  0.3163
  567loPI   C4B 9072  12.914   7.519   8.104 -0.0736  0.1807  0.0590
  568loPI    C1 9073   5.181  13.953   9.774  0.0819 -0.0576  0.0952
  568loPI    C2 9074   4.944  14.110  10.056  0.0749  0.0757  0.0159
  568loPI    C3 9075   5.339  14.084  10.118  0.0645  0.0374  0.0672
  568loPI   PO4 9076   5.100  13.701   9.751  0.1861 -0.1430 -0.2276
  568loPI   GL1 9077   5.038  13.381   9.440 -0.3114 -0.1035 -0.1809
  568loPI   GL2 9078   4.867  13.616   9.220  0.3799  0.1266  0.0322
  568loPI   C1A 9079   5.137  13.071   9.127 -0.1851  0.0526  0.0744
  568loPI   C2A 9080   5.104  13.121   8.725 -0.2531 -0.0336  0.0066
  568loPI   C3A 9081   5.155  13.089   8.303 -0.2702  0.0377 -0.0810
  568loPI   C4A 9082   5.124  13.120   7.866 -0.0447 -0.1806  0.0995
  568loPI   C5A 9083   5.130  13.213   7.414  0.2146  0.0831  0.0315
  568loPI   C6A 9084   4.785  13.103   7.009  0.2328 -0.1757 -0.0175
  568loPI   C1B 9085   4.901  13.564   8.807  0.0500  0.3647 -0.0696
  568loPI   C2B 9086   4.876  13.525   8.368  0.3153  0.0161  0.2144
  568loPI   C3B 9087   4.666  13.647   7.919  0.5336  0.0012  0.0375
  568loPI   C4B 9088   4.583  13.643   7.451  0.0415 -0.0920 -0.1389
  569loPI    C1 9089   3.680   5.058  10.747 -0.0528 -0.1027  0.1881
  569loPI    C2 9090   3.479   5.348  10.936 -0.4052 -0.1362 -0.1238
  569loPI    C3 9091   3.427   4.965  11.042 -0.0828 -0.1057  0.1615
  569loPI   PO4 9092   3.813   5.249  10.558 -0.4415  0.1129 -0.0286
  569loPI   GL1 9093   3.853   5.124  10.081  0.1201 -0.0330 -0.1951
  569loPI   GL2 9094   3.623   5.285   9.903  0.1192  0.1137 -0.2802
  569loPI   C1A 9095   3.935   4.976   9.637  0.0872  0.1656 -0.2427
  569loPI   C2A 9096   3.937   4.857   9.145 -0.0330 -0.0902 -0.0820
  569loPI   C3A 9097   3.936   4.891   8.736 -0.0254 -0.1232 -0.0095
  569loPI   C4A 9098   3.837   4.882   8.362 -0.1341  0.0142  0.0981
  569loPI   C5A 9099   3.899   4.872   7.878  0.1071 -0.0622  0.1333
  569loPI   C6A 9100   3.943   5.103   7.515  0.2234 -0.0014 -0.2804
  569loPI   C1B 9101   3.634   5.345   9.440 -0.0956  0.0558  0.0771
  569loPI   C2B 9102   3.566   5.331   8.925 -0.1494  0.1294  0.1092
  569loPI   C3B 9103   3.581   5.311   8.450 -0.1765 -0.0879 -0.2777
  569loPI   C4B 9104   3.563   5.424   7.915 -0.2026 -0.1159 -0.4400
  570loPI    C1 9105   3.918  14.108   9.861 -0.2582 -0.0545  0.0199
  570loPI    C2 9106   3.994  14.214  10.239 -0.1897  0.1018 -0.0364
  570loPI    C3 9107   4.152  13.878  10.090 -0.3099 -0.0206  0.1073
  570loPI   PO4 9108   3.747  14.117   9.789  0.2238  0.1116 -0.3580
  570loPI   GL1 9109   3.665  14.274   9.405 -0.0219 -0.0159 -0.0114
  570loPI   GL2 9110   3.492  14.047   9.299  0.1092  0.5897  0.1314
  570loPI   C1A 9111   3.747  14.546   9.037  0.0260 -0.3536 -0.2260
  570loPI   C2A 9112   3.661  14.521   8.624  0.0828  0.2454 -0.1118
  570loPI   C3A 9113   3.664  14.577   8.166 -0.0695  0.0523  0.0755
  570loPI   C4A 9114   3.484  14.476   7.741 -0.1802  0.1505  0.2537
  570loPI   C5A 9115   3.156  14.687   7.410 -0.2169  0.3036  0.1015
  570loPI   C6A 9116   3.057  14.970   7.098 -0.0560  0.0406 -0.1662
  570loPI   C1B 9117   3.582  14.072   8.897 -0.0406 -0.0078  0.2683
  570loPI   C2B 9118   3.523  13.969   8.521  0.3544 -0.0007 -0.0849
  570loPI   C3B 9119   3.376  13.910   8.050  0.1722 -0.0502 -0.1194
  570loPI   C4B 9120   3.242  13.795   7.739  0.1793  0.1109  0.1724
  571loPI    C1 9121  18.433   9.164  10.537 -0.0928  0.0632 -0.2088
  571loPI    C2 9122  18.829   9.121  10.565 -0.1534 -0.3725  0.0733
  571loPI    C3 9123  18.652   9.444  10.720  0.1024 -0.1017 -0.1869
  571loPI   PO4 9124  18.393   9.179  10.291  0.0042  0.0510 -0.0486
  571loPI   GL1 9125  18.463   9.181   9.918 -0.3916  0.1422  0.1515
  571loPI   GL2 9126  18.715   9.193   9.737 -0.0057 -0.0124  0.2364
  571loPI   C1A 9127  18.280   9.245   9.543 -0.1547 -0.0422 -0.2646
  571loPI   C2A 9128  18.306   9.293   9.095 -0.2324 -0.0588 -0.1829
  571loPI   C3A 9129  18.305   9.232   8.734  0.3780  0.1347 -0.0405
  571loPI   C4A 9130  18.232   9.227   8.267 -0.0706  0.0704  0.3476
  571loPI   C5A 9131  17.930   9.015   8.022  0.0587  0.3046 -0.0550
  571loPI   C6A 9132  17.824   8.603   7.810 -0.1522  0.2849 -0.0621
  571loPI   C1B 9133  18.783   9.301   9.358 -0.1707  0.0545  0.0081
  571loPI   C2B 9134  18.789   9.263   8.914  0.0408  0.0648  0.4383
  571loPI   C3B 9135  18.729   9.162   8.519 -0.1744  0.0999 -0.0841
  571loPI   C4B 9136  18.780   9.050   8.101  0.0074 -0.1048 -0.3302
  572loPI    C1 9137   3.818  11.786  10.013 -0.2031  0.0391 -0.1273
  572loPI    C2 9138   3.764  11.780  10.409  0.0817  0.0269 -0.0867
  572loPI    C3 9139   3.475  11.649  10.166 -0.0393 -0.0991  0.1227
  572loPI   PO4 9140   3.804  12.029   9.952  0.0611 -0.0932  0.3006
  572loPI   GL1 9141   3.756  12.196   9.569 -0.1157  0.2909  0.0079
  572loPI   GL2 9142   3.938  12.401   9.622  0.0873  0.0821 -0.0705
  572loPI   C1A 9143   3.638  12.218   9.105 -0.3370 -0.1103  0.0245
  572loPI   C2A 9144   3.602  12.215   8.705 -0.0245  0.0259 -0.1638
  572loPI   C3A 9145   3.594  12.213   8.295  0.0705 -0.3991  0.2751
  572loPI   C4A 9146   3.673  11.981   7.858 -0.1733  0.0428  0.2716
  572loPI   C5A 9147   4.089  11.983   7.622  0.2393  0.0040  0.0091
  572loPI   C6A 9148   4.622  11.976   7.640 -0.4319 -0.1830  0.1019
  572loPI   C1B 9149   3.894  12.605   9.292 -0.3171  0.2088  0.0271
  572loPI   C2B 9150   3.871  12.612   8.910 -0.0100 -0.0619 -0.0656
  572loPI   C3B 9151   3.792  12.636   8.423  0.1915 -0.1005 -0.1092
  572loPI   C4B 9152   3.823  12.577   8.021 -0.2547  0.3943  0.0428
  573loPI    C1 9153   0.571  13.254  10.390 -0.2678  0.1540 -0.0455
  573loPI    C2 9154   0.673  12.868  10.365 -0.3371  0.1450 -0.2038
  573loPI    C3 9155   0.369  12.979  10.599 -0.2202  0.1231 -0.0395
  573loPI   PO4 9156   0.586  13.305  10.134  0.2660  0.0142  0.2883
  573loPI   GL1 9157   0.768  13.528   9.852 -0.1504  0.3521 -0.0525
  573loPI   GL2 9158   0.932  13.861   9.882 -0.0722 -0.0195 -0.0015
  573loPI   C1A 9159   0.644  13.431   9.401 -0.2474  0.2095  0.1700
  573loPI   C2A 9160   0.525  13.466   8.869 -0.3568 -0.2745  0.1466
  573loPI   C3A 9161   0.542  13.418   8.490 -0.2890 -0.0618 -0.0722
  573loPI   C4A 9162   0.581  13.422   8.071 -0.3462  0.0900 -0.2195
  573loPI   C5A 9163   0.513  13.706   7.741 -0.0483  0.0065  0.2607
  573loPI   C6A 9164   0.404  13.827   7.268  0.1092  0.0745 -0.0001
  573loPI   C1B 9165   0.827  13.921   9.398  0.2827 -0.1046  0.0760
  573loPI   C2B 9166   0.821  13.856   8.958 -0.0734  0.0133 -0.0795
  573loPI   C3B 9167   0.725  13.881   8.491  0.1324 -0.0249 -0.5096
  573loPI   C4B 9168   0.848  13.848   8.063 -0.2266 -0.1884  0.2218
  574loPI    C1 9169   8.863   1.855  10.392  0.2691 -0.0765 -0.1278
  574loPI    C2 9170   9.000   2.163  10.606 -0.1603 -0.0149  0.0685
  574loPI    C3 9171   8.963   1.803  10.776 -0.0690 -0.0740 -0.0361
  574loPI   PO4 9172   8.877   1.913  10.158 -0.0570  0.2253 -0.0637
  574loPI   GL1 9173   9.152   1.800   9.767 -0.3142  0.0786  0.0163
  574loPI   GL2 9174   9.450   1.804   9.559 -0.0706 -0.0982 -0.1348
  574loPI   C1A 9175   9.032   1.747   9.274 -0.0804  0.0185 -0.1813
  574loPI   C2A 9176   9.024   1.846   8.953  0.0915  0.2038 -0.1697
  574loPI   C3A 9177   9.022   1.768   8.532 -0.0603 -0.3920  0.0260
  574loPI   C4A 9178   8.958   1.854   8.146  0.4876  0.3111  0.1680
  574loPI   C5A 9179   8.495   1.857   7.907 -0.2030 -0.2958  0.1894
  574loPI   C6A 9180   8.409   1.913   7.548  0.1801  0.2992  0.1083
  574loPI   C1B 9181   9.503   1.889   9.199  0.1495 -0.2388  0.0675
  574loPI   C2B 9182   9.472   1.924   8.785 -0.0523 -0.0262 -0.0868
  574loPI   C3B 9183   9.540   1.782   8.393 -0.0393  0.0231  0.0290
  574loPI   C4B 9184   9.499   1.993   7.990 -0.3023  0.2657  0.1869
  575loPI    C1 9185   9.184   3.883  10.524  0.0264 -0.1086 -0.0482
  575loPI    C2 9186   8.977   3.599  10.716 -0.0630  0.0848  0.1458
  575loPI    C3 9187   9.368   3.548  10.644 -0.1209 -0.1726  0.0009
  575loPI   PO4 9188   9.052   3.912  10.256 -0.3982 -0.1882 -0.0929
  575loPI   GL1 9189   8.804   3.742   9.868  0.0180 -0.3709  0.0928
  575loPI   GL2 9190   8.595   3.954   9.727  0.3066 -0.3911  0.0615
  575loPI   C1A 9191   8.863   3.668   9.449 -0.1349  0.0241  0.1000
  575loPI   C2A 9192   8.897   3.648   9.002 -0.0266  0.2233  0.2024
  575loPI   C3A 9193   8.923   3.569   8.503 -0.1997 -0.0814 -0.0946
  575loPI   C4A 9194   9.033   3.592   8.105  0.2430  0.0273  0.0486
  575loPI   C5A 9195   9.116   3.758   7.719 -0.2683 -0.3658  0.0816
  575loPI   C6A 9196   8.901   3.804   7.336 -0.1022 -0.2426  0.2589
  575loPI   C1B 9197   8.490   4.069   9.203 -0.2177 -0.1140  0.1683
  575loPI   C2B 9198   8.652   4.125   8.727 -0.3510  0.0928 -0.2533
  575loPI   C3B 9199   8.702   4.105   8.335 -0.0363  0.0255 -0.0587
  575loPI   C4B 9200   8.679   4.014   7.958  0.3187  0.0256  0.1790
  576loPI    C1 9201   5.961  17.550   9.841  0.0074  0.0277 -0.1244
  576loPI    C2 9202   6.130  17.187   9.848 -0.0069  0.0239  0.2749
  576loPI    C3 9203   5.751  17.234   9.967 -0.0401  0.1546  0.1213
  576loPI   PO4 9204   5.994  17.618   9.616  0.0399  0.1598  0.2189
  576loPI   GL1 9205   6.008  17.914   9.336 -0.0435 -0.0370 -0.1055
  576loPI   GL2 9206   6.265  17.783   9.171 -0.1144  0.2072 -0.2764
  576loPI   C1A 9207   6.103  18.162   8.978  0.3719 -0.0179 -0.1977
  576loPI   C2A 9208   6.163  18.168   8.662 -0.0923  0.1691 -0.0006
  576loPI   C3A 9209   6.251  18.246   8.161  0.2591 -0.0684  0.1071
  576loPI   C4A 9210   6.262  18.378   7.721  0.0573  0.1655  0.1985
  576loPI   C5A 9211   6.133  18.098   7.515 -0.0854 -0.1357  0.2289
  576loPI   C6A 9212   5.940  18.067   7.214  0.1196  0.3133  0.1619
  576loPI   C1B 9213   6.100  17.686   8.665  0.1672 -0.0682  0.2127
  576loPI   C2B 9214   6.018  17.685   8.184  0.0728  0.0605  0.2862
  576loPI   C3B 9215   5.904  17.886   7.854  0.0923 -0.2434  0.2488
  576loPI   C4B 9216   5.658  17.816   7.495 -0.0536 -0.1383  0.2179
  577loPI    C1 9217  12.629  14.701  10.415 -0.2750  0.0658 -0.1014
  577loPI    C2 9218  12.931  14.442  10.450 -0.0874  0.2682 -0.1982
  577loPI    C3 9219  12.625  14.428  10.707  0.0587  0.1343 -0.0289
  577loPI   PO4 9220  12.668  14.736  10.148 -0.5327 -0.0485  0.1959
  577loPI   GL1 9221  12.811  14.928   9.777  0.0666 -0.1695 -0.0766
  577loPI   GL2 9222  13.164  15.032   9.775  0.3527 -0.0254 -0.0422
  577loPI   C1A 9223  12.601  14.830   9.339 -0.4434 -0.1235 -0.2546
  577loPI   C2A 9224  12.651  14.827   8.924 -0.2913 -0.2131 -0.1044
  577loPI   C3A 9225  12.570  14.799   8.461  0.0895 -0.0125 -0.0946
  577loPI   C4A 9226  12.572  14.910   8.041  0.0087  0.3844 -0.2844
  577loPI   C5A 9227  12.600  15.114   7.649 -0.1590 -0.0081  0.4688
  577loPI   C6A 9228  12.593  15.340   7.257  0.2581 -0.1063 -0.1475
  577loPI   C1B 9229  13.157  14.956   9.291 -0.1842 -0.0523  0.1876
  577loPI   C2B 9230  13.149  14.959   8.832 -0.3901  0.3874 -0.4079
  577loPI   C3B 9231  13.026  14.990   8.337  0.1859  0.2169 -0.0521
  577loPI   C4B 9232  13.169  14.989   7.861 -0.0955  0.0124 -0.0650
  578loPI    C1 9233   9.756  17.965  10.055 -0.3401 -0.0475  0.0891
  578loPI    C2 9234   9.672  18.170  10.388 -0.0233  0.0737  0.0977
  578loPI    C3 9235   9.912  17.851  10.405 -0.2326 -0.0901  0.0273
  578loPI   PO4 9236   9.815  18.164   9.836  0.2228 -0.1416  0.0105
  578loPI   GL1 9237   9.942  18.138   9.441 -0.1711 -0.3999  0.1176
  578loPI   GL2 9238  10.014  17.830   9.446 -0.1821  0.1875 -0.0289
  578loPI   C1A 9239   9.769  18.360   9.131  0.0664 -0.3885 -0.1263
  578loPI   C2A 9240   9.798  18.353   8.662  0.1969 -0.0287  0.2013
  578loPI   C3A 9241   9.908  18.483   8.281 -0.0579  0.0137  0.0641
  578loPI   C4A 9242   9.786  18.435   7.956 -0.3157 -0.1122 -0.2561
  578loPI   C5A 9243  10.137  18.306   7.568  0.1025  0.1105  0.1049
  578loPI   C6A 9244  10.327  18.444   7.158  0.0265  0.1375  0.1750
  578loPI   C1B 9245  10.058  17.955   8.993 -0.2218  0.0715 -0.0989
  578loPI   C2B 9246  10.149  17.955   8.518  0.0901  0.1193 -0.0705
  578loPI   C3B 9247  10.209  18.059   8.100  0.1189  0.1838  0.2149
  578loPI   C4B 9248  10.174  17.865   7.842 -0.4841 -0.2759 -0.0327
  579loPI    C1 9249  10.635  12.521   9.876 -0.0458  0.0074 -0.0601
  579loPI    C2 9250  10.825  12.825   9.699 -0.2965  0.1387 -0.1097
  579loPI    C3 9251  10.750  12.838  10.091  0.0987 -0.0706 -0.0219
  579loPI   PO4 9252  10.543  12.349   9.710  0.1787  0.0308  0.3175
  579loPI   GL1 9253  10.945  12.423   9.456 -0.0367 -0.0982 -0.1392
  579loPI   GL2 9254  10.694  12.236   9.245 -0.0211  0.4840 -0.3188
  579loPI   C1A 9255  11.214  12.273   9.177 -0.3855 -0.0982 -0.0785
  579loPI   C2A 9256  11.281  12.175   8.709 -0.1333  0.1562 -0.2929
  579loPI   C3A 9257  11.273  11.916   8.240  0.2447 -0.0349  0.2000
  579loPI   C4A 9258  11.276  11.647   7.938 -0.6432 -0.2384 -0.1569
  579loPI   C5A 9259  11.169  11.703   7.603 -0.1020 -0.0744  0.0960
  579loPI   C6A 9260  11.246  11.910   7.269 -0.0805 -0.0344 -0.1393
  579loPI   C1B 9261  10.871  12.042   8.901  0.1984  0.0904  0.1248
  579loPI   C2B 9262  10.852  11.773   8.484 -0.0319  0.2337 -0.1779
  579loPI   C3B 9263  10.788  11.942   8.063  0.0036  0.0118  0.1116
  579loPI   C4B 9264  10.659  12.172   7.794 -0.2813 -0.0911  0.1738
  580loPI    C1 9265  15.393  18.526  10.257  0.0497 -0.0017  0.1850
  580loPI    C2 9266  15.131  18.539  10.560 -0.0621  0.1441  0.0833
  580loPI    C3 9267  15.400  18.244  10.541 -0.1890  0.0189  0.2138
  580loPI   PO4 9268  15.488  18.832  10.250 -0.2797 -0.1734  0.2878
  580loPI   GL1 9269  15.657  18.921   9.866 -0.0783 -0.1146 -0.2255
  580loPI   GL2 9270  15.923  18.785   9.727 -0.0788  0.0981 -0.2062
  580loPI   C1A 9271  15.866  19.260   9.617 -0.2083 -0.1124  0.1032
  580loPI   C2A 9272  15.979  19.173   9.082 -0.3083  0.0266  0.0529
  580loPI   C3A 9273  15.960  19.012   8.639 -0.3880  0.2292  0.0217
  580loPI   C4A 9274  15.932  19.047   8.256 -0.1400 -0.1875 -0.0014
  580loPI   C5A 9275  16.264  18.927   7.862 -0.1391  0.2096 -0.2333
  580loPI   C6A 9276  16.303  18.590   7.621  0.0384 -0.4788 -0.1807
  580loPI   C1B 9277  16.158  18.787   9.428  0.2142 -0.0757 -0.3030
  580loPI   C2B 9278  16.294  18.716   8.994  0.2641 -0.1202 -0.1926
  580loPI   C3B 9279  16.158  18.565   8.607  0.4135  0.0657  0.2962
  580loPI   C4B 9280  16.071  18.558   8.191 -0.0223 -0.3027  0.3227
  581loPI    C1 9281   0.874  12.249  10.318  0.2053  0.1754 -0.1211
  581loPI    C2 9282   1.001  11.986  10.044  0.3253  0.1743 -0.0652
  581loPI    C3 9283   1.036  11.902  10.433 -0.0232  0.0909 -0.0480
  581loPI   PO4 9284   0.870  12.494  10.125 -0.2764  0.0495 -0.2160
  581loPI   GL1 9285   0.893  12.519   9.689 -0.2160 -0.0328 -0.3303
  581loPI   GL2 9286   1.211  12.314   9.630 -0.1041 -0.0631  0.1187
  581loPI   C1A 9287   0.724  12.612   9.259 -0.1055  0.0124  0.2248
  581loPI   C2A 9288   0.580  12.533   8.821 -0.3526  0.2731 -0.0048
  581loPI   C3A 9289   0.590  12.654   8.430 -0.1776 -0.1395  0.1581
  581loPI   C4A 9290   0.580  12.784   7.914 -0.1198 -0.5229  0.1475
  581loPI   C5A 9291   0.377  12.823   7.543 -0.2052 -0.1459  0.1846
  581loPI   C6A 9292   0.256  12.954   7.106  0.1244  0.1398 -0.0382
  581loPI   C1B 9293   1.030  12.146   9.419  0.1344 -0.0576 -0.2513
  581loPI   C2B 9294   0.898  12.131   8.982  0.2753  0.1946  0.2584
  581loPI   C3B 9295   0.779  12.064   8.543 -0.2437 -0.2106  0.0862
  581loPI   C4B 9296   0.790  12.234   8.129 -0.1599  0.3860 -0.0269
  582loPI    C1 9297  15.907   8.045  10.612 -0.1922 -0.1048  0.1558
  582loPI    C2 9298  15.817   8.343  10.863 -0.1582 -0.0416  0.0934
  582loPI    C3 9299  15.723   8.373  10.475 -0.1433 -0.1069  0.0847
  582loPI   PO4 9300  16.191   7.979  10.529 -0.0997 -0.0782 -0.1992
  582loPI   GL1 9301  16.356   7.991  10.113 -0.0077  0.1287  0.1214
  582loPI   GL2 9302  16.232   8.233  10.015 -0.4626 -0.0144 -0.0308
  582loPI   C1A 9303  16.552   7.707   9.755 -0.3166 -0.2102 -0.2900
  582loPI   C2A 9304  16.624   7.764   9.335  0.2687  0.0168 -0.0072
  582loPI   C3A 9305  16.661   7.801   8.897 -0.1829 -0.1249 -0.1242
  582loPI   C4A 9306  16.508   7.829   8.479 -0.3286 -0.1788  0.2949
  582loPI   C5A 9307  16.187   7.989   8.146 -0.1663 -0.1950 -0.1535
  582loPI   C6A 9308  15.921   8.381   7.997  0.1167 -0.1324 -0.0193
  582loPI   C1B 9309  16.295   8.085   9.631 -0.1016  0.1231 -0.0730
  582loPI   C2B 9310  16.320   8.209   9.204 -0.0442  0.0233  0.1600
  582loPI   C3B 9311  16.299   8.202   8.808  0.4272  0.4264 -0.0705
  582loPI   C4B 9312  16.313   8.372   8.417 -0.0153  0.5361  0.2084
  583loPI    C1 9313   0.685   4.686  10.820 -0.1646 -0.0381  0.2976
  583loPI    C2 9314   0.485   5.032  10.816  0.0738  0.1005 -0.0607
  583loPI    C3 9315   0.287   4.688  10.859 -0.2010  0.2584 -0.0403
  583loPI   PO4 9316   0.851   4.753  10.664  0.1387 -0.0648 -0.1075
  583loPI   GL1 9317   1.075   4.976  10.248 -0.2403  0.2456 -0.0323
  583loPI   GL2 9318   1.368   4.975  10.349 -0.0535 -0.1226 -0.0956
  583loPI   C1A 9319   1.030   4.988   9.785 -0.1944  0.1468  0.0930
  583loPI   C2A 9320   1.060   5.076   9.333  0.0499 -0.2793  0.2488
  583loPI   C3A 9321   1.046   5.198   8.917 -0.2185 -0.0957 -0.3994
  583loPI   C4A 9322   0.968   5.144   8.504 -0.1813 -0.3127  0.1584
  583loPI   C5A 9323   0.757   5.353   8.238 -0.3232 -0.2086  0.3479
  583loPI   C6A 9324   0.391   5.233   8.012  0.2818 -0.2696 -0.2028
  583loPI   C1B 9325   1.509   5.171   9.931 -0.1599  0.1195 -0.1883
  583loPI   C2B 9326   1.556   5.206   9.512  0.1048  0.0852 -0.2010
  583loPI   C3B 9327   1.591   5.130   9.089  0.1867 -0.2431  0.1158
  583loPI   C4B 9328   1.481   5.260   8.620  0.1343  0.0415 -0.1763
  584loPI    C1 9329  15.834   5.071  10.751 -0.2172  0.1110  0.0887
  584loPI    C2 9330  15.509   4.842  10.711  0.1111 -0.3754  0.1138
  584loPI    C3 9331  15.736   4.811  11.039  0.1587 -0.0027  0.1202
  584loPI   PO4 9332  15.927   5.104  10.502  0.2426  0.1341 -0.2319
  584loPI   GL1 9333  15.708   5.293  10.271  0.2436  0.2874 -0.1258
  584loPI   GL2 9334  15.528   5.080  10.177  0.0594  0.2035  0.0471
  584loPI   C1A 9335  15.866   5.433   9.861 -0.0036 -0.3951 -0.4778
  584loPI   C2A 9336  15.841   5.496   9.441  0.2051 -0.0561  0.0763
  584loPI   C3A 9337  15.869   5.372   9.133  0.0567 -0.3128  0.1998
  584loPI   C4A 9338  15.981   5.377   8.781 -0.2884  0.1546 -0.2091
  584loPI   C5A 9339  15.872   5.389   8.343  0.1697 -0.0502 -0.2744
  584loPI   C6A 9340  16.111   5.461   7.896 -0.0682 -0.1735 -0.1852
  584loPI   C1B 9341  15.672   4.920   9.794 -0.0128 -0.1018  0.2060
  584loPI   C2B 9342  15.684   4.863   9.300 -0.2478  0.0579 -0.3103
  584loPI   C3B 9343  15.705   4.980   8.860 -0.4029 -0.1730 -0.1382
  584loPI   C4B 9344  15.624   4.951   8.452 -0.1096  0.2423 -0.1515
  585loPI    C1 9345  10.334   5.278  10.260  0.0753 -0.0460  0.1696
  585loPI    C2 9346  10.136   5.619  10.329  0.0993 -0.0053  0.0403
  585loPI    C3 9347   9.976   5.269  10.438 -0.1613  0.0070 -0.2891
  585loPI   PO4 9348  10.387   5.299  10.043 -0.0168  0.0271 -0.0610
  585loPI   GL1 9349  10.275   5.235   9.601  0.2737  0.1343  0.2387
  585loPI   GL2 9350  10.650   5.128   9.589 -0.2041  0.0461  0.4305
  585loPI   C1A 9351  10.226   5.191   9.117  0.0172 -0.0296  0.0527
  585loPI   C2A 9352  10.189   5.130   8.638 -0.0889  0.0067  0.1199
  585loPI   C3A 9353  10.122   5.171   8.114  0.0289  0.1187  0.1241
  585loPI   C4A 9354  10.207   5.031   7.766  0.2949  0.0348  0.0463
  585loPI   C5A 9355  10.528   4.988   7.496 -0.1217  0.3110  0.1036
  585loPI   C6A 9356  10.989   4.850   7.445  0.0180  0.1905 -0.1311
  585loPI   C1B 9357  10.705   5.288   9.187 -0.1234 -0.2113  0.4138
  585loPI   C2B 9358  10.697   5.260   8.629 -0.0918 -0.2766  0.1246
  585loPI   C3B 9359  10.608   5.144   8.325  0.0309 -0.1754  0.0338
  585loPI   C4B 9360  10.698   5.082   7.937  0.2226  0.1373 -0.2359
  586loPI    C1 9361  14.321  10.673  10.707  0.0972  0.2900  0.0460
  586loPI    C2 9362  14.252  10.590  11.092  0.0331  0.0760 -0.0100
  586loPI    C3 9363  14.506  10.365  10.881 -0.0617  0.0873 -0.1375
  586loPI   PO4 9364  14.151  10.717  10.516 -0.0573  0.0294 -0.1390
  586loPI   GL1 9365  14.231  10.701  10.084  0.0990 -0.1112  0.3097
  586loPI   GL2 9366  14.095  10.396   9.898  0.2187  0.0196  0.0463
  586loPI   C1A 9367  14.026  10.890   9.703 -0.0763  0.0888  0.0433
  586loPI   C2A 9368  14.026  10.972   9.192  0.3228 -0.2636  0.2545
  586loPI   C3A 9369  14.043  10.859   8.830  0.1896 -0.0111 -0.2337
  586loPI   C4A 9370  14.148  10.803   8.344  0.1402  0.0274  0.0653
  586loPI   C5A 9371  14.164  10.679   7.874  0.2486  0.0611 -0.2071
  586loPI   C6A 9372  14.379  10.879   7.476  0.1632 -0.1753 -0.1167
  586loPI   C1B 9373  14.301  10.488   9.524  0.1671  0.3769 -0.3948
  586loPI   C2B 9374  14.318  10.494   9.163  0.3476  0.2505 -0.0266
  586loPI   C3B 9375  14.413  10.451   8.734 -0.0844 -0.0027  0.2432
  586loPI   C4B 9376  14.469  10.307   8.262 -0.0561  0.3618 -0.0107
  587loPI    C1 9377  15.203   2.857  10.731 -0.0463 -0.0064  0.0216
  587loPI    C2 9378  15.006   3.141  10.933  0.0468  0.2537 -0.2463
  587loPI    C3 9379  14.832   2.787  10.864 -0.0050  0.1772  0.2403
  587loPI   PO4 9380  15.369   3.008  10.573 -0.1853  0.2230 -0.0986
  587loPI   GL1 9381  15.440   3.133  10.243 -0.0883  0.0798  0.0335
  587loPI   GL2 9382  15.491   3.444  10.255 -0.2356 -0.2043 -0.1870
  587loPI   C1A 9383  15.239   3.050   9.832 -0.2696  0.1886  0.2127
  587loPI   C2A 9384  15.260   3.051   9.397  0.1415  0.3690 -0.0087
  587loPI   C3A 9385  15.273   3.043   8.936 -0.3310  0.0181 -0.1204
  587loPI   C4A 9386  15.258   3.056   8.602 -0.1238  0.0214 -0.1542
  587loPI   C5A 9387  14.939   3.023   8.153 -0.1841 -0.3682  0.0603
  587loPI   C6A 9388  14.694   3.006   7.855  0.1827 -0.0231 -0.2683
  587loPI   C1B 9389  15.564   3.595   9.794  0.0638 -0.1523 -0.0081
  587loPI   C2B 9390  15.502   3.465   9.385  0.1392 -0.1963  0.1873
  587loPI   C3B 9391  15.568   3.487   8.987  0.0032  0.1989 -0.0883
  587loPI   C4B 9392  15.590   3.530   8.578 -0.2849  0.0322 -0.0134
  588loPI    C1 9393   4.068   4.060  10.657 -0.0929 -0.1737  0.0553
  588loPI    C2 9394   4.059   4.368  10.912  0.1640 -0.1567  0.0468
  588loPI    C3 9395   3.822   4.052  10.972 -0.1459  0.0662  0.0219
  588loPI   PO4 9396   3.992   4.266  10.362 -0.0255  0.1737  0.1066
  588loPI   GL1 9397   4.007   4.567   9.981 -0.1145 -0.1880  0.1835
  588loPI   GL2 9398   4.200   4.539   9.734 -0.1972  0.0753  0.0887
  588loPI   C1A 9399   3.752   4.477   9.539 -0.0441 -0.3380  0.3032
  588loPI   C2A 9400   3.666   4.394   9.102  0.1502 -0.0066 -0.0857
  588loPI   C3A 9401   3.671   4.287   8.711  0.1357 -0.0809 -0.0624
  588loPI   C4A 9402   3.761   4.396   8.219 -0.1769  0.1429 -0.0391
  588loPI   C5A 9403   3.823   4.339   7.840  0.2193  0.1725  0.0453
  588loPI   C6A 9404   3.761   4.532   7.464 -0.0290 -0.1020 -0.0117
  588loPI   C1B 9405   4.216   4.505   9.299  0.1596  0.0652 -0.5987
  588loPI   C2B 9406   4.103   4.402   8.857  0.1170 -0.0441  0.1811
  588loPI   C3B 9407   4.237   4.375   8.485 -0.2059 -0.2050  0.0607
  588loPI   C4B 9408   4.234   4.476   8.083 -0.0533  0.1675 -0.0965
  589loPI    C1 9409  13.772  15.066  10.692  0.0331 -0.1626  0.1900
  589loPI    C2 9410  13.811  15.456  10.770  0.0466 -0.1457  0.0998
  589loPI    C3 9411  13.632  15.216  11.035 -0.2083 -0.0293  0.0361
  589loPI   PO4 9412  13.880  15.047  10.519  0.1518  0.1027  0.0470
  589loPI   GL1 9413  13.877  14.871  10.087 -0.2499  0.0673  0.2688
  589loPI   GL2 9414  13.616  14.824   9.866 -0.1744  0.1561  0.1970
  589loPI   C1A 9415  14.142  15.074   9.748 -0.3365  0.0051 -0.1643
  589loPI   C2A 9416  14.206  14.994   9.347 -0.1328  0.0252 -0.1479
  589loPI   C3A 9417  14.144  14.943   8.860 -0.2568  0.2176 -0.0049
  589loPI   C4A 9418  14.129  14.979   8.386  0.3157  0.0963 -0.1855
  589loPI   C5A 9419  14.040  14.904   7.926  0.2741 -0.0703 -0.0435
  589loPI   C6A 9420  14.244  15.020   7.485 -0.0798 -0.2319 -0.2680
  589loPI   C1B 9421  13.926  14.554   9.619  0.0107 -0.1850  0.0907
  589loPI   C2B 9422  13.955  14.519   9.127  0.0942 -0.2613 -0.0695
  589loPI   C3B 9423  13.893  14.565   8.726 -0.1405  0.1456  0.1517
  589loPI   C4B 9424  13.888  14.550   8.301 -0.0056 -0.4620 -0.2025
  590loPI    C1 9425  15.841  13.396  10.818 -0.1057 -0.0808  0.1682
  590loPI    C2 9426  16.121  13.547  11.061  0.1056 -0.2345  0.0242
  590loPI    C3 9427  15.811  13.346  11.213 -0.0460  0.1240  0.2000
  590loPI   PO4 9428  15.784  13.645  10.595 -0.1389  0.0991 -0.0754
  590loPI   GL1 9429  16.028  13.612  10.314 -0.1938  0.0156  0.0408
  590loPI   GL2 9430  16.301  13.740  10.209 -0.0221  0.0394  0.3199
  590loPI   C1A 9431  15.940  13.673   9.919 -0.0625  0.0121  0.0598
  590loPI   C2A 9432  16.078  13.732   9.451  0.1432 -0.0547  0.2148
  590loPI   C3A 9433  16.066  13.682   9.010 -0.0460 -0.2792  0.2827
  590loPI   C4A 9434  16.100  13.675   8.551  0.3280  0.0582  0.0331
  590loPI   C5A 9435  16.138  13.849   8.119  0.2517  0.2027 -0.0542
  590loPI   C6A 9436  16.090  14.169   7.847 -0.1810 -0.1911  0.3327
  590loPI   C1B 9437  16.438  14.068   9.950  0.1400  0.0722 -0.0699
  590loPI   C2B 9438  16.466  14.045   9.581 -0.3161 -0.0236 -0.1082
  590loPI   C3B 9439  16.344  14.013   9.166 -0.0164  0.0419  0.2199
  590loPI   C4B 9440  16.346  14.180   8.797  0.0533  0.1803  0.2742
  591loPI    C1 9441  18.595  16.542  10.408 -0.1110  0.0668  0.1384
  591loPI    C2 9442  18.937  16.584  10.204 -0.1486  0.2446  0.1108
  591loPI    C3 9443  18.879  16.262  10.433 -0.0369  0.1261 -0.0263
  591loPI   PO4 9444  18.459  16.765  10.334 -0.1053  0.0036  0.3437
  591loPI   GL1 9445  18.342  16.675   9.898 -0.3464 -0.3986 -0.0573
  591loPI   GL2 9446  18.661  16.552   9.805 -0.0355  0.2992  0.1736
  591loPI   C1A 9447  18.211  16.590   9.494  0.1768 -0.1284 -0.3865
  591loPI   C2A 9448  18.113  16.484   9.033 -0.3006 -0.2578  0.0835
  591loPI   C3A 9449  18.046  16.452   8.679  0.1705  0.1132  0.0311
  591loPI   C4A 9450  18.051  16.415   8.252  0.1591 -0.1910  0.1105
  591loPI   C5A 9451  17.920  16.402   7.896 -0.0874 -0.1102 -0.1539
  591loPI   C6A 9452  17.914  16.300   7.578  0.0176 -0.1554 -0.3519
  591loPI   C1B 9453  18.661  16.653   9.326  0.1397 -0.0151  0.1004
  591loPI   C2B 9454  18.637  16.588   8.915  0.0737  0.0052 -0.3074
  591loPI   C3B 9455  18.499  16.488   8.498  0.0777  0.2141  0.1233
  591loPI   C4B 9456  18.548  16.502   7.985  0.0348  0.0712  0.3172
  592loPI    C1 9457  16.505   2.203  10.846 -0.0059 -0.1827  0.0444
  592loPI    C2 9458  16.695   2.120  10.504 -0.0444 -0.0972  0.0018
  592loPI    C3 9459  16.830   1.969  10.849  0.1577  0.0395 -0.0153
  592loPI   PO4 9460  16.310   2.324  10.688 -0.2418  0.4096 -0.3951
  592loPI   GL1 9461  16.131   2.407  10.326 -0.0320 -0.3847 -0.1719
  592loPI   GL2 9462  16.332   2.232  10.180 -0.2791 -0.1205 -0.2856
  592loPI   C1A 9463  16.015   2.562   9.940 -0.1909  0.2637 -0.4066
  592loPI   C2A 9464  15.951   2.547   9.546 -0.1359 -0.0120 -0.3335
  592loPI   C3A 9465  15.874   2.672   9.171 -0.3205  0.0121 -0.0255
  592loPI   C4A 9466  16.140   2.707   8.775  0.2257 -0.3112 -0.0068
  592loPI   C5A 9467  16.205   2.555   8.392 -0.1330 -0.1155 -0.0225
  592loPI   C6A 9468  16.251   2.230   8.181  0.1825  0.0980 -0.1384
  592loPI   C1B 9469  16.337   2.098   9.827 -0.2885 -0.5533 -0.0406
  592loPI   C2B 9470  16.373   2.174   9.393  0.0937 -0.2014 -0.0027
  592loPI   C3B 9471  16.310   2.337   9.033  0.0382  0.0945 -0.0872
  592loPI   C4B 9472  16.414   2.246   8.680 -0.2177 -0.1658 -0.0536
  593loPI    C1 9473  16.700  11.645  11.105 -0.2250  0.1299 -0.1358
  593loPI    C2 9474  16.306  11.622  11.172 -0.2286  0.1109 -0.1642
  593loPI    C3 9475  16.558  11.386  11.375 -0.2363  0.0846 -0.1851
  593loPI   PO4 9476  16.646  11.596  10.782  0.0307 -0.1062 -0.2516
  593loPI   GL1 9477  16.702  11.939  10.344  0.3325  0.1294  0.0596
  593loPI   GL2 9478  16.454  11.724  10.315 -0.2380  0.2105 -0.2207
  593loPI   C1A 9479  16.722  11.905   9.815  0.2468 -0.1899 -0.0532
  593loPI   C2A 9480  16.669  11.862   9.474 -0.1299  0.1094  0.0722
  593loPI   C3A 9481  16.655  11.909   9.017 -0.0667  0.5669  0.0850
  593loPI   C4A 9482  16.623  12.010   8.617 -0.0188 -0.4870 -0.3427
  593loPI   C5A 9483  16.558  11.689   8.161 -0.2867  0.3282 -0.1875
  593loPI   C6A 9484  16.225  11.490   8.091 -0.2669  0.2518 -0.5250
  593loPI   C1B 9485  16.368  11.494   9.925 -0.0757 -0.3159  0.0057
  593loPI   C2B 9486  16.406  11.454   9.483  0.0849 -0.3084  0.0148
  593loPI   C3B 9487  16.470  11.321   9.014 -0.1046  0.1674  0.0725
  593loPI   C4B 9488  16.390  11.526   8.640 -0.3771 -0.2715  0.2363
  594loPI    C1 9489   7.965  13.626   9.947  0.1422 -0.1289  0.0945
  594loPI    C2 9490   7.855  13.999  10.044 -0.1452 -0.1519 -0.1299
  594loPI    C3 9491   7.789  13.698  10.299 -0.2184 -0.0996 -0.0864
  594loPI   PO4 9492   7.919  13.621   9.680 -0.1012  0.2347 -0.0372
  594loPI   GL1 9493   8.038  13.423   9.383  0.1656 -0.3653 -0.1029
  594loPI   GL2 9494   7.766  13.287   9.324 -0.0270 -0.2095 -0.2582
  594loPI   C1A 9495   7.969  13.798   9.063 -0.0200 -0.0918 -0.0890
  594loPI   C2A 9496   7.834  14.092   8.681  0.0925  0.0568 -0.0274
  594loPI   C3A 9497   7.775  14.074   8.328  0.2659  0.1567 -0.0179
  594loPI   C4A 9498   7.610  14.094   7.937  0.1419  0.0918 -0.1727
  594loPI   C5A 9499   7.709  14.034   7.492 -0.0159 -0.2685  0.0115
  594loPI   C6A 9500   7.525  14.251   7.151  0.1528 -0.0312 -0.1054
  594loPI   C1B 9501   7.657  13.423   8.974 -0.2274  0.0791  0.0770
  594loPI   C2B 9502   7.433  13.471   8.597 -0.6401 -0.0201  0.0574
  594loPI   C3B 9503   7.270  13.413   8.238 -0.0074 -0.1001 -0.4096
  594loPI   C4B 9504   7.108  13.147   7.882  0.4798 -0.1153  0.1150
  595loPI    C1 9505   4.269  14.635  10.406 -0.1041  0.1236 -0.2014
  595loPI    C2 9506   4.646  14.770  10.405 -0.0298 -0.0698  0.1200
  595loPI    C3 9507   4.470  14.673  10.750 -0.3509 -0.0520 -0.0352
  595loPI   PO4 9508   4.237  14.679  10.137  0.0652 -0.1548  0.0465
  595loPI   GL1 9509   4.277  14.492   9.691 -0.0635 -0.1254 -0.0625
  595loPI   GL2 9510   4.389  14.625   9.369  0.1347 -0.1293  0.1673
  595loPI   C1A 9511   4.096  14.178   9.281 -0.4513 -0.0447 -0.0167
  595loPI   C2A 9512   4.035  14.089   8.824 -0.0679  0.1020 -0.1707
  595loPI   C3A 9513   3.935  14.163   8.381 -0.1834  0.2238 -0.0483
  595loPI   C4A 9514   3.802  14.162   7.860  0.0672  0.1111  0.1723
  595loPI   C5A 9515   3.644  13.915   7.487  0.1726 -0.1626 -0.0742
  595loPI   C6A 9516   3.702  13.973   6.953 -0.0167  0.0307  0.0876
  595loPI   C1B 9517   4.303  14.550   8.978  0.0755 -0.2243  0.1731
  595loPI   C2B 9518   4.229  14.587   8.569  0.0488 -0.0991 -0.0705
  595loPI   C3B 9519   4.207  14.631   8.137 -0.3522  0.0228  0.0893
  595loPI   C4B 9520   4.033  14.577   7.760  0.4038 -0.0090 -0.0392
  596loPI    C1 9521  10.557   9.469   9.885 -0.0466  0.0258 -0.0040
  596loPI    C2 9522  10.375   9.793   9.736 -0.1393 -0.0272 -0.0065
  596loPI    C3 9523  10.237   9.622  10.071 -0.0682 -0.0422  0.0153
  596loPI   PO4 9524  10.694   9.393   9.702  0.0047 -0.3228  0.1084
  596loPI   GL1 9525  10.838   9.494   9.278 -0.1923 -0.1570 -0.2060
  596loPI   GL2 9526  11.247   9.427   9.223 -0.2251  0.2845  0.0901
  596loPI   C1A 9527  10.867   9.351   8.875 -0.2571  0.0163  0.1975
  596loPI   C2A 9528  10.850   9.266   8.484 -0.3279  0.0026 -0.1180
  596loPI   C3A 9529  10.906   9.405   8.101 -0.0285  0.0672 -0.0021
  596loPI   C4A 9530  11.010   9.548   7.663  0.0583  0.2633 -0.2504
  596loPI   C5A 9531  10.905   9.643   7.253  0.0124  0.0991 -0.1245
  596loPI   C6A 9532  10.858   9.237   7.009  0.0541 -0.2026 -0.1850
  596loPI   C1B 9533  11.392   9.387   8.768 -0.1225 -0.2547  0.0494
  596loPI   C2B 9534  11.331   9.352   8.354  0.0169  0.2717  0.2443
  596loPI   C3B 9535  11.522   9.429   7.852  0.2433 -0.1645 -0.1000
  596loPI   C4B 9536  11.499   9.494   7.482 -0.1678  0.6247  0.4057
  597loPI    C1 9537  13.922  12.491  10.729  0.1792 -0.0418 -0.0230
  597loPI    C2 9538  13.860  12.156  10.521  0.1186 -0.0248 -0.0327
  597loPI    C3 9539  13.899  12.140  10.919  0.0303 -0.0335 -0.0240
  597loPI   PO4 9540  13.989  12.771  10.552 -0.0110  0.1857  0.3397
  597loPI   GL1 9541  13.950  12.832  10.164 -0.0398 -0.2825 -0.2654
  597loPI   GL2 9542  14.112  13.141  10.158 -0.1768  0.2808  0.0976
  597loPI   C1A 9543  14.011  12.667   9.722  0.2359 -0.1223 -0.0597
  597loPI   C2A 9544  14.062  12.819   9.279  0.1332 -0.0688 -0.0022
  597loPI   C3A 9545  14.106  12.751   8.869 -0.1056 -0.2837 -0.1856
  597loPI   C4A 9546  14.064  12.647   8.514  0.1732 -0.0707 -0.0298
  597loPI   C5A 9547  14.132  12.859   8.116 -0.0247 -0.0828 -0.3101
  597loPI   C6A 9548  14.178  12.884   7.714  0.2009 -0.4320  0.1385
  597loPI   C1B 9549  14.230  13.261   9.797  0.0181 -0.0227  0.3400
  597loPI   C2B 9550  14.268  13.227   9.459  0.3838 -0.0109 -0.1942
  597loPI   C3B 9551  14.289  13.243   8.998  0.1650  0.0659  0.1347
  597loPI   C4B 9552  14.222  13.185   8.495  0.0318  0.2188 -0.1606
  598loPI    C1 9553  18.483  18.349  10.399  0.0195  0.1613  0.0928
  598loPI    C2 9554  18.434  18.195  10.765  0.1096 -0.1896 -0.0389
  598loPI    C3 9555  18.319  18.570  10.689 -0.0690 -0.1712  0.3025
  598loPI   PO4 9556  18.379  18.206  10.229  0.3479 -0.1892 -0.1295
  598loPI   GL1 9557  18.457  18.154   9.769 -0.0485  0.0542  0.2247
  598loPI   GL2 9558  18.437  17.916   9.599 -0.2689 -0.0711 -0.1048
  598loPI   C1A 9559  18.615  18.398   9.318 -0.1213 -0.0747 -0.2295
  598loPI   C2A 9560  18.559  18.369   8.959 -0.0664  0.4279 -0.0355
  598loPI   C3A 9561  18.523  18.367   8.505  0.1182 -0.0400  0.2406
  598loPI   C4A 9562  18.581  18.314   8.093 -0.3080 -0.2287 -0.2776
  598loPI   C5A 9563  18.648  18.622   7.787 -0.3000 -0.0177  0.0115
  598loPI   C6A 9564  18.405  18.886   7.708  0.1706  0.2321  0.0742
  598loPI   C1B 9565  18.289  17.993   9.222 -0.2003 -0.0902 -0.0685
  598loPI   C2B 9566  18.362  17.921   8.753 -0.2034 -0.0140 -0.0307
  598loPI   C3B 9567  18.248  17.937   8.419  0.0297  0.0609 -0.1299
  598loPI   C4B 9568  18.297  17.865   8.046 -0.0833  0.2931  0.0438
  599loPI    C1 9569  12.205  14.730  10.117  0.0452 -0.0898 -0.0576
  599loPI    C2 9570  12.094  14.821  10.491  0.0514 -0.0530 -0.0648
  599loPI    C3 9571  12.206  14.448  10.401  0.0448 -0.0631 -0.0311
  599loPI   PO4 9572  11.852  14.826   9.926  0.4093 -0.2338 -0.0350
  599loPI   GL1 9573  11.856  15.212   9.621  0.1035 -0.0823  0.4400
  599loPI   GL2 9574  11.577  15.017   9.449  0.2768  0.1899  0.1134
  599loPI   C1A 9575  11.831  15.277   9.162  0.2496  0.1407 -0.0717
  599loPI   C2A 9576  11.833  15.332   8.727 -0.0090  0.2940 -0.0632
  599loPI   C3A 9577  11.737  15.247   8.216  0.2494 -0.2121 -0.0208
  599loPI   C4A 9578  11.607  15.226   7.832 -0.0290 -0.0901 -0.1535
  599loPI   C5A 9579  11.311  14.963   7.614  0.0411  0.2420  0.1555
  599loPI   C6A 9580  11.233  15.045   7.171  0.1481 -0.1391  0.1702
  599loPI   C1B 9581  11.290  15.096   9.038 -0.0435  0.0078  0.0654
  599loPI   C2B 9582  11.214  15.222   8.618  0.1244  0.1941  0.0643
  599loPI   C3B 9583  11.242  15.180   8.187 -0.2389  0.0637 -0.1448
  599loPI   C4B 9584  11.119  15.380   7.825  0.0117 -0.0738 -0.1312
  600loPI    C1 9585   2.957  17.828   9.981 -0.1598  0.1227  0.2422
  600loPI    C2 9586   2.774  17.713  10.318 -0.1927 -0.2049  0.1155
  600loPI    C3 9587   2.642  18.033  10.118 -0.2427 -0.0759  0.3524
  600loPI   PO4 9588   2.976  17.548   9.877  0.3027 -0.1979  0.1213
  600loPI   GL1 9589   2.889  17.602   9.437  0.0610 -0.0631 -0.0773
  600loPI   GL2 9590   3.221  17.540   9.451 -0.0163 -0.0797 -0.1305
  600loPI   C1A 9591   2.801  17.570   8.943 -0.0240  0.2251  0.0949
  600loPI   C2A 9592   2.935  17.709   8.467  0.1181  0.0418 -0.0644
  600loPI   C3A 9593   2.812  17.590   8.060 -0.4539  0.0699 -0.0056
  600loPI   C4A 9594   2.631  17.807   7.678 -0.3644  0.0028  0.1215
  600loPI   C5A 9595   2.550  18.183   7.341  0.1686 -0.0699  0.1643
  600loPI   C6A 9596   2.690  18.427   7.101 -0.0885 -0.2475  0.0883
  600loPI   C1B 9597   3.427  17.635   9.011  0.1267  0.0315 -0.1584
  600loPI   C2B 9598   3.441  17.700   8.582 -0.1903  0.1949  0.1492
  600loPI   C3B 9599   3.332  17.585   8.209  0.0379 -0.0982  0.0793
  600loPI   C4B 9600   3.283  17.674   7.757 -0.0820 -0.0467 -0.1721
  601loPI    C1 9601   4.849   7.317  10.425  0.0878  0.0106 -0.0684
  601loPI    C2 9602   5.094   7.342  10.741  0.0822  0.0530 -0.0671
  601loPI    C3 9603   4.732   7.176  10.781  0.0326  0.1713 -0.0218
  601loPI   PO4 9604   4.926   7.324  10.228  0.3836 -0.1229 -0.0096
  601loPI   GL1 9605   4.996   7.676   9.807 -0.3166  0.1043 -0.4598
  601loPI   GL2 9606   4.756   7.445   9.731 -0.0428 -0.0862 -0.0999
  601loPI   C1A 9607   5.309   7.731   9.454 -0.1824  0.1208 -0.1623
  601loPI   C2A 9608   5.380   7.586   9.060 -0.0610 -0.2115 -0.1635
  601loPI   C3A 9609   5.218   7.747   8.634 -0.2548  0.1507 -0.3599
  601loPI   C4A 9610   5.159   7.632   8.303  0.1898 -0.0284  0.0942
  601loPI   C5A 9611   5.008   7.371   7.915 -0.0251 -0.5433 -0.0679
  601loPI   C6A 9612   4.691   7.222   7.685 -0.1130 -0.2380 -0.1516
  601loPI   C1B 9613   4.790   7.550   9.333  0.3160  0.1161  0.0016
  601loPI   C2B 9614   4.798   7.594   8.885  0.0987 -0.1619 -0.2144
  601loPI   C3B 9615   4.707   7.625   8.411 -0.4533 -0.0001  0.2803
  601loPI   C4B 9616   4.578   7.662   7.985  0.1906  0.0588 -0.1339
  602loPI    C1 9617  16.845  10.477  11.272 -0.1406  0.0371  0.1849
  602loPI    C2 9618  17.075  10.538  11.593 -0.1077 -0.0096  0.1706
  602loPI    C3 9619  17.022  10.167  11.453 -0.2220 -0.0032  0.1962
  602loPI   PO4 9620  16.961  10.645  11.064  0.1273  0.3912  0.2251
  602loPI   GL1 9621  17.081  10.833  10.687 -0.4652  0.0233  0.1949
  602loPI   GL2 9622  16.897  10.641  10.610 -0.2475 -0.0377 -0.2373
  602loPI   C1A 9623  17.166  10.998  10.252 -0.0328  0.3060 -0.0258
  602loPI   C2A 9624  17.196  11.072   9.753 -0.2557 -0.0506  0.2302
  602loPI   C3A 9625  17.201  11.054   9.261 -0.0132  0.0610  0.1854
  602loPI   C4A 9626  17.173  10.908   8.865 -0.3263  0.0785 -0.2091
  602loPI   C5A 9627  17.220  10.887   8.477  0.0596 -0.2148 -0.0437
  602loPI   C6A 9628  17.352  10.783   8.003  0.1184 -0.0013 -0.1210
  602loPI   C1B 9629  17.229  10.489  10.257  0.3935  0.3560  0.0433
  602loPI   C2B 9630  17.513  10.594   9.973  0.2048 -0.0415  0.2063
  602loPI   C3B 9631  17.447  10.672   9.577  0.0251  0.0395  0.0557
  602loPI   C4B 9632  17.448  10.631   9.191 -0.1787 -0.1087  0.3337
  603loPI    C1 9633  16.933  18.573  10.947  0.1130 -0.2506 -0.1948
  603loPI    C2 9634  16.624  18.597  11.199  0.2391 -0.1378 -0.0493
  603loPI    C3 9635  16.972  18.772  11.292  0.1693  0.2470 -0.4782
  603loPI   PO4 9636  16.793  18.670  10.694  0.2003 -0.0541  0.1956
  603loPI   GL1 9637  16.923  18.625  10.326 -0.0492 -0.0920 -0.1575
  603loPI   GL2 9638  17.181  18.870  10.152 -0.0166  0.3032  0.2745
  603loPI   C1A 9639  16.761  18.761   9.908 -0.0112 -0.0785 -0.0758
  603loPI   C2A 9640  16.780  18.786   9.418 -0.0380 -0.2128  0.1891
  603loPI   C3A 9641  16.772  18.863   8.984 -0.1600 -0.3160 -0.1126
  603loPI   C4A 9642  16.661  18.567   8.552 -0.0237  0.1716 -0.2068
  603loPI   C5A 9643  16.637  18.607   8.104  0.0150  0.2996 -0.0101
  603loPI   C6A 9644  16.744  18.791   7.792  0.2812  0.1093 -0.2856
  603loPI   C1B 9645  17.248  18.777   9.774 -0.2420  0.0071  0.0087
  603loPI   C2B 9646  17.268  18.809   9.232  0.1014  0.1955 -0.0527
  603loPI   C3B 9647  17.221  18.796   8.768 -0.1010  0.0535 -0.0026
  603loPI   C4B 9648  17.106  18.750   8.325 -0.1873  0.0023  0.1499
  604loPI    C1 9649  15.879  11.307  10.616 -0.1050 -0.2515  0.0843
  604loPI    C2 9650  16.261  11.304  10.498 -0.1070 -0.0978  0.0702
  604loPI    C3 9651  16.166  11.207  10.875 -0.0624 -0.2110  0.0530
  604loPI   PO4 9652  15.802  11.234  10.422 -0.0080  0.0910  0.1545
  604loPI   GL1 9653  16.058  10.983  10.094  0.2170 -0.2202  0.0748
  604loPI   GL2 9654  16.096  10.707  10.119  0.2061  0.2000 -0.2322
  604loPI   C1A 9655  16.151  10.928   9.631  0.0257 -0.1888 -0.1728
  604loPI   C2A 9656  16.132  10.970   9.157 -0.0572  0.1057  0.1703
  604loPI   C3A 9657  16.214  10.917   8.712  0.2082 -0.0523  0.2812
  604loPI   C4A 9658  16.236  11.106   8.382  0.1003  0.2946  0.2022
  604loPI   C5A 9659  16.311  10.761   8.145 -0.1030 -0.0235 -0.0436
  604loPI   C6A 9660  16.105  10.465   7.763 -0.1631  0.0165 -0.1823
  604loPI   C1B 9661  16.371  10.552   9.891  0.1126  0.0234  0.0399
  604loPI   C2B 9662  16.491  10.570   9.419  0.1314  0.0245 -0.1761
  604loPI   C3B 9663  16.383  10.426   8.942 -0.0097 -0.1697 -0.1022
  604loPI   C4B 9664  16.555  10.580   8.544  0.2592  0.0095  0.3982
  605loPI    C1 9665  17.147   2.321  11.039 -0.0124  0.0034  0.0224
  605loPI    C2 9666  16.947   2.106  11.311  0.1069 -0.3430 -0.1578
  605loPI    C3 9667  17.289   1.967  11.158  0.3065  0.0821 -0.1135
  605loPI   PO4 9668  17.000   2.500  10.942  0.3732  0.5012 -0.5964
  605loPI   GL1 9669  16.824   2.618  10.584 -0.3993  0.0214  0.0641
  605loPI   GL2 9670  17.091   2.427  10.491  0.0174  0.1744 -0.0613
  605loPI   C1A 9671  16.632   2.684  10.231  0.1327  0.0952 -0.0434
  605loPI   C2A 9672  16.485   2.608   9.820  0.4377  0.0126 -0.2107
  605loPI   C3A 9673  16.533   2.688   9.423  0.1063  0.2070 -0.1257
  605loPI   C4A 9674  16.662   2.680   8.941 -0.1147 -0.1662 -0.1158
  605loPI   C5A 9675  16.682   2.653   8.548  0.0369 -0.0228  0.0915
  605loPI   C6A 9676  16.806   2.626   8.201 -0.1712 -0.2261  0.1641
  605loPI   C1B 9677  17.108   2.457  10.112 -0.2381 -0.0014 -0.0913
  605loPI   C2B 9678  17.124   2.604   9.756 -0.0044 -0.0899  0.0392
  605loPI   C3B 9679  17.078   2.734   9.297  0.2545  0.2528  0.0381
  605loPI   C4B 9680  17.150   2.695   8.801 -0.1246 -0.0258  0.0074
  606loPI    C1 9681   7.349   6.899  10.331 -0.0726 -0.1075 -0.0612
  606loPI    C2 9682   7.600   6.726  10.071  0.0242  0.0664 -0.0847
  606loPI    C3 9683   7.728   6.824  10.437 -0.0936 -0.1175  0.0071
  606loPI   PO4 9684   7.171   7.006  10.166 -0.1906  0.1675  0.4655
  606loPI   GL1 9685   7.112   7.144   9.712 -0.4015  0.1854 -0.2025
  606loPI   GL2 9686   6.802   6.917   9.554 -0.0161 -0.3003  0.1607
  606loPI   C1A 9687   7.170   7.304   9.302 -0.0116 -0.1395 -0.0341
  606loPI   C2A 9688   7.123   7.268   8.882  0.0065 -0.2239  0.1235
  606loPI   C3A 9689   7.111   7.366   8.395 -0.0096  0.0048  0.2228
  606loPI   C4A 9690   7.153   7.497   7.903  0.3318 -0.1301 -0.0003
  606loPI   C5A 9691   7.253   7.731   7.505 -0.2045 -0.0730 -0.0914
  606loPI   C6A 9692   6.856   7.911   7.213 -0.0581 -0.2655 -0.2264
  606loPI   C1B 9693   6.884   6.839   9.079 -0.0053 -0.0065  0.5312
  606loPI   C2B 9694   6.947   6.765   8.718  0.0878  0.0172 -0.0472
  606loPI   C3B 9695   6.976   6.869   8.302 -0.2222 -0.1051 -0.0718
  606loPI   C4B 9696   7.096   7.008   7.870 -0.1677  0.3205  0.0345
  607loPI    C1 9697   3.506  10.121  10.455  0.2260  0.1478 -0.0946
  607loPI    C2 9698   3.177  10.332  10.543  0.0465 -0.3187  0.4133
  607loPI    C3 9699   3.539  10.491  10.603 -0.0785  0.0810  0.1513
  607loPI   PO4 9700   3.514  10.104  10.183 -0.0578  0.2957 -0.3957
  607loPI   GL1 9701   3.412   9.893   9.866  0.3373  0.1208  0.4024
  607loPI   GL2 9702   3.158  10.180   9.806  0.2029 -0.1067  0.2096
  607loPI   C1A 9703   3.409   9.793   9.381 -0.2239 -0.2102 -0.1643
  607loPI   C2A 9704   3.459   9.829   8.940 -0.1282  0.0447  0.0262
  607loPI   C3A 9705   3.282   9.792   8.597  0.0969 -0.2353 -0.2520
  607loPI   C4A 9706   3.386   9.912   8.216 -0.2171 -0.0430  0.0365
  607loPI   C5A 9707   3.342  10.104   7.831 -0.0552 -0.5181 -0.0238
  607loPI   C6A 9708   3.390  10.433   7.474  0.1362  0.1527  0.1896
  607loPI   C1B 9709   3.113  10.348   9.421 -0.0934 -0.0276  0.3398
  607loPI   C2B 9710   2.986  10.261   9.032 -0.0884  0.2203  0.2272
  607loPI   C3B 9711   3.108  10.263   8.666  0.1879  0.0228 -0.2171
  607loPI   C4B 9712   3.182  10.348   8.258  0.2690  0.1220  0.0702
  608loPI    C1 9713   9.477   4.296  10.426  0.1741 -0.1697  0.1230
  608loPI    C2 9714   9.434   4.664  10.576  0.2964 -0.0953 -0.0229
  608loPI    C3 9715   9.374   4.345  10.810  0.3959  0.0185  0.1605
  608loPI   PO4 9716   9.379   4.286  10.244  0.1832  0.1307  0.3800
  608loPI   GL1 9717   9.413   4.096   9.871  0.0837 -0.0118  0.4691
  608loPI   GL2 9718   9.696   4.057   9.804  0.0686  0.0159  0.0622
  608loPI   C1A 9719   9.041   4.124   9.629  0.0329  0.2273  0.1808
  608loPI   C2A 9720   9.013   4.175   9.144 -0.0307 -0.0955 -0.2538
  608loPI   C3A 9721   9.169   4.198   8.666 -0.1256 -0.0078  0.1734
  608loPI   C4A 9722   9.156   4.109   8.160 -0.0469 -0.1836  0.2748
  608loPI   C5A 9723   9.340   4.191   7.796 -0.0658 -0.1126  0.0818
  608loPI   C6A 9724   9.358   4.152   7.393  0.0707 -0.2611  0.0639
  608loPI   C1B 9725   9.606   4.137   9.380 -0.0681  0.2792 -0.0797
  608loPI   C2B 9726   9.693   4.134   8.826  0.0721  0.2884  0.1284
  608loPI   C3B 9727   9.718   4.103   8.412  0.3269  0.0834  0.0069
  608loPI   C4B 9728   9.763   4.246   8.047  0.3419  0.0533  0.2025
  609loPI    C1 9729   6.214   4.510  10.184 -0.3362 -0.4876  0.0710
  609loPI    C2 9730   6.539   4.430  10.403 -0.2186 -0.2600 -0.0181
  609loPI    C3 9731   6.428   4.179  10.112  0.0048 -0.2290 -0.1326
  609loPI   PO4 9732   6.273   4.786  10.181  0.2275 -0.1715  0.2795
  609loPI   GL1 9733   6.058   5.129   9.830 -0.2695 -0.0566 -0.2204
  609loPI   GL2 9734   5.919   4.829   9.829  0.2019 -0.3077  0.0181
  609loPI   C1A 9735   5.804   5.355   9.519 -0.1556 -0.2006 -0.3464
  609loPI   C2A 9736   5.750   5.386   9.081  0.1462  0.2406  0.4139
  609loPI   C3A 9737   5.602   5.323   8.714 -0.2542 -0.1990  0.0918
  609loPI   C4A 9738   5.726   5.304   8.354  0.3217  0.0630 -0.2273
  609loPI   C5A 9739   5.777   5.261   7.940  0.5190 -0.1276 -0.2170
  609loPI   C6A 9740   6.106   5.147   7.675 -0.1653 -0.0661 -0.1929
  609loPI   C1B 9741   5.986   4.934   9.367 -0.0778 -0.2131  0.1220
  609loPI   C2B 9742   5.973   4.951   8.964 -0.1041  0.0431 -0.0184
  609loPI   C3B 9743   6.136   4.854   8.511  0.1162  0.0424 -0.0363
  609loPI   C4B 9744   6.044   4.895   8.150 -0.1352  0.1422 -0.1603
  610loPI    C1 9745   8.129   5.508  10.276 -0.0461 -0.1104 -0.2278
  610loPI    C2 9746   7.868   5.321  10.515 -0.0952  0.0422 -0.1614
  610loPI    C3 9747   8.233   5.413  10.650 -0.1235  0.1298 -0.1441
  610loPI   PO4 9748   8.045   5.388  10.054  0.2250 -0.1452  0.1367
  610loPI   GL1 9749   8.117   5.389   9.697  0.0427  0.3054  0.0334
  610loPI   GL2 9750   8.374   5.563   9.599 -0.0802 -0.0566 -0.3322
  610loPI   C1A 9751   7.760   5.408   9.326  0.2896  0.1882 -0.4141
  610loPI   C2A 9752   7.757   5.385   8.940 -0.0298 -0.0438  0.2580
  610loPI   C3A 9753   7.790   5.385   8.483  0.0928  0.0062 -0.2154
  610loPI   C4A 9754   7.955   5.346   8.069  0.2128  0.1242 -0.3118
  610loPI   C5A 9755   7.923   5.632   7.777 -0.2082  0.2544 -0.3335
  610loPI   C6A 9756   8.178   6.038   7.670 -0.0917  0.0641  0.2305
  610loPI   C1B 9757   8.236   5.430   9.186 -0.1050 -0.0486  0.0224
  610loPI   C2B 9758   8.300   5.451   8.791 -0.1694 -0.2283  0.2829
  610loPI   C3B 9759   8.301   5.596   8.323  0.0022  0.2479 -0.0006
  610loPI   C4B 9760   8.407   5.637   7.942 -0.0820 -0.1705  0.2382
  611loPI    C1 9761   8.404  13.963   9.936  0.2470  0.0244  0.0727
  611loPI    C2 9762   8.625  13.702  10.143  0.0495 -0.1388  0.0817
  611loPI    C3 9763   8.258  13.797  10.269  0.0167 -0.0627 -0.0690
  611loPI   PO4 9764   8.652  14.010   9.731  0.0670 -0.2509 -0.0121
  611loPI   GL1 9765   8.667  13.919   9.302 -0.0312  0.0181  0.1378
  611loPI   GL2 9766   8.490  13.678   9.117  0.1511  0.0106 -0.1794
  611loPI   C1A 9767   8.585  14.141   8.938 -0.2409  0.1083  0.1072
  611loPI   C2A 9768   8.479  14.027   8.512 -0.0302 -0.1108 -0.2672
  611loPI   C3A 9769   8.228  13.909   8.284  0.3249  0.2319 -0.0599
  611loPI   C4A 9770   8.070  13.917   7.858  0.0601 -0.1056  0.0921
  611loPI   C5A 9771   8.310  14.038   7.426  0.3667 -0.1740 -0.2466
  611loPI   C6A 9772   8.587  14.184   7.075  0.0568  0.0021  0.0888
  611loPI   C1B 9773   8.283  13.615   8.738  0.0756  0.3317 -0.1784
  611loPI   C2B 9774   7.927  13.632   8.605 -0.0564  0.2152 -0.1605
  611loPI   C3B 9775   7.704  13.604   8.224  0.1596  0.0448  0.2998
  611loPI   C4B 9776   7.356  13.647   7.851  0.1838 -0.4815  0.2875
  612loPI    C1 9777  10.496   3.072  10.139  0.4907  0.0760 -0.0269
  612loPI    C2 9778  10.481   3.472  10.148  0.2297  0.0673 -0.0094
  612loPI    C3 9779  10.357   3.259  10.464  0.1230 -0.0323 -0.1170
  612loPI   PO4 9780  10.379   2.949   9.970 -0.0579 -0.1617 -0.1407
  612loPI   GL1 9781  10.267   2.730   9.647 -0.2652 -0.0333 -0.1174
  612loPI   GL2 9782  10.041   2.631   9.531  0.2650  0.0700 -0.0902
  612loPI   C1A 9783  10.560   2.791   9.327 -0.1024  0.0807  0.1591
  612loPI   C2A 9784  10.544   2.786   8.981  0.1561 -0.4605 -0.2186
  612loPI   C3A 9785  10.517   2.889   8.648 -0.0268  0.1036 -0.1311
  612loPI   C4A 9786  10.624   2.816   8.268  0.0863 -0.1355  0.2862
  612loPI   C5A 9787  10.637   2.873   7.848  0.1092 -0.3176 -0.1157
  612loPI   C6A 9788  10.363   3.015   7.490  0.1089  0.0331  0.1758
  612loPI   C1B 9789  10.001   2.828   9.159 -0.0870 -0.1089  0.0164
  612loPI   C2B 9790  10.038   2.879   8.695  0.0055  0.1762 -0.3728
  612loPI   C3B 9791  10.023   2.831   8.366 -0.3531 -0.2554 -0.2187
  612loPI   C4B 9792  10.126   2.875   7.946  0.0130 -0.1567 -0.1373
  613loPI    C1 9793  10.930  11.600  10.060 -0.2393 -0.0046 -0.1448
  613loPI    C2 9794  11.101  11.604  10.422  0.3542 -0.2743 -0.4088
  613loPI    C3 9795  10.778  11.828  10.351  0.3130 -0.1085  0.2419
  613loPI   PO4 9796  11.185  11.619   9.932 -0.0158  0.2671 -0.5058
  613loPI   GL1 9797  11.306  11.503   9.490  0.4874  0.1482 -0.1421
  613loPI   GL2 9798  11.170  11.622   9.212 -0.2706 -0.3438  0.0102
  613loPI   C1A 9799  11.640  11.277   9.218 -0.1386  0.0131  0.1764
  613loPI   C2A 9800  11.820  11.199   8.847 -0.0617  0.0434  0.1566
  613loPI   C3A 9801  11.906  11.188   8.422 -0.2991  0.2831 -0.3183
  613loPI   C4A 9802  11.798  11.106   7.980 -0.1009  0.3416  0.1982
  613loPI   C5A 9803  11.589  11.306   7.655  0.1793 -0.2419  0.2842
  613loPI   C6A 9804  11.596  11.505   7.280  0.3141 -0.2245  0.2458
  613loPI   C1B 9805  11.300  11.610   8.770 -0.0846  0.1139  0.0936
  613loPI   C2B 9806  11.589  11.577   8.433  0.3121 -0.0195  0.0974
  613loPI   C3B 9807  11.742  11.553   8.039 -0.2256  0.1939  0.1296
  613loPI   C4B 9808  11.700  11.870   7.604 -0.0336  0.1674 -0.2545
  614loPI    C1 9809  13.690  17.836  10.533  0.3436  0.1409 -0.0964
  614loPI    C2 9810  13.717  17.438  10.565 -0.0174  0.1024 -0.2279
  614loPI    C3 9811  13.539  17.650  10.854  0.3843  0.1983 -0.0436
  614loPI   PO4 9812  13.798  17.822  10.295 -0.1221 -0.3941 -0.0629
  614loPI   GL1 9813  13.711  17.876   9.871 -0.1487  0.1412 -0.0184
  614loPI   GL2 9814  13.508  17.593   9.662 -0.2682 -0.0443 -0.1300
  614loPI   C1A 9815  13.718  18.072   9.470 -0.1121  0.1152 -0.3304
  614loPI   C2A 9816  13.732  18.145   9.143  0.3080 -0.2418  0.0670
  614loPI   C3A 9817  13.800  18.222   8.736  0.2748 -0.0071  0.3412
  614loPI   C4A 9818  13.763  18.215   8.323 -0.1345 -0.0843  0.0503
  614loPI   C5A 9819  13.711  18.246   7.863 -0.2353  0.2351  0.1324
  614loPI   C6A 9820  13.493  18.349   7.381  0.0452 -0.0888  0.1734
  614loPI   C1B 9821  13.466  17.618   9.248  0.3112 -0.3408 -0.1224
  614loPI   C2B 9822  13.351  17.623   8.839 -0.2700 -0.0459  0.0667
  614loPI   C3B 9823  13.414  17.664   8.446 -0.1343  0.1990 -0.1736
  614loPI   C4B 9824  13.536  17.770   8.018  0.0720 -0.0484 -0.1443
  615loPI    C1 9825   0.337   8.600  10.473  0.1224  0.1108  0.2453
  615loPI    C2 9826   0.159   8.280  10.632  0.0252  0.0916  0.0998
  615loPI    C3 9827   0.045   8.647  10.742 -0.1354  0.0800 -0.0234
  615loPI   PO4 9828   0.326   8.565  10.220  0.2708 -0.0084  0.1356
  615loPI   GL1 9829   0.592   8.506   9.909 -0.0284 -0.1515  0.1728
  615loPI   GL2 9830   0.485   8.235   9.781  0.0256  0.3682  0.0045
  615loPI   C1A 9831   0.787   8.805   9.617  0.2951  0.1156 -0.0995
  615loPI   C2A 9832   0.658   8.795   9.156 -0.1473 -0.1949  0.0135
  615loPI   C3A 9833   0.724   8.834   8.700  0.1445 -0.0135  0.0144
  615loPI   C4A 9834   0.787   8.744   8.225 -0.0858  0.0968  0.0934
  615loPI   C5A 9835   0.828   8.631   7.854 -0.0565 -0.1873  0.0900
  615loPI   C6A 9836   1.173   8.642   7.599  0.0762 -0.1662  0.1632
  615loPI   C1B 9837   0.509   8.396   9.420  0.1570  0.1078 -0.1374
  615loPI   C2B 9838   0.480   8.317   9.000  0.1072  0.2589  0.0102
  615loPI   C3B 9839   0.525   8.282   8.584 -0.1577  0.0941  0.2148
  615loPI   C4B 9840   0.517   8.289   8.087  0.1527 -0.3742  0.1253
  616loPI    C1 9841   2.486   2.090  10.503  0.1643  0.0245 -0.0467
  616loPI    C2 9842   2.442   2.452  10.668 -0.1188 -0.0643  0.0795
  616loPI    C3 9843   2.475   2.129  10.901  0.1008 -0.1251 -0.0330
  616loPI   PO4 9844   2.323   2.037  10.332 -0.3254 -0.0138  0.1861
  616loPI   GL1 9845   2.354   1.937   9.936  0.2298  0.0108  0.3173
  616loPI   GL2 9846   2.403   1.637   9.789  0.1002 -0.1031  0.4312
  616loPI   C1A 9847   2.100   2.011   9.567  0.1977 -0.1221  0.2997
  616loPI   C2A 9848   2.099   2.009   9.101 -0.0689 -0.1992  0.0963
  616loPI   C3A 9849   1.858   1.965   8.729 -0.0370  0.1134 -0.0741
  616loPI   C4A 9850   1.962   1.916   8.353 -0.0111  0.1099  0.0525
  616loPI   C5A 9851   1.998   1.932   7.811 -0.0345 -0.0600 -0.0122
  616loPI   C6A 9852   2.293   2.058   7.419 -0.3394 -0.0440  0.1622
  616loPI   C1B 9853   2.296   1.591   9.339  0.0694 -0.1908 -0.0424
  616loPI   C2B 9854   2.204   1.540   8.926 -0.3676 -0.0662  0.3807
  616loPI   C3B 9855   2.186   1.531   8.504 -0.1157 -0.0891 -0.2360
  616loPI   C4B 9856   2.312   1.520   8.038  0.0020  0.2346 -0.0449
  617loPI    C1 9857   6.180  18.773  10.099  0.0648  0.2669  0.0861
  617loPI    C2 9858   5.859  18.680  10.318  0.1418 -0.0271  0.0781
  617loPI    C3 9859   6.207  18.757  10.498  0.1764 -0.1535  0.0658
  617loPI   PO4 9860   6.119  18.825   9.856 -0.5404 -0.0475 -0.0530
  617loPI   GL1 9861   5.932  18.798   9.432  0.0544  0.0554 -0.0814
  617loPI   GL2 9862   5.702  19.093   9.496  0.1641 -0.2009  0.0707
  617loPI   C1A 9863   6.024  18.748   8.993  0.0213 -0.0641  0.1434
  617loPI   C2A 9864   5.958  18.728   8.501  0.0023 -0.0636 -0.0997
  617loPI   C3A 9865   5.950  18.665   8.110 -0.1884  0.1282 -0.1070
  617loPI   C4A 9866   5.891  18.753   7.714 -0.3892 -0.0923 -0.0712
  617loPI   C5A 9867   5.707  18.922   7.420  0.1648 -0.0615  0.0673
  617loPI   C6A 9868   5.337  19.012   7.244  0.0003  0.1173  0.1490
  617loPI   C1B 9869   5.679  19.156   9.127  0.1701  0.4623  0.1330
  617loPI   C2B 9870   5.731  19.080   8.781  0.0109  0.0855 -0.0743
  617loPI   C3B 9871   5.623  19.202   8.474  0.0990  0.0533 -0.2412
  617loPI   C4B 9872   5.635  19.166   8.040 -0.1143 -0.3255 -0.0475
  618loPI    C1 9873  16.909   5.958  10.821 -0.3044  0.0107  0.1358
  618loPI    C2 9874  16.866   5.607  11.009 -0.4107 -0.1014 -0.0944
  618loPI    C3 9875  16.901   5.944  11.221  0.2330 -0.3049  0.1441
  618loPI   PO4 9876  16.844   5.806  10.532  0.1694 -0.2646  0.0619
  618loPI   GL1 9877  16.753   5.672  10.255  0.1485 -0.0224 -0.1094
  618loPI   GL2 9878  16.908   5.461  10.070 -0.1582 -0.2178  0.2006
  618loPI   C1A 9879  16.728   5.864   9.803  0.0812 -0.1766 -0.1631
  618loPI   C2A 9880  16.812   5.933   9.430 -0.2543  0.0510 -0.0314
  618loPI   C3A 9881  16.843   5.902   9.034  0.0438 -0.1467 -0.0173
  618loPI   C4A 9882  16.826   5.780   8.663  0.0938  0.2357  0.2084
  618loPI   C5A 9883  16.588   5.563   8.292 -0.0226  0.0814 -0.0935
  618loPI   C6A 9884  16.311   5.245   8.310  0.1400  0.0657 -0.5289
  618loPI   C1B 9885  17.080   5.459   9.649  0.3268 -0.3266  0.1578
  618loPI   C2B 9886  17.041   5.481   9.308  0.0330  0.0674  0.2746
  618loPI   C3B 9887  17.017   5.401   8.808 -0.0297  0.2514 -0.0088
  618loPI   C4B 9888  16.944   5.273   8.378 -0.0158  0.1626 -0.3137
  619loPI    C1 9889   1.143  16.162  10.228  0.0233 -0.0116 -0.0179
  619loPI    C2 9890   0.915  16.455  10.080 -0.4039 -0.0674  0.5021
  619loPI    C3 9891   1.246  16.545  10.286 -0.1879  0.0253  0.1239
  619loPI   PO4 9892   1.069  15.957  10.029 -0.2359  0.0355  0.1973
  619loPI   GL1 9893   0.891  15.932   9.602 -0.0388 -0.0339 -0.2511
  619loPI   GL2 9894   1.126  15.710   9.559 -0.1018  0.0656 -0.2710
  619loPI   C1A 9895   0.935  16.140   9.158  0.1608 -0.1787 -0.1385
  619loPI   C2A 9896   0.959  16.094   8.759 -0.0673  0.3198 -0.4942
  619loPI   C3A 9897   1.037  16.128   8.447 -0.1475  0.3021  0.0547
  619loPI   C4A 9898   0.954  16.088   8.090  0.0391  0.1174 -0.2750
  619loPI   C5A 9899   0.980  16.169   7.775  0.3069 -0.1540 -0.1546
  619loPI   C6A 9900   1.220  16.191   7.418  0.0453 -0.4333 -0.1484
  619loPI   C1B 9901   1.268  15.758   9.104  0.2314 -0.0979 -0.1835
  619loPI   C2B 9902   1.290  15.701   8.712  0.1192  0.0415 -0.0219
  619loPI   C3B 9903   1.213  15.677   8.240  0.0803  0.5087 -0.3391
  619loPI   C4B 9904   1.357  15.658   7.770  0.1180 -0.2468  0.0226
  620loPI    C1 9905  11.815  12.377  10.364 -0.0469  0.2790  0.1131
  620loPI    C2 9906  11.894  12.412  10.755  0.0002 -0.4808  0.1866
  620loPI    C3 9907  11.515  12.394  10.628 -0.0276  0.1815  0.1418
  620loPI   PO4 9908  12.018  12.672  10.243  0.0247  0.0049 -0.2324
  620loPI   GL1 9909  12.059  12.771   9.793 -0.0468 -0.0093 -0.0244
  620loPI   GL2 9910  11.756  12.818   9.755  0.0717 -0.1290 -0.3285
  620loPI   C1A 9911  12.479  12.750   9.473  0.2457 -0.1724  0.1066
  620loPI   C2A 9912  12.516  12.740   8.978  0.1526  0.2821 -0.1231
  620loPI   C3A 9913  12.420  12.617   8.560 -0.0938 -0.1748 -0.1555
  620loPI   C4A 9914  12.612  12.658   8.112  0.0342  0.2466  0.0342
  620loPI   C5A 9915  12.855  12.921   7.926  0.2527  0.1159 -0.2058
  620loPI   C6A 9916  13.301  13.005   7.858 -0.2864 -0.3495  0.2084
  620loPI   C1B 9917  11.897  12.838   9.324 -0.1305 -0.0003 -0.0104
  620loPI   C2B 9918  12.079  12.876   8.847 -0.0158 -0.0275  0.0984
  620loPI   C3B 9919  12.156  13.000   8.417  0.0129  0.2792 -0.1839
  620loPI   C4B 9920  11.983  13.323   8.196  0.0077 -0.0471 -0.1379
  621loPI    C1 9921  11.461  10.148  10.167  0.0096 -0.1910 -0.1137
  621loPI    C2 9922  11.090  10.299  10.165  0.1277  0.1086  0.0065
  621loPI    C3 9923  11.214  10.077  10.474  0.1220  0.1979  0.0732
  621loPI   PO4 9924  11.480  10.039   9.912  0.0294  0.2351 -0.2025
  621loPI   GL1 9925  11.437  10.115   9.562 -0.4946  0.0802 -0.0710
  621loPI   GL2 9926  11.078  10.265   9.559  0.4694 -0.0180  0.1146
  621loPI   C1A 9927  11.567   9.904   9.146  0.2192  0.0415  0.1271
  621loPI   C2A 9928  11.533   9.895   8.778  0.1356 -0.0877 -0.1861
  621loPI   C3A 9929  11.566   9.818   8.224 -0.0686 -0.0526 -0.7809
  621loPI   C4A 9930  11.445   9.930   7.785 -0.1959 -0.0108 -0.0579
  621loPI   C5A 9931  11.304   9.920   7.397 -0.1215  0.1467 -0.1332
  621loPI   C6A 9932  11.379   9.978   6.944  0.0203 -0.1971 -0.0776
  621loPI   C1B 9933  11.034  10.000   9.272 -0.0710  0.0022  0.0465
  621loPI   C2B 9934  11.051   9.844   8.876  0.1473  0.0198  0.4119
  621loPI   C3B 9935  11.071   9.782   8.518 -0.1166 -0.1783  0.4123
  621loPI   C4B 9936  11.060   9.847   8.133 -0.1286 -0.1516 -0.2246
  622loPI    C1 9937   1.283   1.160  10.357  0.0745  0.0159 -0.0336
  622loPI    C2 9938   1.067   0.890  10.558  0.0507 -0.0877 -0.1970
  622loPI    C3 9939   1.185   1.226  10.739 -0.0928 -0.1139 -0.0530
  622loPI   PO4 9940   1.186   1.232  10.159 -0.0426  0.0460  0.1787
  622loPI   GL1 9941   1.311   1.567   9.859 -0.1017  0.1532 -0.0178
  622loPI   GL2 9942   1.479   1.309   9.741 -0.3704  0.2613 -0.3824
  622loPI   C1A 9943   1.116   1.536   9.432  0.0991  0.2509 -0.0682
  622loPI   C2A 9944   1.099   1.415   8.996 -0.0475  0.3418  0.2376
  622loPI   C3A 9945   1.123   1.452   8.603  0.2492  0.3531 -0.5922
  622loPI   C4A 9946   1.142   1.445   8.126  0.0777 -0.1895 -0.2034
  622loPI   C5A 9947   0.953   1.552   7.768  0.0396  0.0181 -0.0574
  622loPI   C6A 9948   0.507   1.393   7.674  0.1266 -0.0219  0.1245
  622loPI   C1B 9949   1.543   1.125   9.290  0.3823  0.0124 -0.1092
  622loPI   C2B 9950   1.428   0.974   8.897 -0.4440  0.0479  0.0987
  622loPI   C3B 9951   1.432   0.999   8.476 -0.0563  0.1407 -0.3642
  622loPI   C4B 9952   1.493   0.978   8.137 -0.1834 -0.3495  0.0532
  623loPI    C1 9953   0.472   5.614  10.855  0.1934 -0.1357  0.1485
  623loPI    C2 9954   0.467   5.369  11.171 -0.1384  0.0487  0.2920
  623loPI    C3 9955   0.124   5.470  10.991  0.0398  0.0181 -0.0733
  623loPI   PO4 9956   0.553   5.562  10.692  0.0805 -0.2173 -0.0616
  623loPI   GL1 9957   0.683   5.768  10.223 -0.0358 -0.1478  0.2011
  623loPI   GL2 9958   0.394   5.692  10.135  0.0740  0.0036  0.0027
  623loPI   C1A 9959   0.734   5.526   9.807 -0.1350 -0.0757 -0.0066
  623loPI   C2A 9960   0.745   5.548   9.418  0.3755 -0.2081  0.2117
  623loPI   C3A 9961   0.812   5.578   9.078 -0.1640 -0.1793 -0.0195
  623loPI   C4A 9962   0.746   5.657   8.674 -0.0228 -0.0653 -0.1692
  623loPI   C5A 9963   0.717   5.850   8.278  0.0212 -0.0387  0.2661
  623loPI   C6A 9964   0.984   6.021   8.056 -0.2297 -0.1576 -0.4739
  623loPI   C1B 9965   0.259   5.582   9.664 -0.3751 -0.0499  0.1855
  623loPI   C2B 9966   0.257   5.591   9.180 -0.2957  0.0369  0.0319
  623loPI   C3B 9967   0.283   5.582   8.791 -0.1110  0.0378 -0.1817
  623loPI   C4B 9968   0.247   5.531   8.419 -0.1688  0.0821 -0.0919
  624loPI    C1 9969   2.043   1.666  10.428  0.4094 -0.0089  0.0743
  624loPI    C2 9970   2.021   1.334  10.650  0.3390  0.1027  0.2361
  624loPI    C3 9971   2.233   1.647  10.780  0.2022  0.2109  0.2011
  624loPI   PO4 9972   2.035   1.619  10.148  0.1713 -0.0201  0.1696
  624loPI   GL1 9973   1.889   1.633   9.760 -0.2751  0.1393  0.1159
  624loPI   GL2 9974   2.059   1.247   9.770 -0.3610  0.2121 -0.1279
  624loPI   C1A 9975   1.831   1.513   9.324 -0.1572 -0.1249  0.1252
  624loPI   C2A 9976   1.629   1.485   8.847  0.1365  0.1040 -0.1866
  624loPI   C3A 9977   1.739   1.467   8.458  0.0953  0.0783  0.0694
  624loPI   C4A 9978   1.819   1.555   8.045 -0.2170  0.2533 -0.3330
  624loPI   C5A 9979   2.065   1.406   7.662 -0.2152  0.0506  0.0945
  624loPI   C6A 9980   2.072   1.632   7.279 -0.0438  0.1174  0.2929
  624loPI   C1B 9981   2.088   1.073   9.318 -0.1193 -0.1521 -0.0223
  624loPI   C2B 9982   1.918   1.114   8.957 -0.1567 -0.0805  0.0453
  624loPI   C3B 9983   2.041   1.031   8.519  0.1743  0.0080  0.1178
  624loPI   C4B 9984   2.002   1.028   8.074 -0.0947  0.0643  0.0314
  625loPI    C1 9985   6.135  10.312  10.416  0.3066 -0.1315  0.0645
  625loPI    C2 9986   5.926  10.194  10.735  0.1479  0.0321  0.0223
  625loPI    C3 9987   5.992  10.583  10.672 -0.3625  0.0505 -0.4742
  625loPI   PO4 9988   5.902  10.113  10.201  0.1981  0.1515  0.2859
  625loPI   GL1 9989   5.728  10.314   9.784 -0.1081 -0.1288  0.0095
  625loPI   GL2 9990   5.526  10.058   9.754 -0.0258  0.1708  0.0096
  625loPI   C1A 9991   5.729  10.500   9.417 -0.0232 -0.3322  0.4872
  625loPI   C2A 9992   5.667  10.508   8.988 -0.2742  0.0060 -0.1966
  625loPI   C3A 9993   5.649  10.477   8.496  0.3039  0.0443 -0.0397
  625loPI   C4A 9994   5.601  10.317   8.054  0.0611 -0.0384 -0.3072
  625loPI   C5A 9995   5.454  10.214   7.663  0.2812 -0.2981 -0.1945
  625loPI   C6A 9996   5.461  10.359   7.336 -0.2767  0.1181  0.0303
  625loPI   C1B 9997   5.486  10.016   9.282 -0.1550  0.0392  0.3928
  625loPI   C2B 9998   5.420   9.979   8.996  0.0836  0.0608  0.0261
  625loPI   C3B 9999   5.457   9.931   8.538 -0.2654  0.0652  0.0881
  625loPI   C4B10000   5.476   9.840   8.015  0.1050 -0.0694 -0.1479
  626loPI    C110001  16.398  10.773  11.010  0.0693  0.3002  0.2857
  626loPI    C210002  16.015  10.659  11.043  0.0225  0.1730 -0.5168
  626loPI    C310003  16.301  10.459  11.239 -0.2731 -0.0140 -0.2681
  626loPI   PO410004  16.428  10.829  10.738 -0.0274  0.1144  0.2691
  626loPI   GL110005  16.604  11.004  10.302  0.4246  0.1048 -0.0370
  626loPI   GL210006  16.770  11.177  10.527  0.0505 -0.2221 -0.0260
  626loPI   C1A10007  16.611  11.050   9.916 -0.2614 -0.4798  0.1615
  626loPI   C2A10008  16.670  11.027   9.364  0.1527 -0.3826  0.1486
  626loPI   C3A10009  16.645  10.868   8.993 -0.1386 -0.1025 -0.2213
  626loPI   C4A10010  16.722  11.048   8.591  0.2519  0.1698  0.4695
  626loPI   C5A10011  16.977  11.324   8.228 -0.4428  0.3187  0.4108
  626loPI   C6A10012  17.458  11.321   8.144 -0.1581 -0.2849 -0.2423
  626loPI   C1B10013  16.864  11.494  10.102 -0.0101  0.0307  0.0389
  626loPI   C2B10014  16.887  11.431   9.669 -0.0509 -0.1466 -0.2304
  626loPI   C3B10015  16.888  11.454   9.244  0.0193  0.1038  0.3077
  626loPI   C4B10016  16.870  11.542   8.756 -0.0448 -0.2704  0.0508
  627loPI    C110017   0.553  16.095  10.282  0.1502 -0.1703 -0.0214
  627loPI    C210018   0.428  16.210  10.644 -0.2221  0.1853 -0.2538
  627loPI    C310019   0.818  16.150  10.576 -0.1502  0.0969  0.2061
  627loPI   PO410020   0.475  16.234  10.136  0.0405  0.0099  0.1595
  627loPI   GL110021   0.431  16.356   9.740 -0.2339  0.2972 -0.1323
  627loPI   GL210022   0.202  16.430   9.546 -0.1225 -0.0686 -0.1384
  627loPI   C1A10023   0.479  16.115   9.283  0.0267  0.0911 -0.1463
  627loPI   C2A10024   0.509  16.133   8.878  0.1349  0.0487 -0.3225
  627loPI   C3A10025   0.518  16.203   8.522 -0.2960  0.0965  0.4398
  627loPI   C4A10026   0.391  16.034   8.141 -0.0160 -0.3308 -0.3631
  627loPI   C5A10027   0.486  16.046   7.772 -0.2384 -0.1186  0.2849
  627loPI   C6A10028   0.414  16.283   7.418 -0.1370 -0.1811 -0.0034
  627loPI   C1B10029   0.227  16.540   9.104  0.1356  0.1509  0.1595
  627loPI   C2B10030   0.263  16.647   8.766 -0.0057 -0.0763 -0.1631
  627loPI   C3B10031   0.243  16.538   8.308  0.2720  0.1536  0.0484
  627loPI   C4B10032   0.189  16.558   7.796 -0.0501  0.0015 -0.0911
  628loPI    C110033  10.239   6.858  10.008  0.1427 -0.0330  0.0576
  628loPI    C210034  10.165   7.249  10.047 -0.2332 -0.0386 -0.4972
  628loPI    C310035  10.001   6.989  10.302 -0.0508  0.1534 -0.1778
  628loPI   PO410036  10.159   6.771   9.824 -0.1138  0.0575  0.1515
  628loPI   GL110037  10.079   6.970   9.562  0.0361  0.0668 -0.2376
  628loPI   GL210038   9.911   7.193   9.598  0.3564 -0.1387 -0.1164
  628loPI   C1A10039  10.089   6.966   9.029 -0.1133 -0.2299  0.1403
  628loPI   C2A10040  10.135   7.012   8.633 -0.1539 -0.0160  0.2654
  628loPI   C3A10041  10.224   7.022   8.196 -0.1762 -0.2571 -0.3947
  628loPI   C4A10042  10.248   7.005   7.696 -0.0512  0.0010  0.2212
  628loPI   C5A10043  10.020   7.213   7.328  0.1370  0.1165  0.0079
  628loPI   C6A10044   9.724   7.415   7.220  0.0925 -0.0422  0.2620
  628loPI   C1B10045   9.843   7.416   9.161  0.2165 -0.0073 -0.2603
  628loPI   C2B10046   9.718   7.461   8.769 -0.0314 -0.2859  0.1623
  628loPI   C3B10047   9.850   7.420   8.283  0.0970  0.1704  0.1719
  628loPI   C4B10048   9.922   7.420   7.820  0.3162 -0.1423 -0.4982
  629loPI    C110049   7.718   4.769  10.202  0.3399 -0.0213 -0.0365
  629loPI    C210050   7.878   4.841  10.561  0.0177  0.1247  0.0817
  629loPI    C310051   7.572   4.586  10.526  0.0554  0.1021 -0.0915
  629loPI   PO410052   7.676   5.011  10.104 -0.0005 -0.1088 -0.2617
  629loPI   GL110053   7.652   5.141   9.771 -0.1135  0.1060  0.2649
  629loPI   GL210054   7.390   5.368   9.693 -0.2244 -0.1194 -0.1029
  629loPI   C1A10055   7.521   4.908   9.436  0.0528 -0.1063 -0.0818
  629loPI   C2A10056   7.585   4.877   8.952  0.0445 -0.0424  0.0391
  629loPI   C3A10057   7.637   4.874   8.579 -0.0774  0.0492 -0.0558
  629loPI   C4A10058   7.574   4.915   8.170 -0.1089  0.0423 -0.0418
  629loPI   C5A10059   7.775   4.831   7.770 -0.1061  0.1359  0.3697
  629loPI   C6A10060   8.070   4.622   7.535 -0.3007  0.3089 -0.0894
  629loPI   C1B10061   7.249   5.227   9.231 -0.1079  0.1318 -0.1429
  629loPI   C2B10062   7.322   5.313   8.808 -0.0557  0.0025 -0.0334
  629loPI   C3B10063   7.280   5.252   8.396  0.2220  0.0331  0.1093
  629loPI   C4B10064   7.495   5.507   8.148 -0.0658  0.2295  0.0352
  630loPI    C110065   1.181  13.374  10.121  0.0080  0.3152  0.0792
  630loPI    C210066   1.448  13.261  10.395  0.1205  0.1616 -0.0911
  630loPI    C310067   1.067  13.320  10.500  0.0943 -0.2110  0.0377
  630loPI   PO410068   1.333  13.254   9.869  0.0927 -0.6610 -0.1437
  630loPI   GL110069   1.342  13.473   9.616 -0.0097  0.2136  0.1015
  630loPI   GL210070   1.494  13.568   9.531 -0.1780 -0.3471 -0.1752
  630loPI   C1A10071   1.120  13.538   9.171 -0.2216 -0.1659  0.1692
  630loPI   C2A10072   1.134  13.471   8.786 -0.1316  0.0622 -0.1936
  630loPI   C3A10073   1.021  13.428   8.428  0.0137  0.2851 -0.1283
  630loPI   C4A10074   1.144  13.494   7.928 -0.3038  0.1411  0.0713
  630loPI   C5A10075   1.297  13.548   7.477  0.0877  0.1938 -0.2531
  630loPI   C6A10076   1.185  13.410   7.006 -0.3935  0.0361 -0.2503
  630loPI   C1B10077   1.669  13.522   9.200  0.1314 -0.0292  0.1503
  630loPI   C2B10078   1.578  13.401   8.788 -0.0954 -0.2354  0.0481
  630loPI   C3B10079   1.538  13.489   8.374 -0.2974 -0.2718 -0.5161
  630loPI   C4B10080   1.607  13.449   7.890 -0.0535  0.3312  0.0962
  631loPI    C110081   9.843  16.156   9.980  0.0294 -0.0685 -0.1258
  631loPI    C210082   9.455  16.114  10.070  0.0432  0.1151  0.0264
  631loPI    C310083   9.735  16.007  10.335  0.1018 -0.1660 -0.1444
  631loPI   PO410084   9.764  16.003   9.645  0.1515  0.0346  0.0321
  631loPI   GL110085   9.610  15.864   9.281 -0.1088 -0.2070  0.2421
  631loPI   GL210086   9.591  15.537   9.330 -0.0679 -0.0874 -0.0896
  631loPI   C1A10087   9.577  15.907   8.835  0.1720  0.1733 -0.1126
  631loPI   C2A10088   9.593  15.825   8.381  0.0377  0.1443 -0.0625
  631loPI   C3A10089   9.349  15.874   8.051  0.3098 -0.2505  0.1625
  631loPI   C4A10090   9.467  16.122   7.657  0.4851  0.1142 -0.1468
  631loPI   C5A10091   9.747  16.124   7.464 -0.3433  0.3209 -0.0259
  631loPI   C6A10092   9.861  15.737   7.233 -0.1605  0.1493  0.0070
  631loPI   C1B10093   9.501  15.381   9.100 -0.0130 -0.0236  0.0603
  631loPI   C2B10094   9.401  15.410   8.683 -0.0140  0.0595 -0.0351
  631loPI   C3B10095   9.167  15.475   8.345 -0.0441 -0.0213 -0.1374
  631loPI   C4B10096   9.100  15.475   7.888 -0.4106 -0.0437 -0.2980
  632loPI    C110097  17.351  18.611  10.637 -0.0334 -0.1248  0.1673
  632loPI    C210098  17.489  18.977  10.553  0.0040 -0.2137 -0.1716
  632loPI    C310099  17.289  18.912  10.893 -0.2095  0.1750 -0.2168
  632loPI   PO410100  17.477  18.469  10.439  0.0754  0.1309  0.0023
  632loPI   GL110101  17.668  18.435   9.990  0.1696 -0.1853 -0.5754
  632loPI   GL210102  18.003  18.322   9.938  0.0132  0.0400 -0.1032
  632loPI   C1A10103  17.442  18.333   9.570  0.1032 -0.2711  0.1730
  632loPI   C2A10104  17.537  18.238   9.149  0.0423  0.0998  0.2809
  632loPI   C3A10105  17.517  18.332   8.748 -0.1058 -0.2665 -0.1722
  632loPI   C4A10106  17.511  18.287   8.406 -0.4882 -0.1368 -0.1783
  632loPI   C5A10107  17.385  18.427   8.061 -0.4790  0.0707 -0.1809
  632loPI   C6A10108  17.283  18.743   7.838  0.0323  0.2579 -0.0398
  632loPI   C1B10109  18.011  18.331   9.427 -0.0561  0.0273  0.1363
  632loPI   C2B10110  18.043  18.362   8.948 -0.0553  0.0390  0.1878
  632loPI   C3B10111  17.987  18.311   8.573  0.2946 -0.0412  0.4082
  632loPI   C4B10112  17.956  18.376   8.160  0.0758  0.0485 -0.3477
  633loPI    C110113  18.105   0.771  10.698  0.1318  0.1822 -0.0269
  633loPI    C210114  18.503   0.778  10.739  0.1611 -0.0805 -0.2383
  633loPI    C310115  18.281   0.553  10.985  0.1331  0.1343 -0.0640
  633loPI   PO410116  18.075   1.008  10.492 -0.0069  0.1005  0.1582
  633loPI   GL110117  17.806   1.222  10.276 -0.1655  0.0213 -0.1567
  633loPI   GL210118  17.633   1.083  10.163  0.1856  0.3185  0.4203
  633loPI   C1A10119  18.029   1.331   9.805  0.1156  0.0114 -0.2189
  633loPI   C2A10120  18.006   1.418   9.398  0.1587  0.0959 -0.1354
  633loPI   C3A10121  17.976   1.336   8.992 -0.1177  0.0301 -0.1067
  633loPI   C4A10122  17.978   1.264   8.555  0.3749 -0.0865  0.2348
  633loPI   C5A10123  18.043   1.330   8.183  0.1285 -0.0266 -0.3398
  633loPI   C6A10124  18.269   1.153   7.917  0.1719 -0.0077  0.0218
  633loPI   C1B10125  17.421   1.312   9.870 -0.0037 -0.0085 -0.0408
  633loPI   C2B10126  17.340   1.322   9.417  0.0604  0.1618 -0.1869
  633loPI   C3B10127  17.432   1.227   9.001 -0.0005 -0.0302  0.0714
  633loPI   C4B10128  17.470   1.263   8.551 -0.1975 -0.4239  0.2604
  634loPI    C110129   9.962   8.147  10.108  0.2096 -0.1418 -0.0995
  634loPI    C210130   9.669   8.095  10.375  0.1251  0.0031 -0.1632
  634loPI    C310131   9.968   8.350  10.453  0.1526 -0.0290 -0.1642
  634loPI   PO410132   9.960   8.117   9.776 -0.0616  0.0074 -0.1909
  634loPI   GL110133   9.829   8.358   9.406  0.0871  0.0954  0.0022
  634loPI   GL210134   9.720   8.506   9.101  0.2565  0.2472 -0.0054
  634loPI   C1A10135  10.162   8.348   9.067 -0.0726 -0.2959  0.2366
  634loPI   C2A10136  10.333   8.380   8.687 -0.2312 -0.0693 -0.1220
  634loPI   C3A10137  10.357   8.346   8.172  0.2232  0.0529  0.0294
  634loPI   C4A10138  10.425   8.439   7.738  0.0518 -0.0812 -0.0673
  634loPI   C5A10139  10.379   8.650   7.401  0.0492 -0.1626 -0.1664
  634loPI   C6A10140  10.380   9.056   7.221  0.0445  0.2355 -0.0059
  634loPI   C1B10141   9.839   8.444   8.699 -0.0197 -0.1958 -0.2016
  634loPI   C2B10142   9.898   8.258   8.322  0.1236  0.4773 -0.0319
  634loPI   C3B10143   9.843   8.395   7.839 -0.1470 -0.1571 -0.1649
  634loPI   C4B10144   9.997   8.416   7.415  0.2081  0.1094  0.0336
  635loPI    C110145   7.378   8.914  10.218 -0.3066 -0.2813 -0.0741
  635loPI    C210146   7.698   8.711  10.346 -0.2731 -0.0123  0.2879
  635loPI    C310147   7.565   9.025  10.554 -0.2072  0.4632 -0.3555
  635loPI   PO410148   7.529   8.989   9.937 -0.0948  0.1515  0.3688
  635loPI   GL110149   7.360   8.742   9.607  0.3151 -0.0782 -0.2135
  635loPI   GL210150   7.747   8.861   9.460 -0.0489 -0.0338  0.2374
  635loPI   C1A10151   7.363   8.655   9.159 -0.1415 -0.0574  0.3263
  635loPI   C2A10152   7.417   8.619   8.654 -0.0522 -0.2841  0.1298
  635loPI   C3A10153   7.295   8.527   8.323 -0.0274 -0.1374 -0.2374
  635loPI   C4A10154   7.248   8.572   7.907 -0.0546  0.0191  0.3031
  635loPI   C5A10155   7.114   8.404   7.593 -0.1562 -0.2082  0.1851
  635loPI   C6A10156   7.039   8.378   7.231 -0.3851  0.1409 -0.0296
  635loPI   C1B10157   8.046   8.794   9.137  0.1632 -0.3246  0.1301
  635loPI   C2B10158   7.966   8.696   8.680 -0.0880 -0.3422  0.0668
  635loPI   C3B10159   7.927   8.774   8.348  0.1986 -0.2025 -0.1511
  635loPI   C4B10160   7.811   8.694   7.913  0.0798 -0.1675  0.0962
  636loPI    C110161   4.645  15.764  10.098  0.0995 -0.1445 -0.0023
  636loPI    C210162   4.259  15.779  10.204  0.0808  0.1789 -0.1028
  636loPI    C310163   4.528  15.611  10.448 -0.0950  0.1188  0.0516
  636loPI   PO410164   4.653  15.662   9.912  0.0414 -0.2165 -0.0996
  636loPI   GL110165   4.478  15.777   9.543  0.1675  0.1212  0.0212
  636loPI   GL210166   4.149  15.749   9.346  0.3400  0.0104 -0.2632
  636loPI   C1A10167   4.496  15.916   9.011 -0.1881  0.1386 -0.2128
  636loPI   C2A10168   4.493  15.837   8.558 -0.1412 -0.0232  0.1724
  636loPI   C3A10169   4.493  15.885   7.979  0.3096 -0.0865  0.2606
  636loPI   C4A10170   4.403  15.854   7.445 -0.1298 -0.0707 -0.0333
  636loPI   C5A10171   4.402  15.522   7.076 -0.3584 -0.1419  0.0279
  636loPI   C6A10172   4.505  15.124   6.831  0.0976 -0.0230  0.2653
  636loPI   C1B10173   3.933  15.849   9.122 -0.3834  0.1561  0.1037
  636loPI   C2B10174   3.920  15.891   8.713  0.1662  0.5099 -0.0828
  636loPI   C3B10175   3.982  15.886   8.251 -0.0008  0.1375 -0.0308
  636loPI   C4B10176   3.859  15.856   7.905  0.2333  0.3092 -0.4005
  637loPI    C110177  15.999  15.425  10.740  0.1940 -0.0281  0.1357
  637loPI    C210178  16.347  15.591  10.636  0.0864  0.1128 -0.0050
  637loPI    C310179  16.269  15.514  11.020  0.2330  0.1697  0.0366
  637loPI   PO410180  15.901  15.501  10.523 -0.2497 -0.0450  0.3089
  637loPI   GL110181  16.089  15.659  10.183  0.0998 -0.2179 -0.0273
  637loPI   GL210182  16.209  15.949  10.055 -0.3304  0.1863 -0.4716
  637loPI   C1A10183  16.045  15.484   9.692  0.0871 -0.1687  0.2403
  637loPI   C2A10184  16.024  15.548   9.268  0.1516  0.1851  0.2552
  637loPI   C3A10185  15.995  15.601   8.825 -0.2171 -0.1632 -0.0457
  637loPI   C4A10186  16.029  15.550   8.372 -0.0387  0.0839  0.0347
  637loPI   C5A10187  16.243  15.645   8.076 -0.2880 -0.2532 -0.0382
  637loPI   C6A10188  16.312  15.501   7.738 -0.0088 -0.2532  0.0570
  637loPI   C1B10189  16.301  15.914   9.635  0.0723  0.0268 -0.2624
  637loPI   C2B10190  16.230  16.082   9.209  0.2434 -0.1739  0.0193
  637loPI   C3B10191  16.266  15.994   8.747 -0.0784 -0.2064 -0.1802
  637loPI   C4B10192  16.195  16.050   8.342  0.2487 -0.4678  0.0468
  638loPI    C110193  14.440   9.782  10.999  0.0005 -0.0842  0.2057
  638loPI    C210194  14.063   9.658  10.951  0.0146 -0.0890  0.1049
  638loPI    C310195  14.255   9.587  11.295 -0.0857 -0.0618  0.1670
  638loPI   PO410196  14.432   9.873  10.651 -0.0151 -0.1132 -0.2686
  638loPI   GL110197  14.685   9.865  10.243  0.1081  0.0942 -0.2795
  638loPI   GL210198  14.976  10.044  10.150  0.1608 -0.2346 -0.1004
  638loPI   C1A10199  14.567   9.935   9.809 -0.2241  0.0915 -0.0197
  638loPI   C2A10200  14.481  10.029   9.380 -0.1904 -0.1035  0.0586
  638loPI   C3A10201  14.566  10.113   9.045 -0.0994  0.1063  0.1885
  638loPI   C4A10202  14.729  10.012   8.562  0.0682  0.3711  0.0055
  638loPI   C5A10203  15.077  10.024   8.218  0.2649 -0.1918 -0.0072
  638loPI   C6A10204  15.191   9.970   7.813  0.0536  0.0219  0.1417
  638loPI   C1B10205  15.181   9.918   9.758  0.2025  0.0775 -0.4205
  638loPI   C2B10206  15.245   9.901   9.404  0.1693  0.2432 -0.0620
  638loPI   C3B10207  15.192   9.961   9.041 -0.2896 -0.1836 -0.0109
  638loPI   C4B10208  15.244  10.103   8.670  0.2961 -0.1329  0.1702
  639loPI    C110209  12.403  15.247  10.518  0.1192 -0.2231  0.1001
  639loPI    C210210  12.020  15.314  10.613  0.1541 -0.1998  0.2268
  639loPI    C310211  12.285  15.230  10.900  0.3295  0.2042  0.1904
  639loPI   PO410212  12.410  15.188  10.250 -0.2257 -0.0987  0.0864
  639loPI   GL110213  12.308  15.077   9.740 -0.1725  0.1624 -0.1099
  639loPI   GL210214  12.386  15.392   9.764 -0.1862 -0.0205 -0.1053
  639loPI   C1A10215  12.153  14.946   9.360 -0.1544 -0.1951 -0.1367
  639loPI   C2A10216  12.153  14.923   8.887 -0.1755  0.0921 -0.2726
  639loPI   C3A10217  12.053  14.879   8.451  0.0429 -0.1359  0.1238
  639loPI   C4A10218  12.113  14.898   8.003 -0.2167  0.1952 -0.3948
  639loPI   C5A10219  12.026  14.901   7.622  0.0920 -0.0114 -0.4642
  639loPI   C6A10220  11.695  14.948   7.269 -0.1058  0.1196  0.1392
  639loPI   C1B10221  12.346  15.414   9.233 -0.0097  0.1947  0.0160
  639loPI   C2B10222  12.284  15.423   8.905 -0.4375  0.4430 -0.2478
  639loPI   C3B10223  12.238  15.320   8.494 -0.1142 -0.2146  0.1313
  639loPI   C4B10224  12.307  15.380   8.073 -0.1382  0.0776  0.1753
  640loPI    C110225  15.271   1.780  10.440 -0.1189 -0.0402 -0.0095
  640loPI    C210226  15.233   1.940  10.805  0.1666 -0.3510  0.1619
  640loPI    C310227  15.101   1.569  10.735 -0.0646 -0.2218 -0.1066
  640loPI   PO410228  15.507   1.792  10.389 -0.4937 -0.0851 -0.2377
  640loPI   GL110229  15.860   1.735  10.099  0.0711 -0.1444 -0.0375
  640loPI   GL210230  15.834   2.003  10.011  0.1322 -0.1091  0.0782
  640loPI   C1A10231  16.001   1.639   9.728  0.1462  0.1525 -0.0584
  640loPI   C2A10232  16.071   1.741   9.311 -0.0350  0.0959 -0.2029
  640loPI   C3A10233  16.142   1.842   8.927 -0.0238 -0.0255  0.0518
  640loPI   C4A10234  16.197   1.807   8.469 -0.4772 -0.0711 -0.4564
  640loPI   C5A10235  16.418   1.675   8.066 -0.1447 -0.1697 -0.0174
  640loPI   C6A10236  16.511   1.825   7.644  0.1053  0.0913  0.1133
  640loPI   C1B10237  15.812   2.070   9.563  0.0731 -0.1307 -0.0323
  640loPI   C2B10238  15.838   2.185   9.128  0.1819  0.0230  0.1251
  640loPI   C3B10239  15.917   2.276   8.726 -0.1013 -0.0130  0.3561
  640loPI   C4B10240  15.814   2.113   8.279 -0.0779 -0.1729  0.0350
  641loPI    C110241   9.959   1.691  10.087  0.2185 -0.0834 -0.1081
  641loPI    C210242   9.861   1.884  10.424 -0.0490 -0.0500 -0.2030
  641loPI    C310243   9.814   1.488  10.399 -0.4121 -0.0027 -0.3347
  641loPI   PO410244   9.817   1.888   9.906 -0.0133  0.2130  0.0623
  641loPI   GL110245   9.990   2.034   9.496  0.1502  0.0268 -0.0831
  641loPI   GL210246   9.728   2.260   9.376  0.1717  0.1218  0.1793
  641loPI   C1A10247   9.954   1.805   9.181  0.0875  0.2179 -0.2118
  641loPI   C2A10248   9.966   1.890   8.669 -0.2152 -0.1680 -0.3315
  641loPI   C3A10249  10.017   1.926   8.233  0.1425  0.0135  0.2218
  641loPI   C4A10250  10.053   2.034   7.840  0.1004 -0.0583 -0.2693
  641loPI   C5A10251  10.205   2.077   7.400 -0.2196 -0.0419  0.2328
  641loPI   C6A10252  10.138   2.321   7.040  0.1522 -0.0682 -0.1177
  641loPI   C1B10253   9.737   2.322   9.014 -0.0534 -0.0497 -0.1506
  641loPI   C2B10254   9.785   2.419   8.641  0.0432  0.1392 -0.1298
  641loPI   C3B10255   9.836   2.392   8.262  0.0709  0.1114 -0.2647
  641loPI   C4B10256   9.823   2.456   7.830  0.0841  0.0504  0.2092
  642loPI    C110257  16.246   9.570  10.856  0.1390 -0.0919 -0.0791
  642loPI    C210258  16.327   9.886  10.625 -0.2008  0.0438 -0.0182
  642loPI    C310259  16.606   9.744  10.874  0.0746  0.0694 -0.3055
  642loPI   PO410260  16.200   9.407  10.614  0.0586 -0.0858  0.0019
  642loPI   GL110261  16.170   9.441  10.153  0.0169  0.2071 -0.1385
  642loPI   GL210262  15.897   9.428   9.908 -0.0284 -0.1116 -0.1219
  642loPI   C1A10263  16.400   9.470   9.788 -0.1424 -0.2247  0.0638
  642loPI   C2A10264  16.467   9.624   9.369  0.2633 -0.1456 -0.1508
  642loPI   C3A10265  16.437   9.603   8.957 -0.2823 -0.2264  0.0673
  642loPI   C4A10266  16.461   9.741   8.649 -0.2603 -0.0400 -0.0064
  642loPI   C5A10267  16.812  10.075   8.488 -0.4141  0.1490  0.0297
  642loPI   C6A10268  17.072  10.389   8.288 -0.1169  0.0463  0.0566
  642loPI   C1B10269  16.009   9.634   9.502 -0.1408  0.3152 -0.3242
  642loPI   C2B10270  15.913   9.619   9.065  0.2060 -0.3234 -0.0613
  642loPI   C3B10271  16.001   9.654   8.609  0.1945 -0.2656  0.3373
  642loPI   C4B10272  16.060   9.727   8.202  0.1058 -0.2532 -0.0008
  643loPI    C110273   2.409   9.996  10.298 -0.0835  0.0894 -0.1319
  643loPI    C210274   2.657  10.145  10.573 -0.0985 -0.0241 -0.0562
  643loPI    C310275   2.275  10.077  10.666 -0.0838 -0.1402 -0.0803
  643loPI   PO410276   2.564   9.817  10.241 -0.1951  0.1379 -0.2919
  643loPI   GL110277   2.739   9.608   9.909  0.1031 -0.0423  0.3048
  643loPI   GL210278   2.668   9.430   9.733 -0.4005 -0.0393  0.0772
  643loPI   C1A10279   2.859   9.854   9.460 -0.1861 -0.1371 -0.2145
  643loPI   C2A10280   2.926   9.795   9.031 -0.4717 -0.2436  0.2567
  643loPI   C3A10281   2.740   9.871   8.683 -0.0017 -0.0701  0.0742
  643loPI   C4A10282   2.905   9.818   8.216  0.4748 -0.0326 -0.0908
  643loPI   C5A10283   2.984   9.707   7.695  0.0445  0.0063 -0.1975
  643loPI   C6A10284   2.944   9.869   7.308 -0.3043 -0.4350  0.1109
  643loPI   C1B10285   2.641   9.429   9.280  0.0299  0.2855 -0.1073
  643loPI   C2B10286   2.586   9.359   8.834  0.3355  0.0092  0.4489
  643loPI   C3B10287   2.514   9.308   8.410  0.1015  0.0929 -0.2076
  643loPI   C4B10288   2.626   9.460   8.061 -0.1669 -0.1407 -0.0069
  644loPI    C110289  12.271   8.245   9.959  0.0479  0.2043 -0.0212
  644loPI    C210290  12.460   8.262  10.311  0.0535  0.5039 -0.0360
  644loPI    C310291  12.062   8.220  10.299  0.1110 -0.1707 -0.0051
  644loPI   PO410292  12.349   8.448   9.841  0.1665 -0.1370  0.3770
  644loPI   GL110293  12.295   8.555   9.483  0.0516 -0.1807 -0.1078
  644loPI   GL210294  12.019   8.752   9.561  0.4753  0.0751  0.0818
  644loPI   C1A10295  12.268   8.442   9.079 -0.0691 -0.0329  0.0711
  644loPI   C2A10296  12.323   8.444   8.551 -0.0079 -0.0634  0.2609
  644loPI   C3A10297  12.438   8.496   8.113 -0.0226  0.1763  0.1347
  644loPI   C4A10298  12.603   8.510   7.688  0.0247 -0.1222 -0.0816
  644loPI   C5A10299  12.833   8.224   7.518 -0.0676  0.1054  0.0436
  644loPI   C6A10300  12.818   8.268   7.039 -0.0600  0.4957  0.3504
  644loPI   C1B10301  12.004   8.870   9.228  0.2176  0.0553  0.0544
  644loPI   C2B10302  12.070   8.831   8.828 -0.2178  0.1682  0.1022
  644loPI   C3B10303  12.171   8.861   8.359  0.1265  0.0762 -0.0141
  644loPI   C4B10304  12.114   8.962   7.848  0.3667 -0.3401  0.1170
  645loPI    C110305   0.608   6.480  10.759  0.1598  0.1599  0.0097
  645loPI    C210306   0.469   6.366  11.116  0.0069  0.1010 -0.0676
  645loPI    C310307   0.809   6.576  11.091 -0.1855  0.4474  0.1425
  645loPI   PO410308   0.374   6.574  10.648  0.2643 -0.0716  0.2495
  645loPI   GL110309   0.192   6.420  10.317  0.0517  0.0636  0.1020
  645loPI   GL210310   0.327   6.171  10.187  0.2034  0.2463  0.1648
  645loPI   C1A10311   0.039   6.454   9.933  0.1025 -0.2094 -0.0382
  645loPI   C2A10312   0.083   6.403   9.516 -0.2249 -0.0741 -0.0125
  645loPI   C3A10313   0.244   6.353   9.179 -0.0923  0.1068 -0.1858
  645loPI   C4A10314   0.222   6.487   8.757 -0.1194 -0.1401  0.0611
  645loPI   C5A10315   0.262   6.452   8.292  0.0047 -0.1760 -0.1304
  645loPI   C6A10316   0.299   6.153   8.022 -0.0043 -0.1700 -0.2629
  645loPI   C1B10317   0.496   6.100   9.801 -0.0512  0.0364 -0.2461
  645loPI   C2B10318   0.489   5.988   9.366  0.0791 -0.1404  0.0131
  645loPI   C3B10319   0.494   5.991   8.920 -0.3164 -0.0912  0.0693
  645loPI   C4B10320   0.387   6.053   8.529 -0.0959 -0.1001  0.0333
  646loPI    C110321  14.514   4.964  10.577  0.0256  0.2268  0.1048
  646loPI    C210322  14.859   5.096  10.729  0.0133  0.1234  0.2242
  646loPI    C310323  14.684   4.772  10.883  0.0185 -0.0049 -0.0340
  646loPI   PO410324  14.512   4.989  10.377 -0.1340  0.2547  0.2275
  646loPI   GL110325  14.360   4.842   9.974  0.0376 -0.2045  0.1622
  646loPI   GL210326  14.722   5.097   9.960 -0.0976 -0.0920  0.4439
  646loPI   C1A10327  14.616   4.879   9.554  0.3104  0.0466  0.0337
  646loPI   C2A10328  14.683   4.849   9.115 -0.0122  0.3140  0.1539
  646loPI   C3A10329  14.687   4.801   8.744 -0.2287  0.1873 -0.2094
  646loPI   C4A10330  14.711   4.804   8.288 -0.1010  0.0100  0.1539
  646loPI   C5A10331  14.896   4.673   7.938  0.2716 -0.1014  0.1897
  646loPI   C6A10332  15.347   4.521   7.756 -0.2164  0.0366  0.4173
  646loPI   C1B10333  14.924   5.302   9.639  0.1599  0.1646  0.0455
  646loPI   C2B10334  14.877   5.270   9.248 -0.0143  0.3253  0.3290
  646loPI   C3B10335  14.883   5.399   8.844 -0.0110 -0.1661  0.1779
  646loPI   C4B10336  14.795   5.362   8.299  0.5563 -0.0913 -0.4053
  647loPI    C110337   0.601  18.621  10.353  0.1213 -0.0145  0.0329
  647loPI    C210338   0.657  18.474  10.721  0.0820 -0.0637  0.0194
  647loPI    C310339   0.419  18.791  10.667 -0.0317 -0.1488  0.0180
  647loPI   PO410340   0.488  18.401  10.138 -0.2403 -0.0474 -0.1738
  647loPI   GL110341   0.361  18.611   9.780  0.0151  0.0365  0.1780
  647loPI   GL210342   0.546  18.836   9.811  0.0736  0.0731 -0.0069
  647loPI   C1A10343   0.294  18.563   9.329 -0.1376  0.3442 -0.0379
  647loPI   C2A10344   0.183  18.482   8.942  0.0700  0.1854  0.1469
  647loPI   C3A10345   0.135  18.438   8.526  0.5105  0.2587  0.0288
  647loPI   C4A10346   0.214  18.324   8.206 -0.0802  0.3468 -0.0139
  647loPI   C5A10347   0.188  18.365   7.738  0.1032  0.3624  0.0022
  647loPI   C6A10348   0.186  18.334   7.344  0.1887  0.6804  0.1608
  647loPI   C1B10349   0.597  19.004   9.381 -0.1436  0.0955 -0.0138
  647loPI   C2B10350   0.464  18.990   8.996  0.0851 -0.0225  0.0030
  647loPI   C3B10351   0.362  18.916   8.572  0.0149 -0.1004  0.1163
  647loPI   C4B10352   0.473  18.786   8.260  0.2012 -0.0454 -0.5005
  648loPI    C110353  18.557  10.261  10.812  0.1628  0.1589 -0.0929
  648loPI    C210354  18.433  10.616  10.951  0.0716  0.1293 -0.0979
  648loPI    C310355  18.737  10.426  11.129 -0.3183 -0.1095  0.3354
  648loPI   PO410356  18.513  10.279  10.579 -0.1775 -0.2568  0.3112
  648loPI   GL110357  18.380  10.297  10.161  0.0159  0.0317 -0.0269
  648loPI   GL210358  18.297  10.100   9.975  0.4109 -0.1178  0.1487
  648loPI   C1A10359  18.580  10.491   9.833 -0.0183 -0.0113 -0.2084
  648loPI   C2A10360  18.549  10.544   9.361  0.1599 -0.2638  0.1712
  648loPI   C3A10361  18.393  10.648   8.965  0.1396 -0.0856 -0.0620
  648loPI   C4A10362  18.338  10.601   8.519 -0.0258 -0.2656  0.4072
  648loPI   C5A10363  18.432  10.586   8.033 -0.1398  0.0644 -0.0557
  648loPI   C6A10364  18.295  10.754   7.619  0.3768 -0.0165  0.0261
  648loPI   C1B10365  18.310  10.124   9.590 -0.0395  0.3495 -0.0215
  648loPI   C2B10366  18.216  10.223   9.150 -0.0401 -0.4355 -0.2395
  648loPI   C3B10367  18.181  10.088   8.683  0.0070  0.1177 -0.1034
  648loPI   C4B10368  17.825  10.084   8.380 -0.2819 -0.1086 -0.0737
  649loPI    C110369   1.356  18.287   9.968 -0.0879 -0.1129 -0.1183
  649loPI    C210370   1.724  18.146  10.035 -0.0940 -0.0935 -0.0435
  649loPI    C310371   1.430  18.073  10.297 -0.1636 -0.1806 -0.1448
  649loPI   PO410372   1.369  18.376   9.820 -0.0983 -0.3295  0.0676
  649loPI   GL110373   1.286  18.528   9.452 -0.1842 -0.0327  0.1446
  649loPI   GL210374   1.504  18.778   9.453 -0.0323 -0.2235 -0.2173
  649loPI   C1A10375   1.253  18.541   8.954 -0.0368 -0.2533 -0.3932
  649loPI   C2A10376   1.156  18.539   8.515 -0.1282  0.0390 -0.3363
  649loPI   C3A10377   1.229  18.413   8.029 -0.1614 -0.2617  0.0918
  649loPI   C4A10378   1.071  18.459   7.614 -0.0734  0.0472  0.1793
  649loPI   C5A10379   0.729  18.299   7.313 -0.0542 -0.0556  0.2199
  649loPI   C6A10380   0.460  18.172   6.875 -0.0450  0.2868  0.2325
  649loPI   C1B10381   1.585  19.025   9.082 -0.1587  0.0490 -0.0377
  649loPI   C2B10382   1.467  19.016   8.731 -0.0561 -0.0212  0.2297
  649loPI   C3B10383   1.484  19.030   8.250 -0.5050 -0.3705 -0.2316
  649loPI   C4B10384   1.405  18.820   7.776 -0.3191  0.2707  0.0324
  650loPI    C110385  17.957   4.181  10.667 -0.0199 -0.0257  0.0454
  650loPI    C210386  18.226   4.073  10.943  0.0085  0.0043  0.0295
  650loPI    C310387  17.836   4.047  11.024  0.0177  0.1151  0.1118
  650loPI   PO410388  18.141   4.386  10.510 -0.1950 -0.0130 -0.0330
  650loPI   GL110389  18.478   4.310  10.181 -0.0924  0.0253 -0.1656
  650loPI   GL210390  18.661   4.056  10.061 -0.1118 -0.1928  0.1299
  650loPI   C1A10391  18.264   4.094   9.823 -0.0223 -0.0263  0.0726
  650loPI   C2A10392  18.339   4.209   9.406  0.1059  0.2138  0.1101
  650loPI   C3A10393  18.412   4.184   8.941  0.0396 -0.1904  0.1965
  650loPI   C4A10394  18.324   4.142   8.444  0.1111 -0.1163  0.2046
  650loPI   C5A10395  18.633   4.221   8.179  0.2465  0.1190 -0.2262
  650loPI   C6A10396  18.873   4.476   7.908 -0.4819  0.0595  0.1487
  650loPI   C1B10397  18.827   4.153   9.698  0.2246  0.1447 -0.2106
  650loPI   C2B10398  18.877   4.202   9.327  0.0585 -0.1597  0.1627
  650loPI   C3B10399  18.989   4.202   8.998 -0.0024  0.1239  0.3378
  650loPI   C4B10400  18.836   4.019   8.634  0.1952  0.1909  0.3622
  651loPI    C110401  12.938   6.389  10.500 -0.1312  0.2079 -0.1054
  651loPI    C210402  12.875   6.738  10.684  0.0085  0.1837 -0.0092
  651loPI    C310403  13.060   6.441  10.878 -0.3161 -0.0247 -0.0110
  651loPI   PO410404  13.060   6.569  10.245  0.2430  0.1660  0.1691
  651loPI   GL110405  13.374   6.534   9.871  0.0148  0.1313  0.2381
  651loPI   GL210406  13.381   6.890   9.895 -0.1551  0.2027  0.2002
  651loPI   C1A10407  13.324   6.533   9.527  0.1505  0.3640  0.2724
  651loPI   C2A10408  13.451   6.576   9.184  0.0667  0.2434 -0.0369
  651loPI   C3A10409  13.518   6.624   8.748 -0.1590  0.1811 -0.2835
  651loPI   C4A10410  13.453   6.717   8.335 -0.2012  0.2110 -0.3995
  651loPI   C5A10411  13.446   6.958   7.896  0.3417 -0.0155  0.2771
  651loPI   C6A10412  13.276   7.345   7.656  0.0953  0.0833 -0.0513
  651loPI   C1B10413  13.690   7.028   9.546 -0.0151  0.0464  0.0581
  651loPI   C2B10414  13.782   7.083   9.214  0.1250  0.0887  0.2348
  651loPI   C3B10415  13.777   7.220   8.797  0.1506 -0.2519 -0.2259
  651loPI   C4B10416  13.779   7.153   8.363  0.3319 -0.4993 -0.1554
  652loPI    C110417  16.133   6.762  11.084 -0.2298 -0.1778  0.0135
  652loPI    C210418  16.325   6.779  11.434  0.2678  0.0574 -0.2595
  652loPI    C310419  16.022   7.029  11.360 -0.1257 -0.2791  0.1548
  652loPI   PO410420  16.376   6.682  10.919  0.1340  0.1054 -0.0027
  652loPI   GL110421  16.509   6.818  10.501 -0.1342 -0.0725  0.1109
  652loPI   GL210422  16.272   6.545  10.331 -0.0489 -0.2850 -0.0315
  652loPI   C1A10423  16.712   6.499  10.091 -0.2314 -0.1480  0.0715
  652loPI   C2A10424  16.874   6.382   9.716 -0.1414  0.0400 -0.0902
  652loPI   C3A10425  16.882   6.411   9.273  0.0536  0.0078  0.0582
  652loPI   C4A10426  16.994   6.389   8.843  0.2071  0.1695 -0.0399
  652loPI   C5A10427  16.865   6.412   8.450  0.2183 -0.0762 -0.0627
  652loPI   C6A10428  16.703   6.117   8.217 -0.0798  0.0200 -0.0697
  652loPI   C1B10429  16.200   6.432   9.965 -0.0175 -0.0639  0.4269
  652loPI   C2B10430  16.448   6.346   9.555  0.2243 -0.0892  0.0895
  652loPI   C3B10431  16.332   6.352   9.175 -0.3785  0.3038 -0.4507
  652loPI   C4B10432  16.478   6.156   8.745 -0.3624  0.3302 -0.1863
  653loPI    C110433   6.897   9.012  10.218 -0.1466  0.1341 -0.3014
  653loPI    C210434   7.027   8.957  10.593 -0.2376 -0.1089 -0.3036
  653loPI    C310435   7.080   9.310  10.412  0.1882 -0.1216 -0.2143
  653loPI   PO410436   6.837   8.882  10.115  0.0465  0.2183  0.0428
  653loPI   GL110437   6.588   8.740   9.797  0.3360 -0.0123  0.1890
  653loPI   GL210438   6.892   9.035   9.569  0.0814  0.0297 -0.0329
  653loPI   C1A10439   6.729   8.585   9.335  0.2709 -0.2618 -0.1260
  653loPI   C2A10440   6.895   8.663   8.885  0.2861 -0.1767 -0.1997
  653loPI   C3A10441   7.126   8.979   8.603 -0.0673 -0.3137 -0.0486
  653loPI   C4A10442   7.064   8.957   8.203 -0.2156  0.1013  0.1149
  653loPI   C5A10443   6.934   8.943   7.754  0.0170 -0.0421 -0.0880
  653loPI   C6A10444   6.886   9.339   7.447  0.1657  0.2311 -0.2292
  653loPI   C1B10445   7.103   9.078   9.093  0.2794 -0.1176 -0.3303
  653loPI   C2B10446   7.563   9.150   9.076  0.3265  0.0434 -0.1632
  653loPI   C3B10447   7.663   9.106   8.630  0.1514  0.3830  0.3462
  653loPI   C4B10448   7.503   9.033   8.182 -0.0629 -0.2198  0.0950
  654loPI    C110449  12.763   2.857  10.358  0.0096  0.1230  0.1833
  654loPI    C210450  12.791   2.566  10.631  0.0835  0.0069  0.0529
  654loPI    C310451  12.808   2.949  10.744  0.1326 -0.0409  0.2089
  654loPI   PO410452  12.539   2.762  10.208  0.1623 -0.1352 -0.0878
  654loPI   GL110453  12.463   2.896   9.671  0.0433  0.0947  0.0306
  654loPI   GL210454  12.420   3.136   9.868  0.0003 -0.0637 -0.0505
  654loPI   C1A10455  12.665   2.907   9.274 -0.1230 -0.1361  0.1775
  654loPI   C2A10456  12.696   2.770   8.813 -0.1393  0.0241  0.0860
  654loPI   C3A10457  12.641   2.850   8.367  0.1833 -0.2735 -0.1756
  654loPI   C4A10458  12.499   3.010   7.988  0.0823  0.3702 -0.1966
  654loPI   C5A10459  12.314   3.369   7.754 -0.5004  0.0460  0.3829
  654loPI   C6A10460  12.220   3.363   7.331 -0.1585 -0.1327  0.2308
  654loPI   C1B10461  12.358   3.325   9.491 -0.3410  0.0237 -0.0748
  654loPI   C2B10462  12.400   3.320   9.106  0.0490  0.1583  0.2292
  654loPI   C3B10463  12.260   3.278   8.692 -0.0165  0.1263  0.0270
  654loPI   C4B10464  12.262   3.329   8.287  0.1126 -0.0488 -0.1887
  655loPI    C110465   4.631  18.799  10.140  0.1387 -0.1727  0.1035
  655loPI    C210466   4.662  18.596  10.483  0.0082 -0.3291  0.0248
  655loPI    C310467   4.364  18.858  10.432  0.1404 -0.1611  0.1026
  655loPI   PO410468   4.621  18.651   9.920  0.1031 -0.0498 -0.1549
  655loPI   GL110469   4.616  18.607   9.571 -0.2079  0.2408  0.0102
  655loPI   GL210470   4.582  18.240   9.511 -0.0313 -0.0444  0.0656
  655loPI   C1A10471   4.745  18.682   9.272  0.2297  0.1847  0.4846
  655loPI   C2A10472   4.915  18.683   8.771  0.1865 -0.1459  0.0560
  655loPI   C3A10473   4.918  18.702   8.375 -0.0177  0.0859 -0.4113
  655loPI   C4A10474   4.896  18.535   7.920 -0.4532 -0.1735  0.1169
  655loPI   C5A10475   4.788  18.555   7.412  0.1950  0.0788 -0.0233
  655loPI   C6A10476   4.482  18.749   7.308  0.1914  0.0962  0.3131
  655loPI   C1B10477   4.593  18.250   9.047 -0.2117 -0.0802 -0.3799
  655loPI   C2B10478   4.727  18.180   8.667  0.2784 -0.3138  0.0973
  655loPI   C3B10479   4.712  18.189   8.259  0.1271  0.1005 -0.1402
  655loPI   C4B10480   4.574  18.193   7.732 -0.0349 -0.0094 -0.0476
  656loPI    C110481  14.486  18.339  10.453 -0.2645  0.0437 -0.0379
  656loPI    C210482  14.149  18.126  10.486 -0.2128 -0.0261  0.0433
  656loPI    C310483  14.454  18.057  10.735 -0.0756 -0.0782 -0.1365
  656loPI   PO410484  14.568  18.292  10.216  0.0828 -0.2194  0.1115
  656loPI   GL110485  14.658  18.074   9.932  0.1683 -0.0386  0.2480
  656loPI   GL210486  14.641  17.718   9.804 -0.0168  0.0356  0.4280
  656loPI   C1A10487  14.791  18.144   9.446  0.0256 -0.1559 -0.2682
  656loPI   C2A10488  14.842  18.166   9.060 -0.0430 -0.1567 -0.0942
  656loPI   C3A10489  14.851  18.191   8.720 -0.3175 -0.0775  0.1141
  656loPI   C4A10490  14.856  18.125   8.341  0.3865 -0.1130 -0.0340
  656loPI   C5A10491  14.783  18.163   7.921 -0.0745  0.0798  0.3213
  656loPI   C6A10492  14.878  18.322   7.534 -0.2382 -0.1995 -0.1036
  656loPI   C1B10493  14.501  17.675   9.415 -0.3374  0.1235 -0.3935
  656loPI   C2B10494  14.455  17.733   9.032  0.0016 -0.0778 -0.1398
  656loPI   C3B10495  14.405  17.700   8.603  0.1241  0.1419 -0.0364
  656loPI   C4B10496  14.653  17.647   8.248  0.0199 -0.0522  0.1157
  657loPI    C110497   0.301  10.705  10.345 -0.0225 -0.2037 -0.0448
  657loPI    C210498   0.023  10.432  10.254  0.0304 -0.3091  0.1063
  657loPI    C310499   0.047  10.577  10.626 -0.0898  0.0087 -0.0064
  657loPI   PO410500   0.413  10.648  10.040  0.0470 -0.1359 -0.2754
  657loPI   GL110501   0.287  10.397   9.730  0.1747 -0.1168 -0.0896
  657loPI   GL210502   0.417  10.090   9.703 -0.3045 -0.1608 -0.2349
  657loPI   C1A10503   0.164  10.550   9.337 -0.6389 -0.0784  0.0856
  657loPI   C2A10504   0.096  10.567   8.868 -0.0350  0.1552  0.1019
  657loPI   C3A10505   0.080  10.574   8.365  0.0560 -0.0853 -0.0882
  657loPI   C4A10506   0.234  10.891   8.064  0.1545  0.1050 -0.1429
  657loPI   C5A10507   0.338  11.253   7.835  0.3958  0.0884  0.0774
  657loPI   C6A10508   0.508  11.594   7.576  0.2234  0.2457  0.0660
  657loPI   C1B10509   0.488  10.111   9.288  0.1111 -0.0978  0.1654
  657loPI   C2B10510   0.319  10.127   9.022  0.4527  0.0202 -0.1575
  657loPI   C3B10511   0.396  10.161   8.660 -0.0007 -0.2486 -0.1533
  657loPI   C4B10512   0.306  10.127   8.198 -0.3317  0.0862  0.1577
  658loPI    C110513  14.281  11.201  10.507  0.0652  0.0862  0.1256
  658loPI    C210514  14.071  11.195  10.168  0.0040 -0.0243  0.1649
  658loPI    C310515  13.885  11.146  10.519  0.0892 -0.0746  0.2031
  658loPI   PO410516  14.425  11.352  10.447  0.0859 -0.3388 -0.0066
  658loPI   GL110517  14.602  11.375  10.171  0.0926 -0.1915 -0.4902
  658loPI   GL210518  14.713  11.679  10.130  0.1255 -0.3576  0.2602
  658loPI   C1A10519  14.429  11.339   9.762 -0.1347 -0.2216  0.2741
  658loPI   C2A10520  14.270  11.414   9.330  0.2444 -0.0366 -0.2429
  658loPI   C3A10521  14.353  11.414   8.848  0.0614  0.1674 -0.4454
  658loPI   C4A10522  14.362  11.272   8.460 -0.1720  0.1567 -0.1993
  658loPI   C5A10523  14.278  11.527   8.131  0.1222 -0.0414 -0.0598
  658loPI   C6A10524  14.079  11.857   7.980  0.0289 -0.1036 -0.4288
  658loPI   C1B10525  14.699  11.754   9.720  0.3624  0.2794 -0.0093
  658loPI   C2B10526  14.563  11.862   9.311 -0.0085 -0.1894  0.2273
  658loPI   C3B10527  14.579  11.878   8.872 -0.1913  0.1684 -0.1111
  658loPI   C4B10528  14.599  11.788   8.453  0.0493  0.1483 -0.0521
  659loPI    C110529  14.010  16.020  10.379  0.0837 -0.3387 -0.1738
  659loPI    C210530  14.273  15.806  10.591  0.0629 -0.1123  0.0865
  659loPI    C310531  13.944  15.950  10.767  0.1468  0.2531 -0.0456
  659loPI   PO410532  14.038  15.956  10.058  0.1960 -0.1179 -0.0680
  659loPI   GL110533  14.199  15.974   9.820  0.0157 -0.2838 -0.3372
  659loPI   GL210534  14.313  16.361   9.874  0.0318  0.1606 -0.1815
  659loPI   C1A10535  14.247  15.834   9.323  0.0615 -0.2086 -0.4065
  659loPI   C2A10536  14.192  15.868   8.923  0.1087  0.1256  0.4928
  659loPI   C3A10537  14.052  15.945   8.558 -0.0261  0.2669 -0.1035
  659loPI   C4A10538  14.093  15.814   8.102 -0.1225  0.3002 -0.0527
  659loPI   C5A10539  14.436  15.928   7.731  0.1240 -0.0785 -0.1431
  659loPI   C6A10540  14.818  15.873   7.636 -0.1694 -0.0836  0.5148
  659loPI   C1B10541  14.395  16.363   9.481 -0.1848  0.3098  0.3365
  659loPI   C2B10542  14.356  16.285   9.126 -0.1335  0.1910  0.1975
  659loPI   C3B10543  14.271  16.388   8.716 -0.2479 -0.0758 -0.1247
  659loPI   C4B10544  14.275  16.267   8.304  0.2658 -0.0992 -0.0303
  660loPI    C110545  12.464   2.261  10.315 -0.0732  0.0938  0.0698
  660loPI    C210546  12.410   1.910  10.499  0.0463  0.0199 -0.0347
  660loPI    C310547  12.357   2.251  10.701  0.0650 -0.0593  0.1057
  660loPI   PO410548  12.501   2.164  10.081 -0.0646  0.0954  0.2065
  660loPI   GL110549  12.572   2.302   9.665  0.0958 -0.0393  0.0931
  660loPI   GL210550  12.439   2.402   9.525  0.1471 -0.2342  0.1820
  660loPI   C1A10551  12.894   2.337   9.403 -0.1816 -0.2892  0.4059
  660loPI   C2A10552  12.827   2.367   9.009  0.2246  0.1547 -0.1038
  660loPI   C3A10553  12.944   2.399   8.519  0.2245  0.1637  0.1184
  660loPI   C4A10554  12.991   2.511   8.101 -0.2582 -0.1066 -0.2257
  660loPI   C5A10555  13.061   2.755   7.751 -0.2106 -0.1203  0.3322
  660loPI   C6A10556  12.930   3.197   7.660 -0.0140 -0.1965  0.2996
  660loPI   C1B10557  12.317   2.326   9.143 -0.0853  0.1474  0.1576
  660loPI   C2B10558  12.315   2.370   8.779  0.1547  0.1855  0.0155
  660loPI   C3B10559  12.422   2.393   8.390  0.4268  0.1480 -0.0637
  660loPI   C4B10560  12.525   2.501   7.962  0.1546 -0.0987  0.1270
  661loPI    C110561  17.459   3.581  10.748  0.1667 -0.0025  0.0414
  661loPI    C210562  17.570   3.408  10.405 -0.1773 -0.2453  0.0469
  661loPI    C310563  17.602   3.208  10.749 -0.2428 -0.1646  0.1003
  661loPI   PO410564  17.544   3.853  10.649 -0.3859  0.1761 -0.2174
  661loPI   GL110565  17.659   3.948  10.314 -0.1714  0.0846 -0.0520
  661loPI   GL210566  17.898   4.038  10.203  0.0528  0.0442  0.0564
  661loPI   C1A10567  17.550   3.653  10.004  0.1811  0.3579 -0.0899
  661loPI   C2A10568  17.561   3.663   9.559 -0.2530  0.0121  0.1750
  661loPI   C3A10569  17.510   3.744   9.159 -0.1608  0.0126  0.1040
  661loPI   C4A10570  17.675   3.624   8.767 -0.3585 -0.3953 -0.0693
  661loPI   C5A10571  17.681   3.704   8.405  0.0688 -0.1886  0.0630
  661loPI   C6A10572  17.789   3.951   8.099 -0.2235 -0.1177 -0.1182
  661loPI   C1B10573  17.755   4.117   9.858  0.1707 -0.2412  0.0855
  661loPI   C2B10574  17.813   4.168   9.523 -0.0022  0.1713 -0.0811
  661loPI   C3B10575  17.807   4.248   8.990 -0.0027  0.1556 -0.1650
  661loPI   C4B10576  17.899   4.041   8.709 -0.2861  0.1133 -0.1323
  662loPI    C110577   1.815  10.914  10.561 -0.1865 -0.0570  0.1081
  662loPI    C210578   2.009  10.896  10.910 -0.0964 -0.2419  0.0502
  662loPI    C310579   1.886  11.249  10.768 -0.0918 -0.1601  0.2449
  662loPI   PO410580   1.973  10.837  10.401 -0.0216 -0.1625 -0.3819
  662loPI   GL110581   1.960  10.703   9.950  0.0465 -0.1106  0.2443
  662loPI   GL210582   1.709  10.635   9.846  0.0561 -0.0125  0.2335
  662loPI   C1A10583   2.002  11.028   9.561 -0.2981  0.2687 -0.0453
  662loPI   C2A10584   2.095  11.169   9.150 -0.2081  0.1626  0.0896
  662loPI   C3A10585   2.042  11.152   8.812  0.1392 -0.2040  0.4235
  662loPI   C4A10586   2.048  11.091   8.441  0.0354 -0.1041  0.2725
  662loPI   C5A10587   2.097  10.969   8.049  0.1223 -0.3094 -0.0140
  662loPI   C6A10588   2.316  10.948   7.641 -0.0826  0.2170 -0.0022
  662loPI   C1B10589   1.709  10.645   9.381 -0.1198  0.0302  0.1044
  662loPI   C2B10590   1.678  10.748   8.922  0.2479 -0.1734  0.0983
  662loPI   C3B10591   1.718  10.632   8.483 -0.3774  0.3395  0.3966
  662loPI   C4B10592   1.584  10.741   8.170 -0.2630  0.2831  0.1184
  663loPI    C110593  11.275   5.813  10.357  0.0890 -0.0182 -0.0700
  663loPI    C210594  11.660   5.876  10.446  0.0623  0.0051  0.0314
  663loPI    C310595  11.394   6.171  10.489  0.0287 -0.0182 -0.0149
  663loPI   PO410596  11.281   5.576  10.146 -0.3400  0.0067  0.0716
  663loPI   GL110597  11.338   5.563   9.687 -0.1400 -0.1023  0.2705
  663loPI   GL210598  11.589   5.407   9.575  0.3766 -0.0587 -0.0974
  663loPI   C1A10599  10.944   5.686   9.440  0.1679  0.0893 -0.0402
  663loPI   C2A10600  10.874   5.664   8.901 -0.0419 -0.0184  0.1077
  663loPI   C3A10601  10.876   5.727   8.505  0.2063  0.0550  0.1507
  663loPI   C4A10602  10.841   5.564   8.091  0.1014 -0.0382  0.0501
  663loPI   C5A10603  10.970   5.455   7.661 -0.1062 -0.1495  0.0469
  663loPI   C6A10604  11.341   5.200   7.533 -0.1768 -0.1061 -0.0130
  663loPI   C1B10605  11.452   5.661   9.173  0.2986 -0.2209  0.2286
  663loPI   C2B10606  11.427   5.685   8.705 -0.0580 -0.1226  0.3091
  663loPI   C3B10607  11.445   5.608   8.273  0.1110  0.0547  0.0334
  663loPI   C4B10608  11.423   5.536   7.864  0.4698  0.1852  0.2845
  664loPI    C110609   4.932   5.762  10.445 -0.2253  0.0355 -0.0298
  664loPI    C210610   4.679   5.498  10.608 -0.2152  0.1283  0.1384
  664loPI    C310611   4.791   5.821  10.815  0.0561  0.0784  0.0730
  664loPI   PO410612   4.896   5.802  10.239  0.1845  0.2453  0.2181
  664loPI   GL110613   5.053   5.882   9.840 -0.1472 -0.0095  0.0437
  664loPI   GL210614   4.898   6.134   9.774  0.1846  0.0608 -0.0845
  664loPI   C1A10615   4.946   5.758   9.348  0.0618  0.1699 -0.3875
  664loPI   C2A10616   4.946   5.807   8.921 -0.1292  0.1306  0.1229
  664loPI   C3A10617   4.919   5.784   8.420 -0.1166 -0.2604  0.0324
  664loPI   C4A10618   4.928   5.718   8.004  0.2023 -0.2548 -0.0317
  664loPI   C5A10619   4.778   5.801   7.715 -0.0736  0.0846  0.0333
  664loPI   C6A10620   4.639   5.717   7.173 -0.3583  0.1339  0.3537
  664loPI   C1B10621   4.604   6.238   9.412  0.0644  0.0904  0.2306
  664loPI   C2B10622   4.602   6.207   8.962 -0.2385 -0.0120  0.2673
  664loPI   C3B10623   4.634   6.183   8.568  0.0438  0.2143 -0.0382
  664loPI   C4B10624   4.741   6.202   8.128  0.1233 -0.1862  0.2438
  665loPI    C110625  12.242   7.257  10.410  0.1093 -0.1266 -0.0413
  665loPI    C210626  12.610   7.215  10.561  0.0403 -0.2368  0.0992
  665loPI    C310627  12.328   7.406  10.771  0.1293  0.2298 -0.1892
  665loPI   PO410628  12.173   7.320  10.022 -0.1547  0.0913 -0.0665
  665loPI   GL110629  12.017   7.181   9.629  0.1310 -0.2581  0.0505
  665loPI   GL210630  11.897   7.505   9.649 -0.1596  0.1492 -0.0638
  665loPI   C1A10631  12.068   7.161   9.237 -0.0077  0.1099 -0.1338
  665loPI   C2A10632  12.084   7.004   8.792 -0.1669 -0.4051 -0.1169
  665loPI   C3A10633  12.118   7.047   8.330  0.0452  0.0144 -0.1073
  665loPI   C4A10634  11.941   7.193   7.957 -0.0963  0.1395  0.2309
  665loPI   C5A10635  11.828   7.207   7.618  0.0023 -0.3272 -0.1858
  665loPI   C6A10636  11.629   7.426   7.277  0.0116 -0.0539  0.1471
  665loPI   C1B10637  11.781   7.554   9.247 -0.1083  0.1522 -0.0578
  665loPI   C2B10638  11.834   7.602   8.762 -0.3848 -0.0326  0.0010
  665loPI   C3B10639  11.869   7.542   8.303 -0.1669  0.1040  0.0277
  665loPI   C4B10640  11.856   7.641   7.869 -0.2658 -0.0949 -0.1766
  666loPI    C110641   4.116  13.393  10.250 -0.0413 -0.1050  0.3036
  666loPI    C210642   3.980  13.027  10.338 -0.0628 -0.1050  0.2702
  666loPI    C310643   3.942  13.323  10.604  0.0170 -0.1434  0.3248
  666loPI   PO410644   4.301  13.334  10.043  0.0520 -0.2401 -0.2539
  666loPI   GL110645   4.332  13.280   9.647 -0.1973 -0.0075  0.1602
  666loPI   GL210646   4.113  13.578   9.614 -0.2760 -0.4566 -0.3531
  666loPI   C1A10647   4.091  13.015   9.192 -0.0265 -0.2334 -0.1395
  666loPI   C2A10648   4.139  13.043   8.764 -0.0973 -0.0924 -0.0739
  666loPI   C3A10649   3.922  13.118   8.344  0.1651  0.0417 -0.4236
  666loPI   C4A10650   4.042  13.206   7.929  0.1303 -0.1529  0.0724
  666loPI   C5A10651   4.102  13.433   7.584  0.1799  0.2063 -0.0000
  666loPI   C6A10652   4.073  13.687   7.311  0.0180  0.3353  0.1234
  666loPI   C1B10653   4.342  13.471   9.186  0.0284  0.0415  0.1869
  666loPI   C2B10654   4.414  13.498   8.803  0.0060 -0.1111 -0.0258
  666loPI   C3B10655   4.381  13.507   8.343  0.1130 -0.0521  0.0685
  666loPI   C4B10656   4.119  13.756   8.008 -0.0976  0.0798 -0.1339
  667loPI    C110657   6.084   2.275  10.107  0.0837 -0.0411  0.0170
  667loPI    C210658   6.306   2.434  10.400  0.0706  0.1713 -0.0863
  667loPI    C310659   6.020   2.168  10.488  0.1755  0.1103  0.0758
  667loPI   PO410660   6.326   2.186   9.959  0.0188  0.2077  0.3248
  667loPI   GL110661   6.511   2.215   9.545 -0.1922  0.0453  0.1167
  667loPI   GL210662   6.737   2.217   9.455  0.0522 -0.1603 -0.1350
  667loPI   C1A10663   6.227   2.175   9.182 -0.1461  0.2539 -0.0461
  667loPI   C2A10664   6.157   2.156   8.708  0.0629 -0.0371 -0.2011
  667loPI   C3A10665   6.153   2.164   8.292  0.0899  0.0324  0.0952
  667loPI   C4A10666   6.124   2.188   7.900 -0.0711 -0.2947  0.2766
  667loPI   C5A10667   5.744   2.263   7.563  0.0699 -0.0074  0.3188
  667loPI   C6A10668   5.532   2.263   7.313  0.2398 -0.1761  0.1965
  667loPI   C1B10669   6.686   2.111   9.067  0.0353 -0.0314 -0.0082
  667loPI   C2B10670   6.624   2.198   8.653 -0.1532  0.1873  0.2735
  667loPI   C3B10671   6.615   2.235   8.248  0.2027  0.1716 -0.2024
  667loPI   C4B10672   6.615   2.153   7.833 -0.0761  0.1789 -0.0475
  668loPI    C110673   2.928   0.247  10.561 -0.0888  0.1432  0.0504
  668loPI    C210674   2.646   0.281  10.844 -0.0375  0.1458  0.1015
  668loPI    C310675   3.032   0.331  10.938 -0.0218  0.1669  0.0268
  668loPI   PO410676   2.831   0.440  10.352 -0.2828 -0.0754  0.2180
  668loPI   GL110677   2.704   0.543   9.946  0.0781 -0.1076  0.0216
  668loPI   GL210678   2.575   0.414   9.736  0.3090  0.1686 -0.0076
  668loPI   C1A10679   2.831   0.795   9.603 -0.0916  0.2016 -0.0973
  668loPI   C2A10680   2.699   0.712   9.205  0.2060  0.2710  0.1428
  668loPI   C3A10681   2.675   0.661   8.777 -0.0255  0.1203  0.2142
  668loPI   C4A10682   2.835   0.651   8.249 -0.2697  0.1458  0.3853
  668loPI   C5A10683   2.803   0.657   7.806 -0.0842 -0.1916  0.0797
  668loPI   C6A10684   2.615   0.504   7.426 -0.0035  0.2194 -0.1258
  668loPI   C1B10685   2.524   0.244   9.275 -0.0314 -0.1012 -0.2954
  668loPI   C2B10686   2.549   0.111   8.896 -0.1267  0.1831 -0.1678
  668loPI   C3B10687   2.565   0.209   8.418 -0.3181 -0.1869  0.2327
  668loPI   C4B10688   2.562   0.160   7.947  0.1412  0.1260 -0.0411
  669loPI    C110689  12.873   5.438  10.329  0.2154 -0.1255 -0.0754
  669loPI    C210690  12.543   5.214  10.356  0.0160  0.1508 -0.1733
  669loPI    C310691  12.837   5.169  10.623 -0.0849 -0.1202 -0.1040
  669loPI   PO410692  13.025   5.399  10.058 -0.0371  0.2096  0.2706
  669loPI   GL110693  13.076   5.242   9.722  0.0119 -0.3531 -0.2287
  669loPI   GL210694  12.875   5.024   9.685 -0.0033 -0.1106  0.0770
  669loPI   C1A10695  13.283   5.209   9.319  0.1466  0.0480  0.1670
  669loPI   C2A10696  13.261   5.107   8.868 -0.1157 -0.1246 -0.2395
  669loPI   C3A10697  13.197   5.210   8.535 -0.2689 -0.0319  0.1532
  669loPI   C4A10698  13.272   5.298   8.194 -0.1282 -0.2537 -0.1154
  669loPI   C5A10699  13.162   5.448   7.801  0.2787 -0.2303  0.1848
  669loPI   C6A10700  12.914   5.209   7.405 -0.2197 -0.0868 -0.1945
  669loPI   C1B10701  12.720   5.079   9.298 -0.1803  0.1333 -0.1235
  669loPI   C2B10702  12.695   5.050   8.928 -0.1663  0.0646  0.0100
  669loPI   C3B10703  12.660   5.234   8.545  0.1773  0.1781 -0.0813
  669loPI   C4B10704  12.800   5.248   8.149 -0.1776 -0.2925 -0.0278
  670loPI    C110705   2.718  10.542  10.281 -0.2138  0.2033 -0.2012
  670loPI    C210706   2.392  10.592  10.508 -0.1418  0.2171 -0.1004
  670loPI    C310707   2.731  10.785  10.598  0.0579 -0.2237  0.1265
  670loPI   PO410708   2.799  10.345  10.152  0.0037 -0.3759  0.0769
  670loPI   GL110709   2.491  10.393   9.892  0.1016 -0.1863  0.0513
  670loPI   GL210710   2.505  10.221   9.750  0.3378 -0.0624 -0.0556
  670loPI   C1A10711   2.283  10.592   9.517 -0.2039 -0.1909 -0.2947
  670loPI   C2A10712   2.282  10.704   9.165 -0.0514 -0.0596  0.2142
  670loPI   C3A10713   2.216  10.720   8.738 -0.0355 -0.1187  0.1468
  670loPI   C4A10714   2.291  10.619   8.309 -0.1552  0.2460  0.4871
  670loPI   C5A10715   2.304  10.472   7.856 -0.0394 -0.1084 -0.1099
  670loPI   C6A10716   2.035  10.277   7.578  0.0728  0.2770  0.0825
  670loPI   C1B10717   2.592  10.256   9.275 -0.1369  0.0248  0.0542
  670loPI   C2B10718   2.531  10.330   8.836 -0.1519  0.1836  0.0894
  670loPI   C3B10719   2.713  10.343   8.351  0.1991 -0.3181 -0.2205
  670loPI   C4B10720   2.833  10.186   7.907 -0.0355  0.0588 -0.0709
  671loPI    C110721  14.951  18.842  10.140 -0.1934 -0.1385  0.0513
  671loPI    C210722  14.674  18.848  10.428 -0.1751  0.2627  0.0664
  671loPI    C310723  15.020  19.041  10.480  0.1269 -0.2576  0.0599
  671loPI   PO410724  14.960  18.532  10.050  0.2903 -0.0192  0.0063
  671loPI   GL110725  14.990  18.482   9.692 -0.0841 -0.1544 -0.0507
  671loPI   GL210726  15.410  18.520   9.728 -0.0529  0.0522 -0.0219
  671loPI   C1A10727  15.071  18.609   9.344  0.4771 -0.0932  0.3191
  671loPI   C2A10728  15.189  18.601   8.922 -0.1087 -0.1470  0.4298
  671loPI   C3A10729  15.142  18.601   8.503  0.3284 -0.1180 -0.3806
  671loPI   C4A10730  15.089  18.511   8.102 -0.0411 -0.0580  0.1132
  671loPI   C5A10731  15.138  18.706   7.688 -0.2605 -0.0913 -0.0498
  671loPI   C6A10732  15.390  19.035   7.596  0.4088 -0.3964 -0.1994
  671loPI   C1B10733  15.613  18.549   9.277 -0.2524  0.0683 -0.2762
  671loPI   C2B10734  15.714  18.520   8.800 -0.1860 -0.2405 -0.2575
  671loPI   C3B10735  15.615  18.585   8.431 -0.1580 -0.0357  0.1150
  671loPI   C4B10736  15.537  18.507   7.997 -0.1970  0.0036 -0.1787
  672loPI    C110737  13.746   6.147  10.329 -0.1641 -0.0363 -0.0702
  672loPI    C210738  13.408   6.265  10.508 -0.1199 -0.2760  0.1782
  672loPI    C310739  13.662   6.022  10.700  0.2569  0.0008  0.0434
  672loPI   PO410740  13.677   6.095  10.140  0.0114  0.1309  0.4297
  672loPI   GL110741  13.710   6.171   9.697 -0.1775  0.0181  0.0175
  672loPI   GL210742  13.368   6.066   9.583 -0.0693  0.1304 -0.2029
  672loPI   C1A10743  13.751   6.133   9.275  0.0302 -0.0884 -0.2314
  672loPI   C2A10744  13.735   6.113   8.726  0.1535  0.0683 -0.0187
  672loPI   C3A10745  13.841   6.259   8.395  0.3490 -0.0349  0.0463
  672loPI   C4A10746  14.098   6.063   8.097  0.2617 -0.2493  0.0765
  672loPI   C5A10747  13.992   5.674   7.814 -0.1175  0.2151 -0.0483
  672loPI   C6A10748  13.633   5.410   7.710 -0.2047 -0.1619 -0.0855
  672loPI   C1B10749  13.154   6.179   9.206  0.1834  0.0435  0.0035
  672loPI   C2B10750  13.210   6.080   8.782 -0.3391 -0.2875 -0.0210
  672loPI   C3B10751  13.270   6.200   8.354  0.0815  0.0301 -0.1884
  672loPI   C4B10752  13.068   6.111   7.931  0.0232  0.3893 -0.2984
  673loPI    C110753   1.762  13.455  10.042 -0.1477  0.0126 -0.0943
  673loPI    C210754   1.471  13.728  10.014  0.0783  0.2706  0.0216
  673loPI    C310755   1.692  13.706  10.346  0.1286  0.0108 -0.0270
  673loPI   PO410756   1.881  13.498   9.829  0.2371 -0.0674 -0.1641
  673loPI   GL110757   2.045  13.816   9.548 -0.3451 -0.1140 -0.0704
  673loPI   GL210758   1.877  14.028   9.346 -0.0355 -0.1105  0.1282
  673loPI   C1A10759   2.206  13.654   9.141 -0.1770  0.1102  0.1597
  673loPI   C2A10760   2.115  13.544   8.642 -0.2531 -0.0310  0.0955
  673loPI   C3A10761   2.038  13.508   8.283  0.2758 -0.2776 -0.0472
  673loPI   C4A10762   2.196  13.419   7.894  0.0598  0.2206 -0.3194
  673loPI   C5A10763   2.045  13.515   7.547  0.1410 -0.1793  0.3490
  673loPI   C6A10764   1.751  13.720   7.429 -0.0433  0.3083 -0.0426
  673loPI   C1B10765   1.861  13.934   8.815  0.0761  0.0283 -0.1477
  673loPI   C2B10766   1.785  13.897   8.377  0.0503 -0.0863 -0.3237
  673loPI   C3B10767   1.857  13.881   7.927 -0.2046  0.1264  0.0153
  673loPI   C4B10768   2.147  14.041   7.516 -0.1424 -0.0968  0.1320
  674loPI    C110769   7.365   0.303  10.403 -0.0464 -0.2107  0.1181
  674loPI    C210770   7.540   0.602  10.602 -0.2623  0.0788 -0.1173
  674loPI    C310771   7.589   0.225  10.725  0.2603  0.1788  0.0078
  674loPI   PO410772   7.396   0.325  10.135 -0.0325 -0.1103 -0.2110
  674loPI   GL110773   7.505   0.234   9.826  0.1711 -0.0114 -0.0904
  674loPI   GL210774   7.224   0.202   9.508  0.0726  0.0967  0.0211
  674loPI   C1A10775   7.750   0.323   9.392  0.1025 -0.0638 -0.1611
  674loPI   C2A10776   7.702   0.329   8.951  0.1202  0.0629  0.0424
  674loPI   C3A10777   7.781   0.481   8.730 -0.0888  0.3192 -0.2908
  674loPI   C4A10778   7.718   0.488   8.281 -0.1106 -0.0039  0.0195
  674loPI   C5A10779   7.640   0.543   7.889  0.1495 -0.3272  0.3227
  674loPI   C6A10780   7.619   0.608   7.488 -0.2643 -0.2487  0.3436
  674loPI   C1B10781   7.210   0.238   9.057 -0.0572  0.0823  0.2354
  674loPI   C2B10782   7.246   0.420   8.623 -0.0740 -0.0536 -0.0766
  674loPI   C3B10783   7.195   0.461   8.176 -0.3200  0.0721  0.3328
  674loPI   C4B10784   7.083   0.583   7.750 -0.2350  0.0045  0.3173
  675loPI    C110785  11.763  15.743  10.358  0.0365  0.0675  0.0534
  675loPI    C210786  11.448  15.644  10.132  0.0029  0.3202 -0.0141
  675loPI    C310787  11.501  15.472  10.490  0.0015 -0.0082 -0.1683
  675loPI   PO410788  11.777  16.032  10.175  0.1229 -0.1766  0.1414
  675loPI   GL110789  11.630  16.297   9.822 -0.0623  0.0932 -0.0095
  675loPI   GL210790  11.853  16.537   9.577 -0.0190  0.2265  0.2802
  675loPI   C1A10791  11.619  16.045   9.375 -0.0451  0.2772  0.0803
  675loPI   C2A10792  11.607  16.249   9.034 -0.0044  0.0481  0.1475
  675loPI   C3A10793  11.771  16.167   8.607  0.4378 -0.0362  0.1927
  675loPI   C4A10794  11.633  16.201   8.247 -0.3030 -0.0007  0.0103
  675loPI   C5A10795  11.553  16.240   7.926  0.0875 -0.0449 -0.0767
  675loPI   C6A10796  11.682  16.005   7.601 -0.1356 -0.3133 -0.0016
  675loPI   C1B10797  11.900  16.660   9.150  0.3201  0.0960 -0.1888
  675loPI   C2B10798  11.981  16.681   8.743  0.0857 -0.1390 -0.1061
  675loPI   C3B10799  11.827  16.726   8.390 -0.0004  0.0817 -0.1992
  675loPI   C4B10800  11.826  16.730   7.893 -0.1581 -0.1700 -0.0703
  676loPI    C110801  14.836  11.337  10.774 -0.1592  0.1995 -0.0132
  676loPI    C210802  14.593  11.029  10.850  0.2229 -0.1087 -0.0083
  676loPI    C310803  14.822  11.180  11.142 -0.0034  0.2221  0.0034
  676loPI   PO410804  14.903  11.282  10.542  0.1094  0.4599  0.0833
  676loPI   GL110805  15.062  11.293  10.260 -0.0033 -0.2387 -0.0205
  676loPI   GL210806  15.419  11.358  10.112 -0.1100 -0.1860 -0.0983
  676loPI   C1A10807  14.922  11.322   9.765 -0.1078 -0.1186 -0.3288
  676loPI   C2A10808  14.830  11.438   9.390 -0.1871  0.0861  0.1159
  676loPI   C3A10809  14.855  11.409   8.906 -0.2678 -0.1070 -0.0809
  676loPI   C4A10810  14.971  11.446   8.472  0.3031 -0.1307 -0.0615
  676loPI   C5A10811  14.815  11.335   8.054  0.0946 -0.0854  0.1404
  676loPI   C6A10812  14.429  11.084   8.017  0.0091 -0.1471  0.0266
  676loPI   C1B10813  15.383  11.317   9.614  0.0171 -0.2593  0.0879
  676loPI   C2B10814  15.371  11.394   9.155  0.0806 -0.1832 -0.0696
  676loPI   C3B10815  15.406  11.417   8.772  0.3063 -0.0696 -0.0323
  676loPI   C4B10816  15.425  11.620   8.374  0.2670 -0.0470  0.0227
  677PSPI    C110817   6.022   5.521   5.609 -0.3477  0.0956  0.1720
  677PSPI    C210818   5.965   5.833   5.364 -0.2064 -0.1200 -0.1418
  677PSPI    C310819   5.735   5.507   5.330 -0.1058 -0.1993 -0.0701
  677PSPI   PO410820   6.004   5.678   5.868  0.1734 -0.0710  0.0729
  677PSPI   GL110821   6.243   5.713   6.317 -0.4044 -0.0578 -0.1690
  677PSPI   GL210822   6.318   5.414   6.298  0.2728  0.0698  0.1005
  677PSPI   C1A10823   5.877   5.627   6.543 -0.0858 -0.2978 -0.1622
  677PSPI   C2A10824   5.843   5.139   6.721 -0.1245 -0.1889 -0.1281
  677PSPI   C3A10825   5.534   4.809   6.824  0.1135  0.1491  0.2441
  677PSPI   C4A10826   5.163   4.858   7.089  0.0383 -0.2703 -0.1299
  677PSPI   C1B10827   6.398   5.627   6.784 -0.1369 -0.3382 -0.0239
  677PSPI   C2B10828   6.391   5.741   7.175 -0.0564  0.0278  0.1029
  677PSPI   C3B10829   6.330   6.034   7.484  0.3404  0.0903  0.0965
  677PSPI   C4B10830   6.340   6.390   7.606  0.0086 -0.1195  0.0744
  678PSPI    C110831   1.335  14.792   4.869 -0.1299 -0.0405  0.2707
  678PSPI    C210832   0.938  14.804   4.821 -0.1315  0.2243  0.3377
  678PSPI    C310833   1.163  15.114   4.705  0.1138 -0.1404 -0.1973
  678PSPI   PO410834   1.412  14.708   5.120  0.1967  0.2652  0.2238
  678PSPI   GL110835   1.756  15.023   5.378  0.3992 -0.0802 -0.0544
  678PSPI   GL210836   1.450  14.957   5.545  0.2254  0.1369  0.0816
  678PSPI   C1A10837   1.783  15.079   5.864  0.2014 -0.0438  0.0044
  678PSPI   C2A10838   1.710  15.160   6.273 -0.1784 -0.0084  0.0797
  678PSPI   C3A10839   1.966  15.404   6.638  0.3578  0.1258  0.3397
  678PSPI   C4A10840   2.401  15.374   6.738 -0.1802  0.3793 -0.0882
  678PSPI   C1B10841   1.339  14.893   6.042  0.0625  0.0327 -0.2746
  678PSPI   C2B10842   1.421  14.846   6.533 -0.1402  0.3867 -0.2766
  678PSPI   C3B10843   1.669  14.917   6.903 -0.1787  0.4208  0.0127
  678PSPI   C4B10844   2.001  15.090   7.019 -0.0844 -0.2665 -0.2027
  679PSPI    C110845   8.736   7.379   5.070 -0.2117 -0.0625 -0.2039
  679PSPI    C210846   9.081   7.418   4.871 -0.0932  0.1095  0.0297
  679PSPI    C310847   8.759   7.626   4.756 -0.0680  0.0924 -0.0734
  679PSPI   PO410848   8.857   7.376   5.385 -0.0647  0.1118 -0.0950
  679PSPI   GL110849   8.783   7.374   5.830  0.0613 -0.1693 -0.1404
  679PSPI   GL210850   8.649   7.710   5.788 -0.1571  0.0745 -0.1319
  679PSPI   C1A10851   8.962   7.439   6.301 -0.1206  0.4725 -0.1191
  679PSPI   C2A10852   8.863   7.211   6.690  0.2306  0.0393 -0.1514
  679PSPI   C3A10853   8.884   7.343   7.130 -0.0755  0.0197 -0.0444
  679PSPI   C4A10854   9.012   7.366   7.559 -0.1538  0.4603 -0.1446
  679PSPI   C1B10855   8.857   8.022   6.035  0.0934  0.4955  0.1712
  679PSPI   C2B10856   9.163   8.321   6.312 -0.1299 -0.1087 -0.0261
  679PSPI   C3B10857   9.430   8.567   6.619 -0.1649  0.1718 -0.0864
  679PSPI   C4B10858   9.530   8.637   7.066 -0.1766 -0.0600 -0.0692
  680PSPI    C110859   1.465   0.379   4.990 -0.1104 -0.0729 -0.0089
  680PSPI    C210860   1.086   0.412   5.116 -0.0083  0.4273  0.1883
  680PSPI    C310861   1.190   0.551   4.755 -0.0635  0.0401  0.0184
  680PSPI   PO410862   1.648   0.355   5.245 -0.1367 -0.1106  0.2775
  680PSPI   GL110863   1.760   0.290   5.626  0.0483  0.0669  0.0360
  680PSPI   GL210864   1.796   0.015   5.850 -0.0533  0.1080 -0.0839
  680PSPI   C1A10865   1.701   0.454   6.163  0.0736 -0.0178 -0.0134
  680PSPI   C2A10866   1.731   0.377   6.511 -0.1959  0.1265 -0.1295
  680PSPI   C3A10867   1.361   0.361   6.631  0.1361  0.1634 -0.1422
  680PSPI   C4A10868   1.467   0.429   7.091 -0.3659  0.0006  0.1412
  680PSPI   C1B10869   1.700  -0.121   6.295  0.3127 -0.0253  0.1702
  680PSPI   C2B10870   1.583  -0.081   6.701 -0.1038  0.0473 -0.2939
  680PSPI   C3B10871   1.748  -0.222   6.994  0.2865 -0.0851 -0.0816
  680PSPI   C4B10872   1.595  -0.057   7.320 -0.0638 -0.0940  0.0912
  681PSPI    C110873  15.263  13.310   5.355  0.0134 -0.0355  0.1656
  681PSPI    C210874  15.475  12.971   5.362  0.2848  0.1288  0.0748
  681PSPI    C310875  15.255  13.063   5.041  0.0643 -0.0459  0.1724
  681PSPI   PO410876  15.142  13.330   5.639  0.3006  0.2496 -0.1290
  681PSPI   GL110877  15.048  13.258   6.085 -0.4434  0.1486  0.1071
  681PSPI   GL210878  15.313  13.428   6.204  0.0185 -0.1218 -0.2493
  681PSPI   C1A10879  15.055  12.992   6.466  0.0021 -0.0825  0.1315
  681PSPI   C2A10880  15.302  12.671   6.664 -0.2877  0.1202 -0.2112
  681PSPI   C3A10881  15.375  12.632   7.080  0.1243  0.0704 -0.3608
  681PSPI   C4A10882  15.491  12.630   7.489  0.1194  0.0490  0.1055
  681PSPI   C1B10883  15.319  13.402   6.630 -0.1622  0.0765 -0.1392
  681PSPI   C2B10884  15.303  13.426   7.027 -0.0228 -0.3248 -0.1841
  681PSPI   C3B10885  15.340  13.436   7.384  0.1514 -0.0193  0.2179
  681PSPI   C4B10886  15.449  13.241   7.765 -0.2368  0.0424  0.0194
  682PSPI    C110887   8.078  14.058   5.021 -0.0565 -0.0119  0.0075
  682PSPI    C210888   8.192  14.347   4.769 -0.0346 -0.0239  0.0037
  682PSPI    C310889   8.324  13.972   4.718  0.2007  0.0294  0.2009
  682PSPI   PO410890   7.919  14.189   5.175  0.1266 -0.3110  0.1030
  682PSPI   GL110891   7.862  14.372   5.533 -0.1184  0.0126  0.0327
  682PSPI   GL210892   7.812  14.670   5.679  0.3210  0.2680  0.1670
  682PSPI   C1A10893   8.095  14.270   5.881 -0.0168 -0.1540 -0.0203
  682PSPI   C2A10894   8.021  14.399   6.294 -0.1372  0.2681  0.1280
  682PSPI   C3A10895   7.718  14.327   6.586 -0.1453 -0.1640  0.0936
  682PSPI   C4A10896   7.402  14.536   6.375  0.0950 -0.1365  0.1842
  682PSPI   C1B10897   7.610  14.460   5.943 -0.0558  0.0489  0.0946
  682PSPI   C2B10898   7.657  14.066   6.078  0.3372  0.0170  0.3188
  682PSPI   C3B10899   7.986  13.893   6.326 -0.1941  0.0644  0.1343
  682PSPI   C4B10900   8.387  13.947   6.441  0.1300 -0.1220  0.1477
  683PSPI    C110901  15.819   9.059   5.502  0.1659 -0.0278 -0.0835
  683PSPI    C210902  16.191   9.120   5.367  0.2093  0.0955  0.0885
  683PSPI    C310903  15.908   9.397   5.307  0.1478  0.0085 -0.0289
  683PSPI   PO410904  15.919   8.997   5.798 -0.1046 -0.0061 -0.1057
  683PSPI   GL110905  15.886   9.223   6.209  0.0856 -0.1377 -0.0127
  683PSPI   GL210906  15.633   9.099   6.478  0.4972  0.0534 -0.1781
  683PSPI   C1A10907  15.878   9.509   6.569  0.0501  0.2947  0.0098
  683PSPI   C2A10908  15.814   9.912   6.899  0.0577  0.3415  0.3226
  683PSPI   C3A10909  15.922  10.140   7.243 -0.0479  0.0476 -0.0319
  683PSPI   C4A10910  15.639  10.418   7.509  0.4550 -0.1029 -0.0341
  683PSPI   C1B10911  15.737   8.724   6.770  0.0749 -0.3210 -0.0231
  683PSPI   C2B10912  16.103   8.756   7.073 -0.1381 -0.1278  0.0689
  683PSPI   C3B10913  16.101   8.640   7.462 -0.2849 -0.0398  0.1402
  683PSPI   C4B10914  15.959   8.858   7.874  0.1625 -0.2914  0.2072
  684PSPI    C110915   0.253  16.008   5.259 -0.0056 -0.0339  0.0814
  684PSPI    C210916  -0.003  15.734   5.117  0.0638 -0.1094  0.1017
  684PSPI    C310917   0.336  15.813   4.919  0.0236 -0.0075  0.0734
  684PSPI   PO410918   0.317  15.929   5.492  0.2753 -0.2237 -0.0394
  684PSPI   GL110919   0.596  16.074   5.724 -0.2640 -0.1087 -0.0380
  684PSPI   GL210920   0.665  16.472   5.854 -0.1443 -0.1312 -0.2478
  684PSPI   C1A10921   0.936  16.077   6.001 -0.1378 -0.3281  0.2308
  684PSPI   C2A10922   1.038  16.070   6.389 -0.0002 -0.2065  0.0818
  684PSPI   C3A10923   1.063  15.972   6.722  0.1811  0.2327  0.0035
  684PSPI   C4A10924   1.329  15.980   7.014 -0.0970  0.1007  0.1581
  684PSPI   C1B10925   0.542  16.301   6.196  0.0398  0.1356 -0.1154
  684PSPI   C2B10926   0.506  16.115   6.683 -0.0747  0.1752 -0.2735
  684PSPI   C3B10927   0.738  16.034   7.157  0.1061  0.0208  0.0009
  684PSPI   C4B10928   0.911  15.758   7.535 -0.1920 -0.0127  0.4031
  685PSPI    C110929  11.998   2.964   4.906  0.0205  0.2238 -0.3148
  685PSPI    C210930  11.606   2.951   4.984  0.0866  0.1535  0.0247
  685PSPI    C310931  11.814   2.611   4.948  0.1584  0.1922  0.0727
  685PSPI   PO410932  12.102   3.055   5.094 -0.2589 -0.0578  0.2606
  685PSPI   GL110933  12.274   2.883   5.501 -0.1803 -0.1068  0.1119
  685PSPI   GL210934  11.874   2.845   5.502  0.2078  0.1774  0.2053
  685PSPI   C1A10935  12.221   2.572   5.879  0.0802 -0.1706 -0.0677
  685PSPI   C2A10936  12.125   2.664   6.330  0.0523 -0.1288  0.2241
  685PSPI   C3A10937  12.295   2.854   6.570 -0.3531 -0.4570 -0.1992
  685PSPI   C4A10938  12.250   3.024   6.973  0.0728 -0.0819  0.1583
  685PSPI   C1B10939  11.987   2.996   5.889  0.0917 -0.1648 -0.0951
  685PSPI   C2B10940  11.975   3.253   6.285 -0.0846 -0.1739 -0.2950
  685PSPI   C3B10941  11.711   3.190   6.659  0.0971 -0.0933  0.1335
  685PSPI   C4B10942  11.767   3.106   7.074  0.1691 -0.0255  0.0127
  686PSPI    C110943  14.987   9.936   5.498 -0.1607 -0.0377 -0.0624
  686PSPI    C210944  14.985  10.323   5.599  0.2678 -0.1075  0.2460
  686PSPI    C310945  15.089  10.213   5.229 -0.0762  0.0794  0.0885
  686PSPI   PO410946  15.218   9.923   5.760  0.0709  0.1429  0.0323
  686PSPI   GL110947  15.268   9.844   6.143  0.2850 -0.0170 -0.3843
  686PSPI   GL210948  15.265  10.149   6.335  0.0653  0.2523  0.0601
  686PSPI   C1A10949  15.424   9.777   6.570 -0.1065 -0.1229  0.1830
  686PSPI   C2A10950  15.380   9.892   7.109  0.2445  0.2194  0.1343
  686PSPI   C3A10951  15.579   9.899   7.514  0.0462  0.0808  0.2584
  686PSPI   C4A10952  15.645   9.931   7.952  0.3056  0.0057  0.0343
  686PSPI   C1B10953  15.009  10.201   6.741 -0.1693 -0.3094  0.1071
  686PSPI   C2B10954  14.950  10.005   7.258  0.2204 -0.3370  0.0408
  686PSPI   C3B10955  14.889   9.705   7.512  0.1400  0.1709  0.1309
  686PSPI   C4B10956  14.794   9.621   7.846  0.0806 -0.0371  0.1659
  687PSPI    C110957  10.325  10.502   5.048  0.3170  0.0487  0.2091
  687PSPI    C210958  10.278  10.758   4.745  0.0538 -0.0010  0.2055
  687PSPI    C310959  10.457  10.406   4.683  0.2889  0.1211  0.1796
  687PSPI   PO410960  10.466  10.631   5.199 -0.2310  0.0822 -0.3390
  687PSPI   GL110961  10.479  10.669   5.670 -0.1866  0.0056  0.0333
  687PSPI   GL210962  10.812  10.608   5.591  0.0407  0.1054 -0.1536
  687PSPI   C1A10963  10.566  10.652   6.162  0.0410 -0.1384 -0.0003
  687PSPI   C2A10964  10.386  10.750   6.506 -0.2714 -0.0924  0.0505
  687PSPI   C3A10965  10.232  11.081   6.681 -0.1252  0.3151  0.2227
  687PSPI   C4A10966   9.932  11.343   6.969 -0.0024 -0.0041 -0.1600
  687PSPI   C1B10967  11.010  10.537   6.039  0.0616  0.0955  0.3557
  687PSPI   C2B10968  10.726  10.288   6.490  0.1866  0.0958 -0.1348
  687PSPI   C3B10969  10.913   9.912   6.749  0.0944  0.1027 -0.0045
  687PSPI   C4B10970  11.095   9.446   6.582 -0.0464  0.4979 -0.0166
  688PSPI    C110971  12.449   1.284   5.527 -0.5220  0.0721  0.0843
  688PSPI    C210972  12.391   1.038   5.216 -0.2836  0.0903  0.0238
  688PSPI    C310973  12.296   1.425   5.185 -0.0699  0.1344 -0.0987
  688PSPI   PO410974  12.318   1.252   5.691  0.0032  0.0763 -0.0463
  688PSPI   GL110975  12.403   1.256   6.224  0.1873 -0.0723 -0.3355
  688PSPI   GL210976  12.515   1.041   6.109 -0.2286  0.0113  0.0902
  688PSPI   C1A10977  12.571   1.473   6.477 -0.1057 -0.0597 -0.1065
  688PSPI   C2A10978  12.666   1.400   6.907 -0.0973  0.1228  0.1965
  688PSPI   C3A10979  12.378   1.427   7.288  0.0119  0.1060  0.1483
  688PSPI   C4A10980  12.277   1.163   7.614 -0.1086  0.2080  0.0160
  688PSPI   C1B10981  12.685   1.009   6.579  0.0132 -0.0388  0.0560
  688PSPI   C2B10982  12.902   1.030   7.040  0.0358 -0.1304 -0.0711
  688PSPI   C3B10983  13.233   1.061   7.350 -0.2798  0.1805  0.2126
  688PSPI   C4B10984  13.410   1.328   7.652 -0.0876 -0.0894  0.2699
  689PSPI    C110985  16.600   3.860   5.859 -0.2132  0.0883  0.1326
  689PSPI    C210986  16.885   3.612   5.726 -0.0663  0.4654 -0.2780
  689PSPI    C310987  16.507   3.570   5.600 -0.1439  0.1432  0.0459
  689PSPI   PO410988  16.726   3.883   6.126 -0.1644 -0.0189 -0.1238
  689PSPI   GL110989  16.625   4.074   6.584 -0.0734  0.2396 -0.2363
  689PSPI   GL210990  16.691   3.790   6.624 -0.0670  0.1266 -0.0308
  689PSPI   C1A10991  16.730   4.054   7.053 -0.4596 -0.1999  0.1622
  689PSPI   C2A10992  16.551   3.927   7.488  0.2257  0.0604 -0.2225
  689PSPI   C3A10993  16.273   4.116   7.751  0.0255  0.0049  0.2900
  689PSPI   C4A10994  16.009   4.225   8.125 -0.0970 -0.1394  0.0854
  689PSPI   C1B10995  16.552   3.523   6.911 -0.1578  0.0850 -0.1187
  689PSPI   C2B10996  16.510   3.387   7.396  0.4864 -0.1017  0.3302
  689PSPI   C3B10997  16.679   2.962   7.617  0.0411 -0.1118 -0.3356
  689PSPI   C4B10998  16.998   2.575   7.721 -0.1548 -0.0808 -0.1611
  690PSPI    C110999   0.413  10.697   5.542 -0.0503 -0.1293 -0.1359
  690PSPI    C211000   0.664  10.749   5.235  0.0983  0.2174  0.0388
  690PSPI    C311001   0.394  11.030   5.322 -0.1187  0.0033  0.0677
  690PSPI   PO411002   0.674  10.618   5.722  0.1052  0.2558 -0.0349
  690PSPI   GL111003   0.731  10.347   6.033 -0.2031 -0.1611  0.3251
  690PSPI   GL211004   0.565  10.080   6.013  0.1841 -0.2411  0.5381
  690PSPI   C1A11005   1.038  10.533   6.296 -0.3026 -0.0258  0.1010
  690PSPI   C2A11006   1.028  10.836   6.675  0.0304  0.0183  0.1118
  690PSPI   C3A11007   1.084  11.190   6.859 -0.1247  0.1228  0.1207
  690PSPI   C4A11008   1.181  11.405   7.170 -0.0374  0.0259  0.0413
  690PSPI   C1B11009   0.787  10.096   6.459 -0.2026  0.0482  0.0133
  690PSPI   C2B11010   0.784   9.854   6.863 -0.0988 -0.1629  0.1509
  690PSPI   C3B11011   0.775   9.894   7.351  0.0358  0.1161  0.1248
  690PSPI   C4B11012   0.691  10.049   7.801  0.2766  0.1484 -0.0525
  691PSPI    C111013  17.513   4.426   5.944 -0.2605  0.0976  0.0453
  691PSPI    C211014  17.680   4.307   5.601 -0.0312 -0.1760  0.2467
  691PSPI    C311015  17.481   4.653   5.617  0.0959 -0.0819 -0.1201
  691PSPI   PO411016  17.418   4.243   6.088  0.2584  0.1524  0.3152
  691PSPI   GL111017  17.088   4.123   6.376  0.0574  0.1378 -0.0483
  691PSPI   GL211018  17.353   4.041   6.506  0.3408 -0.3827 -0.1644
  691PSPI   C1A11019  17.243   4.481   6.746 -0.0031 -0.3804  0.1472
  691PSPI   C2A11020  17.303   4.577   7.228 -0.1285 -0.3045  0.1901
  691PSPI   C3A11021  17.662   4.706   7.558 -0.2029  0.0725  0.0882
  691PSPI   C4A11022  18.048   4.779   7.808  0.0085  0.1692  0.2823
  691PSPI   C1B11023  17.191   3.988   6.872 -0.2966 -0.1057  0.2494
  691PSPI   C2B11024  17.183   4.038   7.301 -0.2013 -0.1258 -0.2377
  691PSPI   C3B11025  17.186   3.764   7.623  0.3952 -0.2599  0.3765
  691PSPI   C4B11026  17.420   3.593   7.928 -0.1419  0.1257 -0.0745
  692PSPI    C111027   9.181  17.445   5.046  0.1154  0.0219  0.1729
  692PSPI    C211028   8.909  17.487   4.756 -0.0535 -0.0016  0.3267
  692PSPI    C311029   9.264  17.324   4.673 -0.0504  0.1131  0.1052
  692PSPI   PO411030   9.240  17.646   5.238 -0.1320  0.0217 -0.1812
  692PSPI   GL111031   9.497  17.549   5.646 -0.1585  0.1061 -0.0309
  692PSPI   GL211032   9.722  17.782   5.655  0.0236  0.0425 -0.0958
  692PSPI   C1A11033   9.757  17.442   6.120  0.2434  0.1360  0.0767
  692PSPI   C2A11034   9.682  17.282   6.496 -0.1389  0.0948  0.1998
  692PSPI   C3A11035   9.793  17.154   6.879  0.2067 -0.3900  0.0236
  692PSPI   C4A11036   9.883  17.018   7.331 -0.4125 -0.3203  0.1433
  692PSPI   C1B11037   9.700  18.259   5.749  0.5306 -0.0053 -0.4343
  692PSPI   C2B11038   9.896  18.568   5.922 -0.4888  0.3533 -0.5011
  692PSPI   C3B11039   9.762  18.940   6.168 -0.1658 -0.2249 -0.1143
  692PSPI   C4B11040   9.655  19.156   6.551 -0.0289 -0.0449 -0.2796
  693PSPI    C111041   6.396  12.319   5.133  0.0180  0.1163  0.2500
  693PSPI    C211042   6.018  12.189   5.155  0.0718 -0.0552  0.1812
  693PSPI    C311043   6.117  12.473   4.891  0.0023 -0.0503  0.1603
  693PSPI   PO411044   6.501  12.184   5.287  0.3308  0.1848  0.0802
  693PSPI   GL111045   6.728  12.353   5.534 -0.1059  0.1406 -0.0404
  693PSPI   GL211046   6.821  12.003   5.628  0.1394 -0.0227 -0.0779
  693PSPI   C1A11047   6.559  12.473   5.909  0.0915  0.2475 -0.1021
  693PSPI   C2A11048   6.423  12.352   6.371 -0.0211 -0.3393 -0.3483
  693PSPI   C3A11049   6.258  12.431   6.891  0.0861  0.0583  0.4125
  693PSPI   C4A11050   5.907  12.305   7.168 -0.0315  0.0470 -0.1402
  693PSPI   C1B11051   6.490  11.970   6.044  0.1836 -0.1252 -0.3312
  693PSPI   C2B11052   6.104  12.021   6.145  0.1674 -0.0666 -0.1027
  693PSPI   C3B11053   5.922  11.996   6.541 -0.0499  0.0398  0.2783
  693PSPI   C4B11054   5.574  12.037   6.721 -0.1417 -0.0307  0.0767
  694PSPI    C111055  11.148   4.688   5.128  0.2034 -0.3307  0.0079
  694PSPI    C211056  11.186   4.423   4.830  0.0667 -0.1493 -0.1735
  694PSPI    C311057  11.241   4.813   4.759 -0.1091 -0.0899  0.0064
  694PSPI   PO411058  11.023   4.575   5.319 -0.0417  0.2120 -0.0605
  694PSPI   GL111059  10.928   4.563   5.733 -0.1918  0.1157  0.0363
  694PSPI   GL211060  10.557   4.678   5.790 -0.0589  0.1339  0.1399
  694PSPI   C1A11061  10.726   4.285   6.156  0.0229 -0.0726  0.1194
  694PSPI   C2A11062  10.686   4.367   6.562 -0.2271 -0.0284  0.1309
  694PSPI   C3A11063  10.598   4.249   7.024 -0.1022  0.2412 -0.1490
  694PSPI   C4A11064  10.628   4.415   7.468 -0.0098 -0.0633 -0.0298
  694PSPI   C1B11065  10.633   4.808   6.233 -0.1089 -0.1875 -0.1930
  694PSPI   C2B11066  10.520   4.850   6.677  0.0103 -0.2669  0.2049
  694PSPI   C3B11067  10.791   4.719   7.009 -0.1414  0.4369 -0.0305
  694PSPI   C4B11068  11.045   4.466   7.120  0.3519 -0.1411 -0.1219
  695PSPI    C111069  13.970   5.079   5.343 -0.0481 -0.0513  0.0420
  695PSPI    C211070  14.345   4.996   5.453 -0.1780 -0.4314  0.2160
  695PSPI    C311071  14.233   4.948   5.072 -0.0273 -0.2224  0.1436
  695PSPI   PO411072  13.913   5.280   5.619  0.1050 -0.0700 -0.2681
  695PSPI   GL111073  13.562   5.188   5.993  0.1358 -0.1007  0.1155
  695PSPI   GL211074  13.438   5.549   6.036  0.2411 -0.2060  0.3321
  695PSPI   C1A11075  13.649   5.135   6.356 -0.1778  0.0037 -0.2958
  695PSPI   C2A11076  13.837   5.151   6.804  0.3260 -0.1858 -0.2071
  695PSPI   C3A11077  13.926   5.077   7.193 -0.0694 -0.0672  0.0890
  695PSPI   C4A11078  14.197   5.244   7.602 -0.1517 -0.2290 -0.0968
  695PSPI   C1B11079  13.688   5.593   6.461 -0.0491  0.0641 -0.2036
  695PSPI   C2B11080  13.625   5.659   6.810 -0.0283 -0.2807  0.1272
  695PSPI   C3B11081  13.293   5.725   7.102  0.1759  0.0524 -0.0004
  695PSPI   C4B11082  12.946   5.665   7.373 -0.1907 -0.1028 -0.0028
  696PSPI    C111083   2.338   6.047   5.783 -0.1509 -0.2114 -0.2430
  696PSPI    C211084   2.674   5.836   5.827  0.0138  0.0917 -0.0036
  696PSPI    C311085   2.687   6.198   5.658 -0.1789  0.1412  0.0859
  696PSPI   PO411086   2.213   5.961   6.003  0.0918 -0.2949 -0.0557
  696PSPI   GL111087   2.537   6.042   6.320 -0.2408  0.0308  0.2071
  696PSPI   GL211088   2.839   6.151   6.140  0.0934 -0.0533 -0.2789
  696PSPI   C1A11089   2.627   5.942   6.778 -0.0882  0.1326 -0.0820
  696PSPI   C2A11090   2.472   5.648   7.023  0.0450 -0.2996 -0.1420
  696PSPI   C3A11091   2.286   5.749   7.463 -0.1397  0.1611 -0.2128
  696PSPI   C4A11092   2.430   5.779   7.851  0.1971 -0.0604 -0.1128
  696PSPI   C1B11093   2.964   6.329   6.534 -0.2599  0.1070 -0.2525
  696PSPI   C2B11094   2.989   6.464   6.989  0.0234  0.0286  0.2975
  696PSPI   C3B11095   3.248   6.194   7.334  0.3472 -0.1134  0.0567
  696PSPI   C4B11096   3.405   5.704   7.366  0.0789 -0.0094  0.0732
  697POPI    C111097   9.963  16.138   5.252 -0.1663  0.1853 -0.2392
  697POPI    C211098  10.305  16.338   5.312 -0.0760 -0.0637  0.1106
  697POPI    C311099  10.286  16.053   5.032 -0.0669  0.1064 -0.0651
  697POPI   PO411100   9.827  16.111   5.525  0.0061  0.0850  0.2701
  697POPI   GL111101  10.129  16.189   5.845 -0.2111 -0.0412 -0.0017
  697POPI   GL211102  10.385  16.081   5.749  0.3914 -0.1190  0.3995
  697POPI   C1A11103  10.198  16.165   6.262 -0.0300 -0.2702  0.1788
  697POPI   D2A11104  10.399  16.354   6.710  0.0192 -0.1484 -0.0665
  697POPI   C3A11105  10.347  16.063   7.056 -0.1801 -0.0338  0.1179
  697POPI   C4A11106  10.312  15.865   7.430  0.1482 -0.0149  0.1433
  697POPI   C1B11107  10.655  16.301   6.117  0.1917  0.0047  0.1581
  697POPI   C2B11108  10.707  16.729   6.408 -0.1348  0.0805 -0.2474
  697POPI   C3B11109  10.774  16.849   6.832  0.0756  0.0475  0.1085
  697POPI   C4B11110  10.896  17.105   7.139  0.0565  0.0614 -0.1868
  698POPI    C111111   1.843   2.291   5.480 -0.3746  0.1484  0.1825
  698POPI    C211112   1.619   2.549   5.273 -0.1006  0.1374 -0.1377
  698POPI    C311113   1.904   2.339   5.087  0.0056 -0.0371  0.2138
  698POPI   PO411114   1.747   2.188   5.662 -0.2503  0.2777 -0.3933
  698POPI   GL111115   2.052   2.157   5.985  0.1665 -0.0407  0.2489
  698POPI   GL211116   1.922   1.944   6.032 -0.2823  0.3968  0.0364
  698POPI   C1A11117   2.028   2.336   6.438 -0.0162  0.0113 -0.0045
  698POPI   D2A11118   2.192   2.225   6.745  0.0396 -0.2780 -0.1662
  698POPI   C3A11119   1.975   2.128   7.033 -0.3027  0.1371 -0.0289
  698POPI   C4A11120   1.688   1.857   6.977 -0.2279 -0.2006  0.1365
  698POPI   C1B11121   2.201   1.878   6.374 -0.0440  0.0060  0.1740
  698POPI   C2B11122   2.381   1.567   6.379 -0.0096  0.1018  0.2088
  698POPI   C3B11123   2.663   1.407   6.557 -0.1290  0.0993  0.0628
  698POPI   C4B11124   2.996   1.254   6.888 -0.0161  0.0167 -0.0360
  699POPI    C111125  11.202   6.781   4.989 -0.0163  0.0399 -0.3037
  699POPI    C211126  11.432   6.495   4.832  0.1641  0.0546 -0.0711
  699POPI    C311127  11.391   6.845   4.643  0.1713 -0.0207 -0.2133
  699POPI   PO411128  11.205   6.684   5.260  0.0123 -0.1320 -0.1957
  699POPI   GL111129  11.379   6.611   5.667 -0.0103 -0.1734 -0.1622
  699POPI   GL211130  11.050   6.686   5.736  0.0591  0.0320 -0.1591
  699POPI   C1A11131  11.543   6.684   6.025 -0.0189  0.0781 -0.0237
  699POPI   D2A11132  11.714   7.036   6.230  0.2180 -0.0864 -0.0444
  699POPI   C3A11133  11.779   6.880   6.671  0.1582 -0.0388 -0.0286
  699POPI   C4A11134  11.950   6.992   7.065 -0.6716  0.1375 -0.0999
  699POPI   C1B11135  10.712   6.587   6.112  0.0257 -0.1303  0.2815
  699POPI   C2B11136  10.788   6.538   6.596 -0.0536 -0.1454  0.3669
  699POPI   C3B11137  10.691   6.548   7.022 -0.2629  0.0557  0.1850
  699POPI   C4B11138  10.667   6.838   7.458 -0.1750 -0.1060  0.0555
  700POPI    C111139   5.951  16.681   5.119 -0.2010 -0.0602 -0.1087
  700POPI    C211140   5.817  16.801   4.762 -0.0533 -0.1121 -0.1826
  700POPI    C311141   6.072  17.031   4.968 -0.1777 -0.0586 -0.0865
  700POPI   PO411142   6.004  16.463   5.126  0.2351  0.0841  0.1691
  700POPI   GL111143   6.152  16.358   5.529 -0.2452 -0.0306  0.0228
  700POPI   GL211144   6.247  16.089   5.415  0.0078  0.1562 -0.4018
  700POPI   C1A11145   6.388  16.487   5.826  0.0362 -0.2247 -0.0288
  700POPI   D2A11146   6.335  16.936   6.097 -0.0920 -0.1159 -0.0975
  700POPI   C3A11147   6.337  16.790   6.456  0.0310 -0.0408 -0.0909
  700POPI   C4A11148   6.307  17.040   6.946  0.0590 -0.1729 -0.3600
  700POPI   C1B11149   6.377  15.942   5.854 -0.2427  0.0725 -0.0435
  700POPI   C2B11150   6.346  15.962   6.372 -0.2440  0.2034  0.4202
  700POPI   C3B11151   6.057  15.687   6.621  0.1791  0.1689 -0.0178
  700POPI   C4B11152   6.179  15.382   6.839  0.1142  0.1851  0.0316
  701POPI    C111153   7.230   8.634   5.407  0.1426 -0.0318  0.1219
  701POPI    C211154   7.322   8.550   5.027  0.3221  0.1360  0.1265
  701POPI    C311155   7.310   8.930   5.150 -0.3933  0.1272  0.1260
  701POPI   PO411156   7.381   8.533   5.531  0.0823 -0.0059  0.3922
  701POPI   GL111157   7.330   8.655   5.903 -0.0915 -0.1286  0.0531
  701POPI   GL211158   7.264   8.331   5.936 -0.3607 -0.0636  0.0643
  701POPI   C1A11159   7.233   9.021   6.202  0.0047 -0.0793  0.0285
  701POPI   D2A11160   7.522   9.364   6.200 -0.2243  0.0335 -0.0600
  701POPI   C3A11161   7.496   9.711   6.225  0.0916 -0.0943 -0.0569
  701POPI   C4A11162   7.494  10.090   6.511  0.1069  0.1291  0.2197
  701POPI   C1B11163   7.445   8.100   6.332 -0.2367  0.1002  0.3770
  701POPI   C2B11164   7.678   8.049   6.652  0.2579  0.2108  0.0024
  701POPI   C3B11165   7.881   7.886   7.119 -0.0571  0.2971 -0.1904
  701POPI   C4B11166   7.746   7.610   7.406 -0.1332  0.1295 -0.0136
  702POPI    C111167  11.683  13.586   5.505 -0.1453 -0.0404 -0.0879
  702POPI    C211168  11.761  13.592   5.113  0.0731  0.0828 -0.0443
  702POPI    C311169  11.529  13.874   5.274 -0.1424 -0.0555 -0.1087
  702POPI   PO411170  11.910  13.639   5.621  0.0359 -0.0564  0.0360
  702POPI   GL111171  12.097  13.964   5.869  0.0901 -0.0548  0.1985
  702POPI   GL211172  11.748  14.084   5.961 -0.0696 -0.0615  0.0655
  702POPI   C1A11173  12.228  14.250   6.247  0.1141  0.2374  0.1256
  702POPI   D2A11174  12.399  14.346   6.608 -0.1748 -0.0568 -0.0526
  702POPI   C3A11175  12.267  14.127   6.867 -0.1079  0.2858 -0.2373
  702POPI   C4A11176  12.299  13.985   7.160 -0.1366  0.3052  0.1043
  702POPI   C1B11177  11.902  13.874   6.377 -0.1932 -0.0457  0.0197
  702POPI   C2B11178  11.831  13.657   6.769  0.3196 -0.1162 -0.0949
  702POPI   C3B11179  12.052  13.554   7.202 -0.3092  0.0558 -0.4087
  702POPI   C4B11180  12.403  13.434   7.219  0.4626 -0.1007 -0.0179
  703POPI    C111181  16.737  12.356   5.656  0.1487  0.1180 -0.2458
  703POPI    C211182  17.125  12.398   5.744  0.0980 -0.0096  0.0529
  703POPI    C311183  16.909  12.716   5.634  0.2790  0.0667 -0.0874
  703POPI   PO411184  16.667  12.235   5.892 -0.0732  0.3228  0.1117
  703POPI   GL111185  16.903  11.943   6.229  0.1800  0.1990  0.1723
  703POPI   GL211186  16.990  12.227   6.222 -0.0150 -0.4348  0.1529
  703POPI   C1A11187  16.911  11.699   6.519 -0.1325 -0.1201 -0.2666
  703POPI   D2A11188  16.699  11.690   6.972  0.0887  0.0159 -0.2849
  703POPI   C3A11189  17.021  11.540   7.298  0.3756  0.1458  0.1695
  703POPI   C4A11190  17.131  11.527   7.752 -0.2152 -0.1856  0.0268
  703POPI   C1B11191  16.877  12.203   6.731  0.2026 -0.1672 -0.1709
  703POPI   C2B11192  16.890  12.165   7.087 -0.0164  0.1703 -0.2360
  703POPI   C3B11193  17.032  12.029   7.503  0.1187 -0.0538  0.3670
  703POPI   C4B11194  17.015  12.445   7.716  0.1953 -0.1082 -0.0477
  704POPI    C111195   0.104   6.650   5.898  0.0414 -0.1101 -0.0590
  704POPI    C211196   0.113   6.253   5.947  0.1739 -0.1180 -0.1431
  704POPI    C311197   0.057   6.409   5.583 -0.2229 -0.0586 -0.0618
  704POPI   PO411198   0.290   6.752   6.028  0.0392  0.3688 -0.3450
  704POPI   GL111199   0.334   6.914   6.332  0.1080 -0.3795  0.3715
  704POPI   GL211200   0.603   6.914   6.367  0.1776  0.1231 -0.1094
  704POPI   C1A11201   0.240   6.779   6.671  0.2366  0.2559  0.2629
  704POPI   D2A11202   0.336   6.790   7.029 -0.1054 -0.0125  0.1041
  704POPI   C3A11203   0.087   6.654   7.441 -0.0219 -0.1623  0.0718
  704POPI   C4A11204   0.265   6.794   7.822 -0.1036 -0.2432 -0.0515
  704POPI   C1B11205   0.702   6.569   6.771  0.0084 -0.0605  0.2016
  704POPI   C2B11206   0.606   6.273   7.069 -0.0308 -0.2803 -0.0537
  704POPI   C3B11207   0.378   6.262   7.355  0.1061 -0.1425 -0.0067
  704POPI   C4B11208  -0.038   6.173   7.378 -0.1175  0.4116  0.0895
  705POPI    C111209  17.404  11.955   5.338 -0.0108  0.0831  0.0716
  705POPI    C211210  17.318  11.566   5.369 -0.1255  0.0950 -0.0814
  705POPI    C311211  17.094  11.802   5.136  0.1187  0.1954 -0.2183
  705POPI   PO411212  17.465  12.048   5.613 -0.1591  0.1921  0.2688
  705POPI   GL111213  17.438  12.088   6.058 -0.0604 -0.2301  0.1328
  705POPI   GL211214  17.643  12.261   6.192 -0.3654 -0.2209 -0.2260
  705POPI   C1A11215  17.286  12.039   6.513  0.2979  0.0279  0.1905
  705POPI   D2A11216  17.516  12.094   6.797 -0.1417 -0.3095 -0.0209
  705POPI   C3A11217  17.434  12.065   7.176 -0.0305 -0.1167  0.1970
  705POPI   C4A11218  17.530  11.816   7.525  0.0010 -0.2820  0.1834
  705POPI   C1B11219  17.868  12.389   6.535  0.2014 -0.0522 -0.0794
  705POPI   C2B11220  17.827  12.448   7.091  0.1009  0.0094 -0.0369
  705POPI   C3B11221  18.025  12.384   7.523  0.0541  0.0427  0.1871
  705POPI   C4B11222  17.990  12.015   7.786  0.0260  0.0334 -0.1485
  706POPI    C111223   8.714  16.747   5.429 -0.0444 -0.2074 -0.0344
  706POPI    C211224   9.101  16.711   5.524  0.0090 -0.0515 -0.1886
  706POPI    C311225   8.967  16.571   5.174 -0.0973 -0.2071 -0.0870
  706POPI   PO411226   8.668  17.018   5.626  0.3869  0.1267  0.0710
  706POPI   GL111227   8.811  17.164   6.001 -0.0481 -0.0782  0.2862
  706POPI   GL211228   8.939  16.843   6.006 -0.0954  0.3419  0.0275
  706POPI   C1A11229   8.827  17.544   6.323 -0.0423 -0.1275 -0.0366
  706POPI   D2A11230   8.939  17.814   6.609 -0.0114 -0.1077 -0.1896
  706POPI   C3A11231   9.096  17.863   7.077  0.1972 -0.0255 -0.1546
  706POPI   C4A11232   9.137  18.178   7.345 -0.0284  0.2017  0.1063
  706POPI   C1B11233   8.580  16.751   6.248  0.1436 -0.1701 -0.2817
  706POPI   C2B11234   8.461  16.751   6.724  0.2619  0.1596  0.3875
  706POPI   C3B11235   8.327  16.666   7.043  0.0287 -0.0147 -0.3478
  706POPI   C4B11236   8.249  16.686   7.338  0.0287 -0.0848  0.0137
  707POPI    C111237  10.403   6.629   5.307 -0.0843  0.0110 -0.2753
  707POPI    C211238  10.709   6.613   5.049  0.2553  0.1725  0.1062
  707POPI    C311239  10.700   6.896   5.332 -0.1546  0.0525  0.2205
  707POPI   PO411240  10.215   6.664   5.131  0.2026 -0.1962  0.0711
  707POPI   GL111241   9.776   6.818   5.227  0.1768 -0.2487 -0.1724
  707POPI   GL211242   9.954   6.891   5.484 -0.4099 -0.0715 -0.1621
  707POPI   C1A11243   9.599   6.519   5.453  0.3017  0.2296  0.2871
  707POPI   D2A11244   9.398   6.588   5.885  0.0798 -0.3099 -0.1163
  707POPI   C3A11245   9.221   6.227   5.996  0.0041 -0.2411 -0.0810
  707POPI   C4A11246   8.906   5.881   5.930 -0.1720  0.0138 -0.1879
  707POPI   C1B11247   9.748   7.148   5.828  0.3158 -0.1912  0.0624
  707POPI   C2B11248   9.679   7.414   6.256 -0.0263 -0.0506  0.0752
  707POPI   C3B11249   9.551   7.354   6.622  0.0746  0.0658  0.0445
  707POPI   C4B11250   9.328   7.625   6.945 -0.4095 -0.1160  0.0104
  708POPI    C111251   0.222   9.938   5.462  0.0846  0.2362  0.2198
  708POPI    C211252  -0.040  10.014   5.169  0.0759 -0.1197  0.1298
  708POPI    C311253   0.203  10.304   5.302  0.0460  0.0583 -0.1939
  708POPI   PO411254   0.113   9.844   5.718  0.1198  0.1621  0.0228
  708POPI   GL111255  -0.182   9.933   6.024  0.0296  0.0349 -0.0424
  708POPI   GL211256   0.114   9.952   6.232  0.2260  0.0277 -0.0645
  708POPI   C1A11257  -0.282  10.012   6.522 -0.4004  0.0098 -0.0643
  708POPI   D2A11258  -0.071   9.893   6.883 -0.0567  0.1964  0.1499
  708POPI   C3A11259   0.013   9.801   7.330  0.0486  0.0137 -0.1052
  708POPI   C4A11260  -0.102   9.817   7.717 -0.1952 -0.2864  0.1064
  708POPI   C1B11261   0.270  10.099   6.552  0.2468  0.1337 -0.2063
  708POPI   C2B11262   0.406  10.070   7.070 -0.0956  0.3273 -0.3548
  708POPI   C3B11263   0.291  10.263   7.468  0.1620 -0.0834 -0.0694
  708POPI   C4B11264   0.032  10.443   7.827 -0.2901 -0.3780  0.1742
  709POPI    C111265   1.633   9.212   5.589  0.2966 -0.1709 -0.0636
  709POPI    C211266   1.624   9.388   5.230 -0.1724 -0.1102 -0.0294
  709POPI    C311267   1.591   8.990   5.259 -0.0462 -0.1232 -0.0560
  709POPI   PO411268   1.459   9.356   5.729  0.0590 -0.1433  0.0573
  709POPI   GL111269   1.417   9.423   6.142  0.0237 -0.1363 -0.0315
  709POPI   GL211270   1.526   9.097   6.132  0.0296 -0.1478 -0.1040
  709POPI   C1A11271   1.537   9.354   6.572  0.0544  0.0613 -0.0327
  709POPI   D2A11272   1.644   9.224   6.897  0.0777  0.0187  0.1559
  709POPI   C3A11273   1.975   9.558   7.071 -0.2158 -0.0575 -0.1765
  709POPI   C4A11274   2.003   9.791   7.368  0.1307 -0.4251  0.2030
  709POPI   C1B11275   1.466   8.698   6.207  0.1690  0.0634  0.0342
  709POPI   C2B11276   1.370   8.398   6.405  0.1580 -0.1101  0.3002
  709POPI   C3B11277   1.166   8.060   6.615 -0.1747 -0.0161  0.2752
  709POPI   C4B11278   0.926   8.339   6.782 -0.0977  0.0685  0.0167
  710POPI    C111279  11.502   2.454   5.413  0.2104  0.1201 -0.1446
  710POPI    C211280  11.366   2.828   5.455  0.1954  0.1404 -0.3653
  710POPI    C311281  11.215   2.590   5.170 -0.2718 -0.2601  0.1922
  710POPI   PO411282  11.587   2.390   5.645 -0.2811 -0.1150  0.1376
  710POPI   GL111283  11.418   2.307   6.059 -0.1855  0.0997 -0.0043
  710POPI   GL211284  11.557   1.925   6.006 -0.1183 -0.1019  0.0241
  710POPI   C1A11285  11.321   2.230   6.504 -0.0916  0.1756 -0.2350
  710POPI   D2A11286  11.502   2.241   6.907 -0.1752 -0.1182  0.2448
  710POPI   C3A11287  11.412   1.904   7.151  0.1568 -0.1972 -0.0858
  710POPI   C4A11288  11.362   1.536   7.340  0.2035  0.2105 -0.0867
  710POPI   C1B11289  11.909   2.231   6.193 -0.1112 -0.0312 -0.1603
  710POPI   C2B11290  11.936   2.322   6.663  0.1763 -0.0294  0.0833
  710POPI   C3B11291  12.024   2.170   7.082  0.1864  0.2744  0.2789
  710POPI   C4B11292  11.838   2.280   7.430  0.2603 -0.0729 -0.0799
  711POPI    C111293   7.728  16.495   5.201  0.1475  0.1002  0.1561
  711POPI    C211294   7.690  16.558   4.808 -0.1329 -0.2401  0.1235
  711POPI    C311295   8.049  16.471   4.963 -0.0207 -0.1028 -0.0545
  711POPI   PO411296   7.539  16.770   5.283 -0.0744  0.0851  0.1739
  711POPI   GL111297   7.492  17.028   5.718 -0.0055  0.2903  0.1612
  711POPI   GL211298   7.354  16.768   5.746  0.2174  0.0456 -0.2013
  711POPI   C1A11299   7.183  17.108   6.082  0.3004  0.1435 -0.4886
  711POPI   D2A11300   7.118  17.404   6.494 -0.0904 -0.0057  0.2005
  711POPI   C3A11301   6.786  17.598   6.739 -0.0373  0.0006  0.0323
  711POPI   C4A11302   6.457  17.887   6.633  0.1687 -0.1171 -0.0608
  711POPI   C1B11303   6.993  16.638   6.112  0.1305 -0.0761 -0.0862
  711POPI   C2B11304   6.748  16.536   6.423 -0.1059 -0.0329  0.1150
  711POPI   C3B11305   6.614  16.235   6.694 -0.1069 -0.2687  0.0212
  711POPI   C4B11306   6.431  15.915   6.867 -0.3948  0.1603  0.1375
  712POPI    C111307  14.911  18.022   5.577 -0.0892  0.4272 -0.0167
  712POPI    C211308  15.203  18.194   5.366  0.0106  0.0680 -0.1799
  712POPI    C311309  14.877  18.057   5.180  0.0506 -0.1535 -0.0900
  712POPI   PO411310  15.147  17.927   5.815 -0.1232  0.3588  0.2843
  712POPI   GL111311  15.036  17.911   6.205  0.2177  0.1240  0.1169
  712POPI   GL211312  15.225  18.188   6.251  0.1990 -0.0011 -0.0648
  712POPI   C1A11313  15.326  17.786   6.568  0.2139  0.3745 -0.1211
  712POPI   D2A11314  15.522  17.790   6.919  0.0646  0.0495  0.0551
  712POPI   C3A11315  15.270  18.111   7.186  0.2746 -0.0272 -0.2088
  712POPI   C4A11316  15.047  18.565   7.176  0.2431  0.0846  0.0172
  712POPI   C1B11317  15.655  18.270   6.449  0.3662  0.1728 -0.3740
  712POPI   C2B11318  15.874  18.146   6.877 -0.1567 -0.0850 -0.0326
  712POPI   C3B11319  16.073  18.359   7.172  0.0529  0.0779 -0.2116
  712POPI   C4B11320  16.345  18.086   7.376  0.0134 -0.2686  0.1232
  713POPI    C111321   7.876   1.276   5.324  0.0027 -0.1904 -0.0874
  713POPI    C211322   7.829   1.599   5.093 -0.1173 -0.1366  0.0111
  713POPI    C311323   8.173   1.395   5.084 -0.0388 -0.0027 -0.0466
  713POPI   PO411324   7.809   1.376   5.634  0.1389 -0.0648  0.1147
  713POPI   GL111325   7.713   1.605   5.926 -0.0054 -0.2258  0.0659
  713POPI   GL211326   8.092   1.450   6.058  0.0098 -0.0420 -0.2045
  713POPI   C1A11327   7.370   1.706   6.192  0.3539 -0.5218 -0.1976
  713POPI   D2A11328   7.202   1.907   6.577  0.1967  0.0070  0.0760
  713POPI   C3A11329   7.404   2.127   6.782  0.3195 -0.0686 -0.0573
  713POPI   C4A11330   7.221   2.451   7.057 -0.1071  0.3649 -0.1655
  713POPI   C1B11331   7.895   1.498   6.484  0.2164 -0.1030 -0.1179
  713POPI   C2B11332   7.635   1.717   6.793  0.0806 -0.0612  0.0475
  713POPI   C3B11333   7.258   1.627   7.015 -0.1317  0.4305 -0.2341
  713POPI   C4B11334   6.856   1.366   7.161 -0.0014 -0.0499  0.1074
  714POPI    C111335   2.960  18.219   5.074 -0.3134 -0.0262 -0.2062
  714POPI    C211336   2.913  17.824   5.039 -0.0510 -0.0886  0.0967
  714POPI    C311337   2.593  18.065   5.038 -0.2202 -0.3098  0.0257
  714POPI   PO411338   3.156  18.229   5.325  0.1313  0.0666  0.0796
  714POPI   GL111339   3.155  18.217   5.792  0.0888  0.1827 -0.2151
  714POPI   GL211340   2.829  18.226   5.898  0.2920 -0.1302  0.0772
  714POPI   C1A11341   3.365  18.164   6.229 -0.0458  0.3994 -0.1286
  714POPI   D2A11342   3.361  18.076   6.680  0.3088  0.0355  0.1105
  714POPI   C3A11343   3.388  17.777   6.998  0.4683  0.2724  0.0957
  714POPI   C4A11344   3.364  17.500   7.305  0.0462 -0.1011 -0.0432
  714POPI   C1B11345   3.069  18.588   6.127 -0.0914 -0.2424 -0.4035
  714POPI   C2B11346   3.217  18.589   6.576 -0.1997  0.2208 -0.2900
  714POPI   C3B11347   3.162  18.727   7.011 -0.2841  0.3023 -0.1214
  714POPI   C4B11348   3.128  18.508   7.416 -0.0944 -0.0208  0.4232
  715POPI    C111349  15.367   4.656   5.588  0.1636 -0.2005  0.1869
  715POPI    C211350  15.310   4.263   5.630 -0.1974 -0.1600  0.1082
  715POPI    C311351  15.070   4.475   5.390  0.0091  0.1052  0.1321
  715POPI   PO411352  15.393   4.757   5.843 -0.0962  0.0589  0.0479
  715POPI   GL111353  15.333   4.483   6.128 -0.0700 -0.2895  0.1331
  715POPI   GL211354  14.983   4.354   6.080 -0.2025  0.0176 -0.0180
  715POPI   C1A11355  15.296   4.701   6.500 -0.1029 -0.0199  0.1008
  715POPI   D2A11356  15.540   4.444   6.782 -0.3164 -0.0791  0.1316
  715POPI   C3A11357  15.749   4.615   7.180 -0.3983  0.2767  0.3095
  715POPI   C4A11358  15.984   4.549   7.615 -0.2180 -0.0151  0.2106
  715POPI   C1B11359  15.111   4.243   6.510  0.2168 -0.1333 -0.1358
  715POPI   C2B11360  15.222   4.052   6.937  0.2251  0.0598  0.1952
  715POPI   C3B11361  15.351   4.121   7.312 -0.0159 -0.1944  0.2212
  715POPI   C4B11362  15.666   4.126   7.717 -0.2878  0.2391 -0.1971
  716POPI    C111363   7.586  15.581   4.864  0.0150 -0.1671  0.1022
  716POPI    C211364   7.639  15.308   4.576  0.1283 -0.0223 -0.0154
  716POPI    C311365   7.565  15.689   4.479 -0.3412 -0.0657  0.1460
  716POPI   PO411366   7.489  15.493   5.077  0.1724 -0.1343  0.1293
  716POPI   GL111367   7.362  15.543   5.556  0.2265 -0.3428  0.0651
  716POPI   GL211368   7.129  15.365   5.631  0.0311  0.1237 -0.2570
  716POPI   C1A11369   7.522  15.698   5.874  0.3474 -0.1128  0.0306
  716POPI   D2A11370   7.727  15.760   6.330  0.1171 -0.0354 -0.0473
  716POPI   C3A11371   7.849  15.441   6.604  0.0925 -0.0273  0.0375
  716POPI   C4A11372   7.755  15.390   7.029 -0.0278 -0.0966 -0.0335
  716POPI   C1B11373   7.007  15.177   6.056  0.2327  0.1122 -0.0361
  716POPI   C2B11374   6.982  15.146   6.438  0.2131 -0.0415 -0.3015
  716POPI   C3B11375   7.213  15.002   6.695  0.0729  0.1398 -0.0419
  716POPI   C4B11376   7.291  15.107   7.122  0.1112 -0.1818  0.2676
  717POPI    C111377  18.788  10.772   5.465 -0.3558 -0.1566  0.0817
  717POPI    C211378  18.775  11.131   5.289 -0.0801 -0.0152  0.3410
  717POPI    C311379  18.463  10.882   5.260 -0.0948  0.0565 -0.2279
  717POPI   PO411380  18.825  10.781   5.700  0.2360 -0.2832  0.1271
  717POPI   GL111381  18.736  10.860   5.942  0.3382 -0.1365 -0.2184
  717POPI   GL211382  18.705  10.552   6.191  0.0801  0.1275  0.0034
  717POPI   C1A11383  18.766  10.983   6.383  0.0800 -0.1335  0.2318
  717POPI   D2A11384  18.998  11.017   6.693  0.1320 -0.2718 -0.1119
  717POPI   C3A11385  19.068  10.829   7.043  0.3695  0.1015  0.2217
  717POPI   C4A11386  19.160  10.762   7.436  0.2532  0.2204  0.0383
  717POPI   C1B11387  18.809  10.507   6.648  0.0176  0.0031 -0.0291
  717POPI   C2B11388  18.897  10.359   7.069  0.3151  0.0338  0.2129
  717POPI   C3B11389  18.589  10.229   7.404 -0.3183 -0.2946 -0.1712
  717POPI   C4B11390  18.289  10.210   7.695 -0.0313 -0.3744 -0.1407
  718POPI    C111391   4.623  18.643   4.907 -0.0583 -0.0534 -0.0026
  718POPI    C211392   4.336  18.693   4.632 -0.0433  0.1224  0.0120
  718POPI    C311393   4.710  18.611   4.518 -0.0592  0.0861 -0.0148
  718POPI   PO411394   4.459  18.502   5.143 -0.1858 -0.1588  0.1652
  718POPI   GL111395   4.318  18.656   5.519  0.2658  0.0701  0.0248
  718POPI   GL211396   4.557  18.447   5.630 -0.0861 -0.0071  0.0420
  718POPI   C1A11397   4.547  18.942   5.774  0.3240  0.1247  0.0371
  718POPI   D2A11398   4.603  19.306   5.635  0.2400  0.0784 -0.1241
  718POPI   C3A11399   4.330  19.684   5.715  0.2073  0.2416  0.0469
  718POPI   C4A11400   4.098  19.786   6.131  0.0765 -0.0152 -0.0764
  718POPI   C1B11401   4.322  18.463   6.010  0.0686  0.0537 -0.1040
  718POPI   C2B11402   4.370  18.551   6.453 -0.1963 -0.1346  0.1335
  718POPI   C3B11403   4.242  18.931   6.714 -0.0088 -0.1153  0.0241
  718POPI   C4B11404   4.306  19.111   7.080  0.1488  0.0646 -0.0492
  719POPI    C111405  17.093   6.640   5.671 -0.1642 -0.0385 -0.1311
  719POPI    C211406  17.320   6.733   5.355 -0.1398 -0.0763 -0.1246
  719POPI    C311407  16.927   6.803   5.346 -0.0715  0.3508  0.0118
  719POPI   PO411408  17.223   6.657   5.908 -0.1455 -0.3230  0.4226
  719POPI   GL111409  17.338   6.912   6.331 -0.0769  0.2319  0.1110
  719POPI   GL211410  17.346   6.609   6.558 -0.0134  0.0455  0.0119
  719POPI   C1A11411  17.214   7.271   6.643  0.0607  0.0353 -0.0543
  719POPI   D2A11412  17.025   7.489   6.853 -0.1680 -0.2083 -0.2062
  719POPI   C3A11413  16.570   7.584   6.979 -0.0351  0.0352  0.0424
  719POPI   C4A11414  16.266   7.878   7.200 -0.2853  0.0943 -0.0719
  719POPI   C1B11415  17.359   6.423   6.905 -0.2403  0.0284  0.0664
  719POPI   C2B11416  17.219   6.296   7.276 -0.1504  0.0398 -0.1172
  719POPI   C3B11417  17.007   6.408   7.649 -0.0737  0.1567 -0.0479
  719POPI   C4B11418  16.860   6.699   7.887 -0.0348 -0.0544 -0.3663
  720POPI    C111419  16.165   8.099   5.844 -0.2789 -0.0496  0.3150
  720POPI    C211420  15.882   8.230   5.594 -0.1067 -0.0550  0.1143
  720POPI    C311421  16.093   8.491   5.811 -0.1092 -0.0348  0.0924
  720POPI   PO411422  16.097   7.838   5.949 -0.1132 -0.1685  0.4909
  720POPI   GL111423  16.145   7.798   6.357  0.1201 -0.0914  0.5151
  720POPI   GL211424  16.431   7.608   6.489 -0.0796  0.1306 -0.1319
  720POPI   C1A11425  15.887   7.919   6.732 -0.0955  0.0404  0.0850
  720POPI   D2A11426  16.030   8.300   6.886  0.0830 -0.1124  0.0522
  720POPI   C3A11427  15.717   8.474   7.183  0.0020  0.4745  0.0200
  720POPI   C4A11428  15.592   8.630   7.629  0.0487  0.0350  0.1796
  720POPI   C1B11429  16.419   8.041   6.738  0.0191  0.2094  0.3044
  720POPI   C2B11430  16.441   8.358   7.100  0.1095  0.1298 -0.0875
  720POPI   C3B11431  16.572   8.829   7.086  0.1826  0.1458 -0.1358
  720POPI   C4B11432  16.684   9.179   6.785 -0.2169  0.1902 -0.0933
  721POPI    C111433  12.717  13.149   5.568  0.2830  0.0551  0.0801
  721POPI    C211434  12.910  13.088   5.223  0.1507 -0.1141  0.0349
  721POPI    C311435  12.565  12.899   5.296 -0.0732  0.2911  0.0559
  721POPI   PO411436  12.787  13.096   5.734 -0.0690 -0.0168 -0.1571
  721POPI   GL111437  12.664  13.131   6.169  0.2393  0.0559 -0.0969
  721POPI   GL211438  12.418  13.335   6.200  0.0226 -0.2434 -0.0566
  721POPI   C1A11439  12.710  13.257   6.624 -0.2600 -0.1377  0.1642
  721POPI   D2A11440  12.839  13.490   6.958  0.1795  0.0021  0.0530
  721POPI   C3A11441  12.939  13.353   7.255 -0.2469  0.0276  0.0955
  721POPI   C4A11442  13.061  12.996   7.408 -0.1795  0.2694  0.0225
  721POPI   C1B11443  12.090  13.135   6.524 -0.2956  0.0415  0.0542
  721POPI   C2B11444  11.934  13.207   6.850 -0.0114  0.1989 -0.0641
  721POPI   C3B11445  11.541  13.399   7.044 -0.2161 -0.0255  0.1423
  721POPI   C4B11446  11.447  13.783   7.201  0.2123  0.0215  0.0548
  722POPI    C111447   6.067   8.860   5.150 -0.0394  0.0327  0.0824
  722POPI    C211448   5.882   8.647   4.867 -0.0352  0.1338  0.0033
  722POPI    C311449   6.281   8.652   4.884 -0.0352  0.1412  0.0007
  722POPI   PO411450   5.868   8.685   5.398  0.4764  0.0205  0.0079
  722POPI   GL111451   5.573   8.647   5.717  0.3618  0.1618 -0.0595
  722POPI   GL211452   5.877   8.795   5.870  0.0423  0.2432  0.1524
  722POPI   C1A11453   5.445   8.936   6.063 -0.2460  0.2208 -0.1882
  722POPI   D2A11454   5.111   9.084   6.336  0.0221  0.1168 -0.0944
  722POPI   C3A11455   4.944   8.793   6.622  0.2124 -0.1220  0.0076
  722POPI   C4A11456   4.926   9.030   7.025 -0.0657  0.0404  0.0449
  722POPI   C1B11457   5.786   8.627   6.325  0.0026  0.0833  0.0693
  722POPI   C2B11458   5.614   8.443   6.759  0.0005  0.0714 -0.0450
  722POPI   C3B11459   5.287   8.116   6.788  0.0435  0.5178  0.1014
  722POPI   C4B11460   4.936   7.863   6.489  0.2002  0.1084 -0.4120
  723POPI    C111461   3.714  14.288   5.033 -0.1459 -0.2145  0.3360
  723POPI    C211462   3.779  14.123   4.675  0.0750 -0.1539  0.3466
  723POPI    C311463   3.499  14.406   4.717  0.2352  0.0352  0.1626
  723POPI   PO411464   3.689  14.024   5.295  0.1477 -0.1213  0.0252
  723POPI   GL111465   3.736  13.623   5.505 -0.2606 -0.2903  0.0538
  723POPI   GL211466   3.606  13.769   5.703 -0.0996  0.0199 -0.0464
  723POPI   C1A11467   3.616  13.228   5.611 -0.1526 -0.1378 -0.0575
  723POPI   D2A11468   3.757  12.914   5.914 -0.0648 -0.1011 -0.1316
  723POPI   C3A11469   3.768  12.895   6.379  0.0599  0.0780 -0.0649
  723POPI   C4A11470   3.588  13.072   6.760  0.0159  0.0772  0.0650
  723POPI   C1B11471   3.503  13.925   6.096  0.1595 -0.2847  0.1284
  723POPI   C2B11472   3.416  13.824   6.476 -0.2335  0.3716  0.0035
  723POPI   C3B11473   3.410  13.535   6.887  0.3544  0.1993 -0.1025
  723POPI   C4B11474   3.118  13.732   7.233 -0.0788 -0.4393  0.1588
  724POPI    C111475   0.789  12.304   5.104 -0.0509  0.1600 -0.1813
  724POPI    C211476   1.103  12.389   4.871  0.0377  0.3464  0.0030
  724POPI    C311477   0.737  12.511   4.765  0.0265  0.1364 -0.2079
  724POPI   PO411478   1.010  11.997   5.221  0.3514 -0.1955 -0.0279
  724POPI   GL111479   1.010  12.059   5.754  0.1713 -0.0242  0.0339
  724POPI   GL211480   1.312  11.870   5.981  0.3635 -0.1893  0.0764
  724POPI   C1A11481   0.712  12.090   6.036  0.1888 -0.1568  0.5269
  724POPI   D2A11482   0.320  12.141   6.264  0.0738 -0.0067  0.0337
  724POPI   C3A11483   0.060  12.473   6.430  0.0070 -0.4014 -0.0949
  724POPI   C4A11484  -0.035  12.669   6.781  0.2874 -0.1632 -0.2670
  724POPI   C1B11485   1.175  12.008   6.381 -0.1939  0.2072  0.2899
  724POPI   C2B11486   1.210  12.256   6.678  0.3339 -0.3552 -0.0386
  724POPI   C3B11487   1.120  12.644   6.949  0.1836 -0.2763 -0.0721
  724POPI   C4B11488   0.752  12.680   7.214 -0.0225  0.0301  0.3222
  725POPI    C111489   9.351   0.587   5.127 -0.0495 -0.0927  0.1511
  725POPI    C211490   9.106   0.881   5.011  0.1309 -0.0633 -0.1663
  725POPI    C311491   9.441   0.967   5.212  0.0600 -0.0743 -0.0423
  725POPI   PO411492   9.248   0.424   5.283 -0.1311  0.0549 -0.0710
  725POPI   GL111493   9.252   0.448   5.681 -0.1396 -0.0074  0.2250
  725POPI   GL211494   8.953   0.479   5.829 -0.2074  0.2589  0.1083
  725POPI   C1A11495   9.274   0.066   5.917 -0.0296 -0.1148 -0.0197
  725POPI   D2A11496   9.362  -0.301   5.987  0.0984  0.1760 -0.2470
  725POPI   C3A11497   9.550  -0.398   6.257  0.1756 -0.0063  0.2415
  725POPI   C4A11498   9.514  -0.214   6.682  0.4576  0.1767  0.0484
  725POPI   C1B11499   9.023   0.284   6.274  0.3435  0.0506 -0.3644
  725POPI   C2B11500   9.217   0.187   6.716  0.0329 -0.0981  0.1340
  725POPI   C3B11501   9.321   0.168   7.072 -0.3066  0.2066 -0.2597
  725POPI   C4B11502   9.692   0.423   7.161 -0.4475 -0.2174 -0.0007
  726POPI    C111503  14.611   1.830   5.824 -0.1997 -0.2350  0.0262
  726POPI    C211504  14.697   1.879   5.436 -0.2720  0.0295  0.0415
  726POPI    C311505  14.738   2.185   5.690 -0.1233 -0.1708  0.2639
  726POPI   PO411506  14.792   1.656   5.908  0.0919  0.1993 -0.0475
  726POPI   GL111507  14.906   1.826   6.342  0.2124 -0.1164  0.0150
  726POPI   GL211508  14.608   1.882   6.341  0.2695  0.0652 -0.0092
  726POPI   C1A11509  14.918   1.922   6.777  0.3602 -0.3337 -0.2663
  726POPI   D2A11510  15.012   2.118   7.090  0.0809  0.1054  0.0573
  726POPI   C3A11511  15.217   1.906   7.452 -0.0105  0.2997  0.1237
  726POPI   C4A11512  15.466   1.844   7.657  0.1146 -0.0435 -0.2032
  726POPI   C1B11513  14.368   1.975   6.694 -0.0271  0.2021 -0.1362
  726POPI   C2B11514  14.376   2.300   7.075  0.3428  0.1540 -0.1659
  726POPI   C3B11515  14.075   2.525   7.365  0.2580 -0.3405 -0.2953
  726POPI   C4B11516  14.002   2.475   7.800 -0.0260 -0.0266 -0.2975
  727POPI    C111517   9.510  14.844   4.935  0.1380 -0.0205  0.0063
  727POPI    C211518   9.792  15.122   4.991  0.1681 -0.0081 -0.1992
  727POPI    C311519   9.615  15.086   4.634 -0.2958  0.1752  0.0046
  727POPI   PO411520   9.480  14.830   5.289 -0.0658 -0.2109 -0.2525
  727POPI   GL111521   9.523  14.734   5.667  0.0353  0.1839 -0.0328
  727POPI   GL211522   9.172  14.539   5.645  0.0398  0.1743 -0.1372
  727POPI   C1A11523   9.640  14.759   6.081 -0.3275 -0.0904 -0.1789
  727POPI   D2A11524   9.670  14.582   6.561  0.1164  0.0765  0.0077
  727POPI   C3A11525   9.596  14.621   7.052  0.2591  0.0986 -0.0740
  727POPI   C4A11526   9.855  14.811   7.257 -0.3253  0.0795  0.0025
  727POPI   C1B11527   9.384  14.299   5.877  0.2730  0.0006  0.2909
  727POPI   C2B11528   9.356  13.893   6.145  0.1951 -0.3422 -0.0074
  727POPI   C3B11529   9.062  13.620   6.257  0.0933 -0.0591  0.0679
  727POPI   C4B11530   8.661  13.473   6.147 -0.2500  0.0345  0.0581
  728POPI    C111531   8.272   4.149   5.238  0.1903 -0.2542  0.0485
  728POPI    C211532   8.204   4.045   4.857  0.1084 -0.1637  0.0379
  728POPI    C311533   8.316   4.419   4.946  0.2754 -0.2247  0.0885
  728POPI   PO411534   8.250   3.866   5.394  0.1817 -0.0926 -0.0784
  728POPI   GL111535   8.390   3.836   5.830  0.2737  0.0443  0.1119
  728POPI   GL211536   8.156   4.196   5.897 -0.0030 -0.0036 -0.1386
  728POPI   C1A11537   8.375   3.830   6.286 -0.0130  0.0606  0.5900
  728POPI   D2A11538   8.369   3.857   6.679 -0.1771  0.0844 -0.1393
  728POPI   C3A11539   8.633   3.993   6.995 -0.1571 -0.1435 -0.3759
  728POPI   C4A11540   8.874   4.322   7.225  0.1418  0.0800  0.1278
  728POPI   C1B11541   7.835   4.111   6.159  0.0293 -0.2964 -0.1127
  728POPI   C2B11542   7.873   3.737   6.414  0.3706 -0.1019 -0.2736
  728POPI   C3B11543   7.994   3.516   6.745 -0.3269  0.0796  0.0463
  728POPI   C4B11544   8.243   3.540   7.159 -0.3073 -0.2317 -0.1665
  729POPI    C111545   8.552  15.674   5.384 -0.2236  0.0032  0.0472
  729POPI    C211546   8.793  15.396   5.228 -0.0315  0.1094  0.1512
  729POPI    C311547   8.570  15.310   5.549 -0.1392  0.0086  0.0502
  729POPI   PO411548   8.640  15.881   5.500  0.1456 -0.1467 -0.0266
  729POPI   GL111549   8.818  16.247   5.657  0.0500 -0.2341 -0.1432
  729POPI   GL211550   8.490  16.399   5.714 -0.0177  0.1218  0.1728
  729POPI   C1A11551   8.930  16.325   6.038  0.0110 -0.0734  0.3618
  729POPI   D2A11552   9.165  16.588   6.342 -0.1984  0.1116  0.1110
  729POPI   C3A11553   9.255  16.362   6.624 -0.2501 -0.1100  0.0460
  729POPI   C4A11554   9.031  16.061   6.837  0.0130 -0.1017  0.2982
  729POPI   C1B11555   8.237  16.350   5.986  0.0276 -0.0906  0.1415
  729POPI   C2B11556   8.000  16.425   6.382 -0.3322 -0.0941  0.1551
  729POPI   C3B11557   7.997  16.390   6.823 -0.0541  0.2028  0.0188
  729POPI   C4B11558   7.757  16.452   7.176  0.3745  0.0416  0.0202
  730POPI    C111559   9.001  17.994   4.824  0.4803  0.0405  0.0731
  730POPI    C211560   8.746  18.289   4.735 -0.1737 -0.4961  0.0853
  730POPI    C311561   9.070  18.228   4.507 -0.2807 -0.0682 -0.1926
  730POPI   PO411562   8.982  18.046   5.144  0.2412 -0.1958  0.3660
  730POPI   GL111563   9.227  18.009   5.600  0.0655  0.0356  0.1525
  730POPI   GL211564   9.290  18.273   5.522 -0.0016  0.1992  0.0764
  730POPI   C1A11565   9.315  17.825   6.034  0.3460 -0.2842  0.0082
  730POPI   D2A11566   9.575  17.942   6.383 -0.1861  0.1984 -0.1375
  730POPI   C3A11567   9.862  18.194   6.548  0.0552 -0.3518  0.0535
  730POPI   C4A11568  10.005  18.548   6.754  0.1781 -0.0923  0.0050
  730POPI   C1B11569   8.978  18.161   5.949 -0.1146 -0.1198 -0.1626
  730POPI   C2B11570   9.117  18.179   6.302  0.2171  0.0375 -0.2860
  730POPI   C3B11571   9.246  18.216   6.709 -0.0123 -0.0639  0.1752
  730POPI   C4B11572   9.198  18.531   7.051 -0.1197  0.0590 -0.1608
  731POPI    C111573  10.428   7.935   5.232 -0.0703 -0.0838 -0.1466
  731POPI    C211574  10.700   8.101   4.990 -0.1311  0.2002 -0.0249
  731POPI    C311575  10.813   7.942   5.339 -0.0510 -0.1616 -0.2104
  731POPI   PO411576  10.186   8.113   5.322  0.0942  0.2349  0.2513
  731POPI   GL111577   9.949   8.343   5.653  0.0081  0.4051 -0.0011
  731POPI   GL211578   9.639   8.369   5.526 -0.0283 -0.1038  0.1061
  731POPI   C1A11579   9.873   8.765   5.859  0.0411 -0.0596  0.2297
  731POPI   D2A11580  10.253   8.968   6.090  0.0164  0.0071 -0.1513
  731POPI   C3A11581  10.634   8.694   6.232 -0.1023  0.0601  0.1000
  731POPI   C4A11582  10.994   8.542   6.638 -0.1465  0.0506  0.2625
  731POPI   C1B11583   9.600   8.342   5.940 -0.0123 -0.0390  0.1148
  731POPI   C2B11584   9.769   8.317   6.333  0.2363 -0.1702 -0.2054
  731POPI   C3B11585   9.906   8.282   6.756 -0.0110 -0.1815  0.1695
  731POPI   C4B11586  10.246   8.390   6.876  0.2318  0.3735 -0.2884
  732POPI    C111587   4.995   1.492   5.190 -0.0676 -0.1809 -0.2244
  732POPI    C211588   4.601   1.429   5.165 -0.0981 -0.1048  0.0345
  732POPI    C311589   4.789   1.635   4.878 -0.3016  0.1263  0.0636
  732POPI   PO411590   5.039   1.332   5.491 -0.1998  0.2845 -0.1074
  732POPI   GL111591   5.406   1.323   5.721 -0.3065  0.3184 -0.3126
  732POPI   GL211592   5.581   1.052   5.556 -0.2389  0.0615  0.2725
  732POPI   C1A11593   5.371   1.102   5.979  0.1932  0.2111  0.2140
  732POPI   D2A11594   5.219   1.134   6.309  0.1571 -0.0425  0.0063
  732POPI   C3A11595   5.144   1.262   6.826 -0.3671  0.0214 -0.0041
  732POPI   C4A11596   5.101   1.445   7.225 -0.3036  0.2303 -0.3553
  732POPI   C1B11597   5.654   0.706   5.813 -0.0232  0.0235 -0.0736
  732POPI   C2B11598   5.372   0.522   6.036 -0.3962  0.4231 -0.0999
  732POPI   C3B11599   5.550   0.094   5.937 -0.1447 -0.0678 -0.0072
  732POPI   C4B11600   5.740  -0.173   6.268 -0.2910  0.0007 -0.1372
  733POPI    C111601  13.740  17.975   5.328  0.0779  0.0244 -0.3051
  733POPI    C211602  13.439  17.764   5.170 -0.1167  0.0888 -0.0268
  733POPI    C311603  13.465  18.158   5.103 -0.0493  0.0699 -0.1145
  733POPI   PO411604  13.679  17.905   5.563 -0.2390 -0.0332 -0.0462
  733POPI   GL111605  13.508  17.897   5.994 -0.2984  0.0092  0.2826
  733POPI   GL211606  13.161  17.841   6.154 -0.2138 -0.1315  0.0009
  733POPI   C1A11607  13.589  18.207   6.226  0.2492 -0.2901  0.0625
  733POPI   D2A11608  13.776  18.561   6.363  0.3695  0.0538  0.2390
  733POPI   C3A11609  14.103  18.480   6.325  0.3446  0.3272  0.1649
  733POPI   C4A11610  14.421  18.507   6.418 -0.1884  0.2475 -0.0076
  733POPI   C1B11611  13.317  17.911   6.576  0.0166  0.1432 -0.0055
  733POPI   C2B11612  13.435  17.889   6.942 -0.1268 -0.2543 -0.1531
  733POPI   C3B11613  13.289  17.843   7.410  0.2233 -0.1755  0.1955
  733POPI   C4B11614  12.820  17.953   7.549 -0.0447  0.1279  0.1357
  734POPI    C111615   5.261   1.899   5.453 -0.0819  0.0418 -0.1141
  734POPI    C211616   5.609   1.873   5.256  0.0369  0.0073  0.0978
  734POPI    C311617   5.265   1.893   5.053  0.1648  0.0839 -0.1139
  734POPI   PO411618   5.257   1.779   5.588 -0.1004 -0.2126 -0.3038
  734POPI   GL111619   5.011   1.885   5.994 -0.3385 -0.3637  0.0993
  734POPI   GL211620   4.972   1.487   5.972  0.3954  0.1191 -0.1423
  734POPI   C1A11621   4.976   1.951   6.463  0.1007 -0.3077 -0.1231
  734POPI   D2A11622   5.072   1.734   6.850 -0.1268 -0.0656  0.0660
  734POPI   C3A11623   4.694   1.378   6.969  0.3079 -0.3294  0.2662
  734POPI   C4A11624   4.480   1.296   7.299 -0.1271  0.2055 -0.0916
  734POPI   C1B11625   4.890   1.438   6.413  0.0855 -0.2818 -0.0034
  734POPI   C2B11626   4.594   1.775   6.695  0.0936 -0.2232  0.2590
  734POPI   C3B11627   4.609   2.016   6.902  0.2558  0.0544 -0.5704
  734POPI   C4B11628   4.351   2.265   7.169  0.1271 -0.2972 -0.0778
  735POPI    C111629  14.036  10.461   5.550 -0.1049 -0.2726  0.1004
  735POPI    C211630  14.413  10.557   5.457 -0.1548  0.0528  0.2182
  735POPI    C311631  14.216  10.284   5.240  0.1164 -0.0526  0.1003
  735POPI   PO411632  14.031  10.372   5.853  0.1757 -0.0551  0.2712
  735POPI   GL111633  13.678  10.126   6.033 -0.0109  0.2600  0.2042
  735POPI   GL211634  13.650   9.757   6.011 -0.0778 -0.0740 -0.1357
  735POPI   C1A11635  13.874  10.007   6.454 -0.1876 -0.1384  0.3733
  735POPI   D2A11636  14.118  10.007   6.788  0.2533 -0.2439  0.1089
  735POPI   C3A11637  13.974  10.197   7.134  0.2832  0.0958  0.0879
  735POPI   C4A11638  14.053  10.530   7.401 -0.1198  0.0585  0.1425
  735POPI   C1B11639  13.823   9.506   6.217  0.0357 -0.3536  0.0618
  735POPI   C2B11640  13.901   9.379   6.637 -0.1089  0.2667 -0.0276
  735POPI   C3B11641  13.790   9.361   7.044 -0.3847  0.1341  0.1263
  735POPI   C4B11642  13.946   9.613   7.374  0.2648  0.0556  0.3567
  736POPI    C111643   4.302   4.534   5.839 -0.0721  0.1979  0.0179
  736POPI    C211644   4.230   4.805   5.553  0.0152  0.0895 -0.1074
  736POPI    C311645   4.549   4.564   5.526  0.0858  0.1531  0.1371
  736POPI   PO411646   4.078   4.343   5.827  0.1467  0.0267 -0.0708
  736POPI   GL111647   3.818   4.259   6.193 -0.0201  0.2506  0.0124
  736POPI   GL211648   3.780   3.937   6.250 -0.0270  0.1676  0.1137
  736POPI   C1A11649   4.139   4.437   6.496  0.0698  0.5205 -0.0496
  736POPI   D2A11650   4.351   4.447   6.875  0.0700  0.1103 -0.0758
  736POPI   C3A11651   4.205   4.234   7.156 -0.0414 -0.0907 -0.2254
  736POPI   C4A11652   3.873   4.014   7.267 -0.2332 -0.0561  0.0372
  736POPI   C1B11653   4.014   3.961   6.611 -0.4412  0.1232 -0.0680
  736POPI   C2B11654   4.330   3.747   6.979  0.1224  0.0918 -0.3871
  736POPI   C3B11655   4.591   3.858   7.332  0.1768 -0.2421 -0.2117
  736POPI   C4B11656   5.112   4.062   7.315  0.0284 -0.1446 -0.3803
  737POPI    C111657  13.216   1.653   5.410  0.0893  0.0601 -0.0804
  737POPI    C211658  13.614   1.679   5.439  0.1133 -0.2576 -0.0934
  737POPI    C311659  13.443   1.611   5.083  0.0465 -0.1165 -0.0888
  737POPI   PO411660  13.063   1.863   5.508  0.3656 -0.2605  0.0494
  737POPI   GL111661  12.969   2.056   5.905 -0.1324 -0.1554 -0.1234
  737POPI   GL211662  12.721   2.237   5.798 -0.0242  0.0571  0.2717
  737POPI   C1A11663  12.814   1.955   6.305 -0.4974 -0.0910  0.1323
  737POPI   D2A11664  12.794   1.917   6.770  0.1499  0.0886 -0.1699
  737POPI   C3A11665  12.838   2.297   7.039  0.0778 -0.2628 -0.4188
  737POPI   C4A11666  13.108   2.622   6.974 -0.0384  0.0325  0.4541
  737POPI   C1B11667  12.600   2.402   6.177  0.1098 -0.2826 -0.2357
  737POPI   C2B11668  12.479   2.381   6.613  0.1170  0.0703  0.0860
  737POPI   C3B11669  12.353   2.484   6.965  0.1642 -0.1548  0.2730
  737POPI   C4B11670  12.719   2.752   7.288  0.0889 -0.2042  0.2100
  738POPI    C111671   6.770  10.596   5.298 -0.3754  0.0276 -0.2949
  738POPI    C211672   6.913  10.378   4.995  0.0675  0.0333 -0.0974
  738POPI    C311673   6.619  10.234   5.224 -0.2851  0.0369 -0.5351
  738POPI   PO411674   6.966  10.666   5.578 -0.1342 -0.1028 -0.2328
  738POPI   GL111675   6.763  10.605   5.940  0.0955  0.0674 -0.2586
  738POPI   GL211676   6.695  10.307   5.805 -0.3010 -0.1354 -0.1339
  738POPI   C1A11677   6.963  10.808   6.280 -0.1097  0.2042 -0.2664
  738POPI   D2A11678   6.668  11.112   6.352  0.0989 -0.1099  0.1527
  738POPI   C3A11679   6.756  11.609   6.420  0.0420  0.2802  0.0530
  738POPI   C4A11680   7.086  11.762   6.699  0.0033  0.0284 -0.2775
  738POPI   C1B11681   6.921  10.335   6.324 -0.4925 -0.0954  0.1069
  738POPI   C2B11682   7.164  10.532   6.630 -0.0545  0.1710  0.3073
  738POPI   C3B11683   7.424  10.359   6.924 -0.0647 -0.0045  0.0778
  738POPI   C4B11684   7.741  10.126   6.953 -0.1923 -0.0067 -0.0270
  739POPI    C111685   4.317  13.573   4.753  0.3955  0.0875 -0.0043
  739POPI    C211686   4.549  13.615   4.430  0.2469 -0.2182 -0.1558
  739POPI    C311687   4.310  13.297   4.464  0.0254 -0.0288  0.1099
  739POPI   PO411688   4.427  13.676   4.955 -0.0681 -0.2299  0.2349
  739POPI   GL111689   4.466  13.720   5.410 -0.0786 -0.0995  0.2564
  739POPI   GL211690   4.178  13.878   5.419 -0.0029 -0.2332  0.0605
  739POPI   C1A11691   4.637  13.756   5.778 -0.0032  0.0605 -0.0962
  739POPI   D2A11692   4.863  13.782   6.187  0.2668  0.0099  0.0629
  739POPI   C3A11693   5.237  13.771   6.228 -0.3481  0.3319  0.0472
  739POPI   C4A11694   5.608  13.803   6.107 -0.0010 -0.0784 -0.2313
  739POPI   C1B11695   4.123  13.901   5.824  0.2035  0.0185  0.1867
  739POPI   C2B11696   3.923  14.026   6.240  0.1000  0.2425  0.0634
  739POPI   C3B11697   4.072  14.210   6.594  0.0624  0.0303 -0.4453
  739POPI   C4B11698   4.224  14.013   7.004  0.0578 -0.2186 -0.4905
  740POPI    C111699   8.734  12.439   4.991 -0.0453  0.1111 -0.0633
  740POPI    C211700   8.426  12.682   5.064 -0.1389 -0.0747  0.1748
  740POPI    C311701   8.767  12.831   4.918 -0.3435  0.1301 -0.1086
  740POPI   PO411702   8.776  12.363   5.247 -0.1783 -0.0136 -0.1483
  740POPI   GL111703   8.665  12.174   5.599  0.0292 -0.0368 -0.0820
  740POPI   GL211704   8.922  12.158   5.684 -0.0118  0.1921 -0.0456
  740POPI   C1A11705   8.542  12.318   6.124 -0.1695 -0.1190  0.3338
  740POPI   D2A11706   8.399  12.538   6.462  0.0506 -0.1533 -0.0770
  740POPI   C3A11707   8.462  12.387   6.859  0.4382  0.0091  0.1433
  740POPI   C4A11708   8.575  12.353   7.356  0.2222 -0.2140  0.0828
  740POPI   C1B11709   8.940  12.012   6.142 -0.0530  0.1848  0.1742
  740POPI   C2B11710   9.320  12.011   6.372 -0.1736  0.1601 -0.1421
  740POPI   C3B11711   9.612  12.305   6.610 -0.2035 -0.0824  0.0460
  740POPI   C4B11712   9.770  12.743   6.645 -0.0580 -0.1055 -0.1124
  741POPI    C111713  15.022  18.759   5.523 -0.0640 -0.0437 -0.0569
  741POPI    C211714  14.738  18.943   5.309 -0.0197 -0.1433 -0.2033
  741POPI    C311715  15.098  18.878   5.149  0.0337 -0.1645 -0.0759
  741POPI   PO411716  14.979  18.913   5.728  0.1792  0.0348  0.1738
  741POPI   GL111717  14.967  19.175   6.116 -0.0708 -0.2082 -0.2718
  741POPI   GL211718  14.797  18.875   6.191  0.2885  0.1952 -0.0813
  741POPI   C1A11719  14.968  19.198   6.542  0.3247 -0.1227 -0.0607
  741POPI   D2A11720  15.109  19.429   6.798 -0.5667 -0.2497  0.0258
  741POPI   C3A11721  14.740  19.517   7.021 -0.0221 -0.1302  0.1467
  741POPI   C4A11722  14.747  19.601   7.445 -0.1717 -0.1994  0.2254
  741POPI   C1B11723  14.480  19.008   6.433  0.0690 -0.2054  0.3468
  741POPI   C2B11724  14.633  18.990   6.899  0.0990 -0.1803 -0.2232
  741POPI   C3B11725  14.699  19.057   7.382 -0.0347 -0.3516 -0.3664
  741POPI   C4B11726  14.935  19.204   7.702  0.2068  0.0406 -0.1831
  742POPI    C111727   5.290  14.627   4.911 -0.0066 -0.1679  0.0492
  742POPI    C211728   4.981  14.745   5.136 -0.1413  0.2143 -0.3224
  742POPI    C311729   4.966  14.395   4.943 -0.1391  0.0130  0.0335
  742POPI   PO411730   5.562  14.714   5.051 -0.2826  0.0223 -0.1159
  742POPI   GL111731   5.805  14.976   5.350  0.1237 -0.2658 -0.3341
  742POPI   GL211732   5.695  15.240   5.370 -0.2080 -0.0185  0.3407
  742POPI   C1A11733   5.909  14.825   5.698 -0.5747  0.3424 -0.0513
  742POPI   D2A11734   5.991  14.393   5.892  0.0135 -0.0036  0.1978
  742POPI   C3A11735   5.906  14.213   6.287 -0.1490  0.2579 -0.1368
  742POPI   C4A11736   5.909  14.049   6.728 -0.0275 -0.1039  0.2034
  742POPI   C1B11737   5.526  15.288   5.778 -0.1216 -0.0076 -0.2864
  742POPI   C2B11738   5.342  15.381   6.036 -0.0249  0.2322  0.2032
  742POPI   C3B11739   5.245  15.252   6.450  0.1448  0.0693  0.0626
  742POPI   C4B11740   5.340  15.318   6.859 -0.4140 -0.2436 -0.3681
  743POPI    C111741  18.561   4.065   5.813  0.0933 -0.0478 -0.0679
  743POPI    C211742  18.684   4.334   6.082  0.1422 -0.2154  0.0799
  743POPI    C311743  18.560   4.454   5.721  0.2828 -0.0060  0.0995
  743POPI   PO411744  18.322   3.917   5.998 -0.0912 -0.0243  0.0442
  743POPI   GL111745  18.180   3.895   6.381  0.1673 -0.0847  0.0515
  743POPI   GL211746  17.894   3.996   6.510 -0.0436  0.1569 -0.0827
  743POPI   C1A11747  18.423   3.805   6.778 -0.2319 -0.1948  0.0094
  743POPI   D2A11748  18.649   3.826   7.116  0.0678 -0.3318  0.4313
  743POPI   C3A11749  18.644   3.673   7.573  0.0012 -0.0125  0.2828
  743POPI   C4A11750  18.888   3.788   7.943 -0.3105 -0.0863 -0.3097
  743POPI   C1B11751  17.716   4.037   6.799  0.1101  0.1488  0.1860
  743POPI   C2B11752  17.703   4.247   7.238  0.1580 -0.2617  0.1049
  743POPI   C3B11753  17.614   4.243   7.754 -0.0647  0.2438 -0.2060
  743POPI   C4B11754  17.522   4.478   8.075  0.0945  0.0993  0.0128
  744POPS   CNO11755  10.234   4.834   5.273 -0.0317  0.0322 -0.1091
  744POPS   PO411756  10.145   4.484   5.506 -0.0522  0.0030  0.0034
  744POPS   GL111757   9.942   4.690   5.774  0.0927  0.0362  0.1560
  744POPS   GL211758  10.167   4.908   5.998  0.0138  0.2148 -0.0719
  744POPS   C1A11759   9.638   4.755   6.107  0.0094 -0.3675 -0.3023
  744POPS   D2A11760   9.543   4.759   6.662 -0.0948  0.1300 -0.0325
  744POPS   C3A11761   9.274   4.593   6.996  0.0843 -0.2586  0.2661
  744POPS   C4A11762   9.214   4.650   7.451 -0.0658 -0.3334 -0.1650
  744POPS   C1B11763  10.087   4.891   6.381 -0.2965  0.0052 -0.1442
  744POPS   C2B11764  10.067   4.895   6.784 -0.1714  0.0956 -0.2612
  744POPS   C3B11765  10.284   4.711   7.100 -0.0538 -0.1189 -0.1357
  744POPS   C4B11766  10.180   4.638   7.439  0.2809 -0.0111 -0.0789
  745POPS   CNO11767   2.119   4.208   5.431  0.1453 -0.0796  0.2160
  745POPS   PO411768   2.199   3.766   5.633  0.4606 -0.0585 -0.3576
  745POPS   GL111769   2.087   3.651   6.046  0.2569 -0.1344  0.2869
  745POPS   GL211770   1.983   3.270   5.930  0.0962 -0.2813 -0.0304
  745POPS   C1A11771   2.276   3.368   6.338 -0.0538  0.0065  0.1973
  745POPS   D2A11772   2.710   3.487   6.187  0.0016  0.2607  0.1625
  745POPS   C3A11773   2.812   3.802   6.491  0.2497  0.1728 -0.0100
  745POPS   C4A11774   2.802   4.205   6.617 -0.2756 -0.0126 -0.0111
  745POPS   C1B11775   1.792   3.005   6.261 -0.3761 -0.1096 -0.4710
  745POPS   C2B11776   1.832   2.787   6.547  0.1631  0.1853  0.1193
  745POPS   C3B11777   2.031   2.660   6.884 -0.0802 -0.1825 -0.1603
  745POPS   C4B11778   2.222   2.546   7.275 -0.2973  0.3559 -0.0604
  746POPS   CNO11779   3.353  12.180   5.306 -0.1435 -0.0845 -0.0450
  746POPS   PO411780   3.654  12.418   5.348 -0.1175 -0.1302  0.1622
  746POPS   GL111781   3.687  12.444   5.629 -0.1179 -0.0005 -0.1190
  746POPS   GL211782   3.371  12.447   5.812 -0.2991  0.2759  0.0928
  746POPS   C1A11783   3.827  12.427   6.153 -0.0716  0.1368  0.2156
  746POPS   D2A11784   3.856  12.458   6.562  0.0422 -0.0601 -0.0212
  746POPS   C3A11785   4.013  12.329   6.933  0.1015  0.1522 -0.0700
  746POPS   C4A11786   4.304  12.229   7.285  0.0870 -0.1498 -0.3758
  746POPS   C1B11787   3.359  12.495   6.237 -0.1021  0.0387 -0.1371
  746POPS   C2B11788   3.311  12.515   6.738 -0.0576  0.0089  0.2393
  746POPS   C3B11789   3.261  12.423   7.177 -0.1708 -0.0701  0.2073
  746POPS   C4B11790   3.311  12.270   7.595 -0.1963  0.0970 -0.1635
  747POPS   CNO11791   1.552   1.199   5.464  0.1171 -0.3320  0.1081
  747POPS   PO411792   1.653   0.914   5.691  0.0693  0.1183  0.3061
  747POPS   GL111793   1.453   0.867   6.077  0.0586 -0.1247  0.1242
  747POPS   GL211794   1.416   1.142   6.354 -0.0011  0.0712 -0.0516
  747POPS   C1A11795   1.125   0.678   6.284  0.2531  0.0791 -0.0535
  747POPS   D2A11796   0.836   0.599   6.481 -0.2756  0.0847  0.0751
  747POPS   C3A11797   0.956   0.389   6.943 -0.0572  0.2152 -0.1264
  747POPS   C4A11798   1.118   0.099   7.252  0.1226  0.3587  0.0164
  747POPS   C1B11799   1.736   0.865   6.486  0.0729  0.2038  0.0077
  747POPS   C2B11800   1.802   0.831   6.841 -0.0512 -0.3647  0.2105
  747POPS   C3B11801   2.038   1.092   7.121  0.2307  0.3988  0.1239
  747POPS   C4B11802   2.378   1.221   7.348  0.1044 -0.2457 -0.0662
  748POPS   CNO11803   0.278  17.553   5.041  0.2043 -0.5351 -0.1824
  748POPS   PO411804   0.112  17.217   5.251  0.0573 -0.0030 -0.0383
  748POPS   GL111805   0.333  17.471   5.620 -0.0045 -0.0405  0.1726
  748POPS   GL211806   0.598  17.349   5.755  0.0300  0.0378 -0.1733
  748POPS   C1A11807   0.363  17.720   5.975 -0.0021  0.0780 -0.1337
  748POPS   D2A11808   0.136  17.968   6.231  0.0477  0.0222 -0.1051
  748POPS   C3A11809   0.004  17.928   6.647  0.2645  0.0165 -0.0509
  748POPS   C4A11810  -0.149  18.154   6.968  0.3383 -0.3166 -0.1097
  748POPS   C1B11811   0.407  17.095   6.155 -0.2024  0.0025  0.0317
  748POPS   C2B11812   0.587  16.700   6.515 -0.2738  0.2437  0.0173
  748POPS   C3B11813   0.127  16.714   6.683  0.0261 -0.2584  0.1268
  748POPS   C4B11814  -0.155  16.654   6.794  0.0057 -0.0444  0.1808
  749POPS   CNO11815   2.062   0.652   5.887 -0.0021 -0.0110 -0.0723
  749POPS   PO411816   2.314   0.335   5.706  0.1047  0.2125 -0.4141
  749POPS   GL111817   2.242   0.358   6.215 -0.0379 -0.0916  0.0548
  749POPS   GL211818   2.346   0.078   6.292  0.3003 -0.0470  0.1364
  749POPS   C1A11819   2.163   0.612   6.560  0.1177  0.1714 -0.2231
  749POPS   D2A11820   2.377   0.950   6.743  0.2946  0.0919  0.1498
  749POPS   C3A11821   2.708   0.805   6.957 -0.1640  0.0528 -0.0304
  749POPS   C4A11822   2.871   0.349   7.047  0.0033 -0.0317 -0.3682
  749POPS   C1B11823   2.059   0.062   6.595 -0.4470 -0.2018 -0.0179
  749POPS   C2B11824   1.899   0.268   6.953  0.2192  0.5088 -0.1438
  749POPS   C3B11825   1.829   0.639   7.312 -0.2067 -0.0657 -0.1042
  749POPS   C4B11826   1.768   1.022   7.560  0.1252 -0.0584 -0.2868
  750POPS   CNO11827   0.625   7.634   5.528 -0.0405  0.0507 -0.1620
  750POPS   PO411828   0.845   7.451   5.767  0.2581 -0.1633  0.1112
  750POPS   GL111829   0.854   7.375   6.206 -0.0036 -0.2467 -0.3845
  750POPS   GL211830   0.528   7.376   6.356  0.1209 -0.1801  0.1623
  750POPS   C1A11831   0.884   7.195   6.679  0.1409  0.1162  0.1419
  750POPS   D2A11832   0.943   7.364   7.114 -0.0029 -0.1057  0.2115
  750POPS   C3A11833   1.073   7.264   7.486 -0.0618 -0.1431  0.1293
  750POPS   C4A11834   1.213   7.251   7.967  0.2208 -0.1881 -0.1323
  750POPS   C1B11835   0.404   7.228   6.752  0.0882  0.3037  0.0454
  750POPS   C2B11836   0.507   7.213   7.194  0.2137  0.2760 -0.2051
  750POPS   C3B11837   0.219   7.180   7.509 -0.1557 -0.2141 -0.0570
  750POPS   C4B11838  -0.008   7.249   7.962  0.1727 -0.0530  0.0922
  751POPS   CNO11839   6.706  13.305   4.947  0.0950  0.0428 -0.0887
  751POPS   PO411840   6.740  13.457   5.456 -0.1614  0.3319  0.0090
  751POPS   GL111841   6.646  13.731   5.649  0.0983 -0.0148 -0.0581
  751POPS   GL211842   6.976  13.919   5.666 -0.0769  0.1932 -0.1147
  751POPS   C1A11843   6.687  13.870   6.055  0.0528 -0.1273 -0.0277
  751POPS   D2A11844   6.551  13.878   6.473 -0.1623 -0.2712 -0.3131
  751POPS   C3A11845   6.668  14.133   6.915 -0.0294  0.1166  0.1875
  751POPS   C4A11846   6.550  14.431   7.274  0.4299  0.1079  0.0189
  751POPS   C1B11847   7.374  13.772   5.672  0.0466 -0.0788 -0.2328
  751POPS   C2B11848   7.684  13.575   5.939 -0.1091  0.1632 -0.0220
  751POPS   C3B11849   7.999  13.710   5.883  0.3923  0.0669 -0.0510
  751POPS   C4B11850   8.496  13.885   5.943  0.1111  0.0740 -0.1958
  752POPS   CNO11851  14.457  10.068   5.656 -0.1987 -0.0943  0.0180
  752POPS   PO411852  14.842  10.088   5.981 -0.2303 -0.3816 -0.1470
  752POPS   GL111853  14.814   9.934   6.408 -0.1046 -0.1389  0.1018
  752POPS   GL211854  14.928   9.636   6.500  0.2319 -0.3480  0.0041
  752POPS   C1A11855  14.569   9.832   6.825  0.2461 -0.0817 -0.0876
  752POPS   D2A11856  14.457   9.622   7.153  0.0389 -0.0878 -0.2651
  752POPS   C3A11857  14.275   9.929   7.517  0.0353 -0.0072  0.0852
  752POPS   C4A11858  14.223  10.056   7.902  0.1326  0.3372 -0.0478
  752POPS   C1B11859  14.909   9.532   6.870 -0.2381  0.0711 -0.0352
  752POPS   C2B11860  14.903   9.358   7.182 -0.1286  0.0652 -0.1484
  752POPS   C3B11861  14.994   9.127   7.537 -0.1538 -0.2944 -0.1891
  752POPS   C4B11862  15.408   9.049   7.694 -0.1386 -0.1361  0.0359
  753POPS   CNO11863   5.759   2.877   5.394  0.3204 -0.2646  0.0015
  753POPS   PO411864   5.532   3.053   5.735 -0.0420 -0.1559 -0.4485
  753POPS   GL111865   5.412   3.065   6.116 -0.3063  0.0716 -0.2153
  753POPS   GL211866   5.336   3.328   6.229  0.0458 -0.0473  0.1112
  753POPS   C1A11867   5.592   2.840   6.602  0.0787 -0.1964  0.1400
  753POPS   D2A11868   5.539   2.678   7.057 -0.1357 -0.0379  0.0758
  753POPS   C3A11869   6.004   2.602   7.322 -0.0289 -0.0909 -0.1365
  753POPS   C4A11870   6.333   2.233   7.363 -0.3612 -0.0733 -0.2381
  753POPS   C1B11871   5.500   3.361   6.658 -0.1095 -0.1238  0.0058
  753POPS   C2B11872   5.657   3.147   7.035 -0.2933  0.0443  0.2060
  753POPS   C3B11873   5.986   3.075   7.334  0.0250 -0.1757  0.1279
  753POPS   C4B11874   6.174   3.128   7.749 -0.1965 -0.1297  0.2148
  754POPS   CNO11875   5.917   1.436   5.321 -0.1456  0.1325 -0.2337
  754POPS   PO411876   6.102   1.048   5.429 -0.0380  0.1646  0.2055
  754POPS   GL111877   6.465   1.020   5.810 -0.0520  0.2184 -0.1843
  754POPS   GL211878   6.207   1.028   5.978 -0.1107 -0.0413  0.1724
  754POPS   C1A11879   6.674   0.924   6.178  0.0777 -0.2119  0.0848
  754POPS   D2A11880   6.606   0.761   6.585 -0.1858 -0.0790 -0.1326
  754POPS   C3A11881   6.702   0.931   6.971 -0.2075  0.0282  0.2851
  754POPS   C4A11882   6.845   0.884   7.379 -0.0219  0.2688  0.0129
  754POPS   C1B11883   6.139   0.762   6.342  0.1909 -0.1255  0.0863
  754POPS   C2B11884   5.988   0.457   6.653  0.3731  0.1119  0.0950
  754POPS   C3B11885   6.075   0.111   6.993  0.0103 -0.1584 -0.0393
  754POPS   C4B11886   6.123  -0.249   7.259 -0.1543  0.2275 -0.1085
  755POPS   CNO11887  17.287   9.060   5.291 -0.1329 -0.3030 -0.2357
  755POPS   PO411888  17.539   9.319   5.628  0.0369  0.1664 -0.3082
  755POPS   GL111889  17.467   9.189   6.011 -0.3544  0.0645  0.1982
  755POPS   GL211890  17.302   9.473   6.043  0.0613  0.4760  0.0278
  755POPS   C1A11891  17.693   9.379   6.350 -0.0371  0.2786 -0.3556
  755POPS   D2A11892  17.692   9.614   6.808  0.2116 -0.0437  0.0945
  755POPS   C3A11893  17.348   9.960   6.871 -0.0319  0.2521 -0.2326
  755POPS   C4A11894  16.997  10.081   6.679 -0.1766  0.2649  0.3961
  755POPS   C1B11895  17.290   9.115   6.454 -0.2101  0.2481  0.2043
  755POPS   C2B11896  17.310   8.782   6.666 -0.0011 -0.2202 -0.0055
  755POPS   C3B11897  17.089   8.926   7.082  0.1711  0.2656  0.0515
  755POPS   C4B11898  16.949   8.977   7.597  0.0533  0.2056  0.0359
  756POPS   CNO11899  12.310   7.520   5.302 -0.1925 -0.1335 -0.0317
  756POPS   PO411900  12.208   7.306   5.672  0.1490 -0.1037  0.1313
  756POPS   GL111901  12.220   7.681   5.969  0.0561  0.0633  0.3621
  756POPS   GL211902  12.487   7.753   6.165 -0.0702 -0.1915 -0.0846
  756POPS   C1A11903  12.069   7.867   6.456 -0.0326 -0.1216 -0.1137
  756POPS   D2A11904  12.197   7.959   6.882  0.1225  0.2639 -0.1051
  756POPS   C3A11905  11.844   8.237   7.172 -0.3758 -0.2248 -0.0162
  756POPS   C4A11906  11.567   8.618   7.149 -0.0316  0.3775  0.2754
  756POPS   C1B11907  12.527   7.335   6.289  0.0040  0.3765 -0.2166
  756POPS   C2B11908  12.323   6.961   6.244 -0.0115 -0.0137 -0.0380
  756POPS   C3B11909  12.048   6.575   6.141 -0.0488 -0.0445  0.1990
  756POPS   C4B11910  11.709   6.245   5.999  0.1349 -0.1038  0.0557
  757POPS   CNO11911  11.870   0.525   4.947 -0.0800 -0.2961  0.0941
  757POPS   PO411912  11.962   0.398   5.406 -0.0881  0.3180  0.1679
  757POPS   GL111913  12.026   0.413   5.889  0.0377  0.0373 -0.1027
  757POPS   GL211914  12.303   0.559   6.024 -0.1681 -0.2104 -0.2542
  757POPS   C1A11915  12.012   0.315   6.286 -0.3450  0.0623  0.1007
  757POPS   D2A11916  11.985   0.048   6.719 -0.2537  0.2159 -0.2532
  757POPS   C3A11917  12.051   0.186   7.211  0.0026 -0.0218 -0.1216
  757POPS   C4A11918  11.915   0.093   7.739  0.0420  0.0509  0.0983
  757POPS   C1B11919  12.487   0.450   6.403 -0.2488  0.0700 -0.1322
  757POPS   C2B11920  12.906   0.510   6.588 -0.1598 -0.0129  0.3829
  757POPS   C3B11921  13.004   0.426   6.910 -0.1868 -0.1520 -0.1933
  757POPS   C4B11922  13.293   0.009   7.176 -0.1298 -0.0183 -0.2719
  758POPS   CNO11923   7.383   2.491   5.138 -0.1029  0.2783 -0.1240
  758POPS   PO411924   7.572   2.079   5.190 -0.4409  0.1024 -0.2414
  758POPS   GL111925   7.623   2.318   5.531 -0.0853 -0.0121  0.1303
  758POPS   GL211926   7.608   2.626   5.593 -0.0470 -0.1095 -0.0376
  758POPS   C1A11927   7.599   2.125   5.945 -0.0909 -0.1819 -0.5021
  758POPS   D2A11928   7.796   1.929   6.351  0.1769 -0.0975 -0.0236
  758POPS   C3A11929   8.281   1.768   6.545 -0.2647 -0.0972  0.1454
  758POPS   C4A11930   8.598   1.868   6.690 -0.3614  0.1242 -0.1123
  758POPS   C1B11931   7.806   2.560   6.147 -0.1720  0.0319  0.1462
  758POPS   C2B11932   7.855   2.422   6.564  0.0388  0.2107  0.3301
  758POPS   C3B11933   7.965   2.095   6.809 -0.0984 -0.0436  0.3675
  758POPS   C4B11934   8.190   1.946   7.085 -0.2577 -0.2312 -0.1067
  759POPS   CNO11935  14.643   5.920   5.986  0.0506 -0.0847  0.0512
  759POPS   PO411936  15.029   5.645   5.799  0.2187 -0.4100  0.2802
  759POPS   GL111937  15.180   5.596   6.184  0.1615 -0.0401  0.0618
  759POPS   GL211938  15.144   5.949   6.295 -0.2447 -0.1103 -0.0986
  759POPS   C1A11939  14.966   5.595   6.587 -0.2177  0.0096 -0.0754
  759POPS   D2A11940  14.690   5.715   6.980 -0.2065 -0.0122 -0.1990
  759POPS   C3A11941  14.767   5.852   7.400 -0.0272  0.1132 -0.0352
  759POPS   C4A11942  14.656   5.661   7.865 -0.0687 -0.1935  0.0313
  759POPS   C1B11943  14.726   6.000   6.486 -0.1797  0.2752  0.0816
  759POPS   C2B11944  14.481   6.133   6.760 -0.0158 -0.1538 -0.1865
  759POPS   C3B11945  14.308   6.041   7.138 -0.1014 -0.2830  0.0208
  759POPS   C4B11946  14.296   5.853   7.477 -0.3132  0.1070  0.3505
  760POPS   CNO11947   6.313   7.622   5.880  0.0483  0.1181  0.0664
  760POPS   PO411948   5.950   7.398   5.829 -0.1534  0.3482 -0.0612
  760POPS   GL111949   6.082   7.391   6.266 -0.0376  0.1648 -0.4573
  760POPS   GL211950   6.314   7.198   6.450 -0.0964  0.0279 -0.1601
  760POPS   C1A11951   5.952   7.667   6.568 -0.0138  0.3932  0.0539
  760POPS   D2A11952   5.712   7.774   6.916  0.1496  0.1771 -0.0290
  760POPS   C3A11953   5.770   8.100   7.136  0.1160 -0.2283 -0.2734
  760POPS   C4A11954   5.754   8.167   7.571  0.2154  0.4172  0.1697
  760POPS   C1B11955   6.173   7.260   6.806 -0.0967 -0.1421  0.0484
  760POPS   C2B11956   5.950   7.162   7.242  0.2146  0.0600  0.1042
  760POPS   C3B11957   5.677   7.207   7.473 -0.2459 -0.0053 -0.0139
  760POPS   C4B11958   5.309   7.111   7.540 -0.1016 -0.1060 -0.2241
  761POPS   CNO11959  10.317  13.740   5.148 -0.2256  0.0228  0.1309
  761POPS   PO411960  10.036  13.320   5.108  0.1777 -0.0491  0.1091
  761POPS   GL111961  10.030  13.435   5.533  0.1171 -0.0408 -0.0029
  761POPS   GL211962   9.813  13.204   5.634  0.2524  0.0774 -0.3904
  761POPS   C1A11963   9.992  13.529   5.926  0.0550 -0.2622 -0.2397
  761POPS   D2A11964   9.997  13.370   6.220  0.0168 -0.1784 -0.0959
  761POPS   C3A11965  10.159  13.222   6.504 -0.1950  0.3450  0.0849
  761POPS   C4A11966  10.461  12.914   6.565  0.0787 -0.0931 -0.2305
  761POPS   C1B11967   9.895  12.910   5.966 -0.1114 -0.1272  0.4098
  761POPS   C2B11968  10.080  12.610   6.150 -0.0463  0.0515  0.1917
  761POPS   C3B11969  10.140  12.465   6.534  0.1184  0.1158  0.1006
  761POPS   C4B11970  10.136  12.332   6.920 -0.1572  0.0588 -0.3927
  762POPS   CNO11971  16.659   4.392   6.100  0.0048 -0.3146  0.1066
  762POPS   PO411972  16.211   4.424   5.982 -0.3288 -0.1022 -0.1026
  762POPS   GL111973  16.209   4.461   6.416  0.1824  0.0211 -0.1367
  762POPS   GL211974  16.023   4.728   6.533 -0.1369  0.0173 -0.1399
  762POPS   C1A11975  16.048   4.351   6.862  0.1024  0.1849  0.1530
  762POPS   D2A11976  16.227   4.250   7.264 -0.1174  0.1752  0.0025
  762POPS   C3A11977  16.447   4.470   7.422  0.0490 -0.0922  0.1270
  762POPS   C4A11978  16.445   4.631   7.784 -0.0408  0.3113  0.0919
  762POPS   C1B11979  15.801   5.074   6.825  0.0852  0.0310  0.0587
  762POPS   C2B11980  15.759   5.189   7.245  0.0338  0.1144  0.0650
  762POPS   C3B11981  15.455   5.483   7.495 -0.0504 -0.0831 -0.1031
  762POPS   C4B11982  15.217   5.760   7.780 -0.1223  0.2536  0.1089
  763POPS   CNO11983  14.096   4.345   5.655  0.1028 -0.0688 -0.2077
  763POPS   PO411984  14.275   4.596   5.725  0.2148 -0.1386  0.1062
  763POPS   GL111985  14.326   4.487   6.082 -0.0430 -0.2182  0.0257
  763POPS   GL211986  14.206   4.241   6.189 -0.1758  0.0988  0.0414
  763POPS   C1A11987  14.539   4.402   6.532 -0.2484  0.0860 -0.3048
  763POPS   D2A11988  14.828   4.564   6.888 -0.1527  0.0422 -0.2119
  763POPS   C3A11989  14.723   4.320   7.193 -0.2347 -0.1156 -0.1346
  763POPS   C4A11990  14.767   3.930   7.334 -0.2075  0.0246  0.1511
  763POPS   C1B11991  14.048   4.292   6.512  0.1784 -0.0629  0.0947
  763POPS   C2B11992  14.157   4.197   6.950 -0.1130  0.0372 -0.2299
  763POPS   C3B11993  13.977   3.980   7.176 -0.0409  0.2146 -0.1440
  763POPS   C4B11994  13.573   4.064   7.430  0.0065  0.2798  0.0876
  764POPS   CNO11995  13.732   3.611   5.326 -0.0384 -0.2514 -0.1008
  764POPS   PO411996  13.742   3.818   5.722  0.0437 -0.2948 -0.1501
  764POPS   GL111997  13.529   3.824   6.148 -0.1116  0.1467  0.0787
  764POPS   GL211998  13.582   4.154   6.236 -0.2841  0.2596  0.4303
  764POPS   C1A11999  13.300   3.711   6.535 -0.3200  0.0961  0.1237
  764POPS   D2A12000  13.216   3.945   6.988  0.0727 -0.3005 -0.3052
  764POPS   C3A12001  13.092   3.731   7.372 -0.0494 -0.1053  0.2904
  764POPS   C4A12002  13.202   3.683   7.755  0.1379 -0.2065 -0.2680
  764POPS   C1B12003  13.527   4.236   6.558 -0.2929  0.6117 -0.1279
  764POPS   C2B12004  13.691   4.338   6.959  0.0902  0.1424 -0.1819
  764POPS   C3B12005  13.815   4.608   7.315  0.1659  0.2935  0.3162
  764POPS   C4B12006  13.815   4.867   7.575  0.0651  0.1891 -0.0011
  765POPS   CNO12007  11.656  10.102   4.825 -0.1743 -0.2081  0.2149
  765POPS   PO412008  11.843   9.911   5.132  0.3309  0.1540 -0.0497
  765POPS   GL112009  11.648   9.943   5.561 -0.3534  0.2948  0.1816
  765POPS   GL212010  11.455  10.028   5.799 -0.0104 -0.1011  0.0377
  765POPS   C1A12011  11.895  10.275   5.836 -0.0851 -0.0307 -0.1637
  765POPS   D2A12012  12.064  10.487   6.140 -0.1213 -0.2357  0.2226
  765POPS   C3A12013  11.844  10.629   6.556  0.0839 -0.1027 -0.0198
  765POPS   C4A12014  11.651  10.610   6.873 -0.3928  0.1605  0.3200
  765POPS   C1B12015  11.689   9.875   6.117  0.0294 -0.1747  0.1014
  765POPS   C2B12016  11.856  10.048   6.340 -0.0124 -0.0669  0.1479
  765POPS   C3B12017  11.836  10.103   6.758 -0.1902 -0.3756  0.1022
  765POPS   C4B12018  11.709  10.271   7.191  0.0361  0.3564  0.2791
  766POPS   CNO12019   2.545  17.521   4.900  0.1129  0.1131  0.1051
  766POPS   PO412020   2.524  17.462   5.353  0.1999 -0.1291  0.4304
  766POPS   GL112021   2.294  17.324   5.681  0.2926 -0.1243 -0.1135
  766POPS   GL212022   2.037  17.480   5.560 -0.1495 -0.1831  0.1079
  766POPS   C1A12023   2.370  17.358   6.161  0.2612  0.0132 -0.1741
  766POPS   D2A12024   2.715  17.192   6.478  0.2121 -0.0917  0.1308
  766POPS   C3A12025   2.840  16.890   6.750  0.0848  0.2043 -0.4643
  766POPS   C4A12026   3.127  16.619   6.890 -0.0655 -0.0010 -0.0643
  766POPS   C1B12027   1.930  17.663   5.898 -0.2144 -0.3812 -0.0983
  766POPS   C2B12028   1.889  17.302   6.216  0.3419  0.1522 -0.0146
  766POPS   C3B12029   1.781  17.122   6.659 -0.1556  0.1891 -0.0023
  766POPS   C4B12030   1.781  16.897   7.052  0.0422 -0.0312  0.0255
  767POPS   CNO12031  15.553  13.586   5.672 -0.2979 -0.3267  0.1625
  767POPS   PO412032  15.830  13.679   5.889  0.1584 -0.1129 -0.3616
  767POPS   GL112033  15.905  13.770   6.323 -0.1544 -0.1593  0.1290
  767POPS   GL212034  15.746  13.544   6.401 -0.1549  0.1716 -0.0616
  767POPS   C1A12035  16.193  13.572   6.553  0.0310  0.0058  0.0734
  767POPS   D2A12036  16.163  13.160   6.618 -0.2539 -0.1363 -0.3594
  767POPS   C3A12037  16.360  12.849   6.934 -0.0956  0.0134 -0.2402
  767POPS   C4A12038  16.633  12.546   7.110 -0.1330 -0.1937 -0.0298
  767POPS   C1B12039  15.786  13.541   6.877  0.1551  0.1127 -0.3157
  767POPS   C2B12040  15.795  13.638   7.285 -0.4935 -0.1998 -0.1453
  767POPS   C3B12041  15.598  13.830   7.594 -0.0769 -0.2773 -0.1776
  767POPS   C4B12042  15.644  13.666   8.028  0.0248 -0.2496  0.2133
  768POPS   CNO12043   3.858   7.860   5.736  0.0183 -0.1251 -0.0393
  768POPS   PO412044   3.471   7.900   5.554  0.0399  0.5661 -0.0003
  768POPS   GL112045   3.549   7.743   6.085  0.2276 -0.0969  0.1192
  768POPS   GL212046   3.824   7.876   6.214  0.1259  0.0807 -0.1657
  768POPS   C1A12047   3.274   7.726   6.457 -0.1706 -0.2333 -0.1572
  768POPS   D2A12048   2.910   8.100   6.604  0.1760  0.2004 -0.2188
  768POPS   C3A12049   2.903   8.436   6.882 -0.2791  0.1032  0.1423
  768POPS   C4A12050   2.703   8.726   7.256 -0.3767  0.0894 -0.2806
  768POPS   C1B12051   3.900   8.235   6.557  0.3219 -0.2293 -0.0498
  768POPS   C2B12052   3.843   8.687   6.804  0.1233  0.4254  0.1161
  768POPS   C3B12053   3.679   8.989   6.904 -0.3903  0.1706 -0.0252
  768POPS   C4B12054   3.316   9.239   6.835  0.2086  0.4094  0.2292
  769POPS   CNO12055  13.865   2.129   5.325 -0.0915 -0.1068 -0.0325
  769POPS   PO412056  14.287   2.163   5.314  0.1705  0.0501  0.1868
  769POPS   GL112057  14.221   2.106   5.746  0.0589  0.1485 -0.1324
  769POPS   GL212058  13.889   2.309   5.849 -0.0431 -0.1042 -0.0492
  769POPS   C1A12059  14.202   1.815   6.173 -0.1738  0.0946  0.3041
  769POPS   D2A12060  14.070   1.605   6.578  0.1000  0.0608  0.2345
  769POPS   C3A12061  14.155   1.575   6.947 -0.3598 -0.0969  0.1488
  769POPS   C4A12062  14.580   1.865   7.144 -0.1375 -0.0229  0.0398
  769POPS   C1B12063  13.763   2.130   6.208  0.0281  0.2493 -0.0476
  769POPS   C2B12064  13.886   2.026   6.528  0.1031  0.0613  0.1029
  769POPS   C3B12065  13.926   2.182   6.842  0.0697  0.0588 -0.0762
  769POPS   C4B12066  13.972   2.006   7.221 -0.2787  0.2855  0.1644
  770POPS   CNO12067   2.063   6.382   6.281 -0.1110  0.0371 -0.0815
  770POPS   PO412068   2.460   6.525   6.056 -0.0428 -0.1536  0.3725
  770POPS   GL112069   2.756   6.744   6.260  0.0050  0.0718  0.1249
  770POPS   GL212070   2.634   7.002   6.334 -0.2051  0.0118 -0.3527
  770POPS   C1A12071   2.865   6.830   6.746 -0.0918 -0.1781  0.0396
  770POPS   D2A12072   2.866   7.007   7.188 -0.1990 -0.2311 -0.2485
  770POPS   C3A12073   2.660   7.473   7.270 -0.3715  0.0767  0.1340
  770POPS   C4A12074   2.690   7.854   7.565 -0.2407 -0.0126  0.0000
  770POPS   C1B12075   2.548   7.181   6.601 -0.2106  0.2689 -0.2331
  770POPS   C2B12076   2.287   7.194   6.959  0.4783  0.2288 -0.0828
  770POPS   C3B12077   2.197   7.288   7.516 -0.1509 -0.1196 -0.1751
  770POPS   C4B12078   1.861   7.212   7.837 -0.2309  0.1154 -0.1761
  771POPS   CNO12079  14.017   8.084   5.268  0.2608  0.1389  0.2006
  771POPS   PO412080  14.390   8.177   5.440  0.1541  0.0429 -0.1338
  771POPS   GL112081  14.263   8.078   5.897 -0.0916  0.0625 -0.0910
  771POPS   GL212082  14.388   8.178   6.259 -0.1705 -0.0032 -0.2322
  771POPS   C1A12083  13.990   7.939   6.187  0.3743  0.1197 -0.1526
  771POPS   D2A12084  13.655   7.908   6.518 -0.1373 -0.1887  0.2759
  771POPS   C3A12085  13.394   8.344   6.751  0.1571  0.1520 -0.2981
  771POPS   C4A12086  13.039   8.710   6.775  0.1289  0.1299 -0.0280
  771POPS   C1B12087  14.344   8.082   6.631 -0.0090  0.1657 -0.2050
  771POPS   C2B12088  14.552   7.919   7.025  0.1702  0.1012  0.0510
  771POPS   C3B12089  14.551   7.923   7.479  0.2332 -0.1637  0.0723
  771POPS   C4B12090  14.418   7.864   7.935  0.2406  0.0071  0.1097
  772POPS   CNO12091  10.854   2.866   5.558 -0.1425 -0.0324 -0.1034
  772POPS   PO412092  10.608   2.507   5.796  0.1761  0.4548  0.0164
  772POPS   GL112093  10.309   2.356   6.078  0.0964  0.2154 -0.2360
  772POPS   GL212094  10.384   2.538   6.300 -0.2536  0.0608  0.0136
  772POPS   C1A12095  10.037   2.179   6.447  0.1494  0.0800  0.1567
  772POPS   D2A12096  10.086   1.896   6.780  0.2933 -0.0379  0.1646
  772POPS   C3A12097  10.508   1.947   6.903 -0.0504 -0.2294  0.1499
  772POPS   C4A12098  10.628   2.328   6.739  0.2683 -0.1222 -0.1094
  772POPS   C1B12099  10.264   2.745   6.626  0.2411 -0.1263 -0.1286
  772POPS   C2B12100  10.491   2.688   7.025 -0.2240 -0.2343 -0.0875
  772POPS   C3B12101  10.809   2.803   7.277 -0.0779  0.4046  0.1226
  772POPS   C4B12102  11.331   2.875   7.245  0.0057 -0.2163 -0.0671
  773POPS   CNO12103   5.952  18.535   4.937  0.1113 -0.2719 -0.1490
  773POPS   PO412104   5.644  18.454   5.109 -0.2296 -0.0043 -0.0472
  773POPS   GL112105   5.915  18.397   5.571 -0.0059  0.0348  0.0355
  773POPS   GL212106   6.084  18.638   5.737 -0.2638  0.1866  0.2749
  773POPS   C1A12107   5.677  18.285   5.938 -0.1421 -0.1660 -0.2713
  773POPS   D2A12108   5.335  18.537   6.003  0.1082  0.0356 -0.0401
  773POPS   C3A12109   5.342  18.759   6.494 -0.0091 -0.1079 -0.4024
  773POPS   C4A12110   5.638  18.918   6.800  0.0242 -0.1995  0.1180
  773POPS   C1B12111   6.148  18.545   6.108  0.0470 -0.0535  0.0932
  773POPS   C2B12112   6.078  18.514   6.573 -0.1024 -0.2236  0.3293
  773POPS   C3B12113   6.266  18.292   6.938 -0.3178 -0.1606 -0.0417
  773POPS   C4B12114   6.520  18.254   7.286  0.3375 -0.1528 -0.1789
  774POPS   CNO12115   0.619   4.690   5.584  0.1168  0.1934  0.2821
  774POPS   PO412116   0.834   4.966   5.871 -0.2944  0.3573  0.4173
  774POPS   GL112117   0.811   5.175   6.321 -0.3522  0.1205 -0.0033
  774POPS   GL212118   0.984   5.411   6.304 -0.3990 -0.0165  0.1759
  774POPS   C1A12119   0.708   4.997   6.722  0.0865  0.1831  0.1909
  774POPS   D2A12120   0.720   4.606   6.885  0.1110 -0.2028  0.0474
  774POPS   C3A12121   0.706   4.617   7.363 -0.0099  0.0741 -0.0563
  774POPS   C4A12122   0.913   4.560   7.749 -0.2152  0.0684 -0.0710
  774POPS   C1B12123   0.886   5.518   6.809  0.2027 -0.0406 -0.1309
  774POPS   C2B12124   0.777   5.271   7.101 -0.3391  0.1457 -0.2238
  774POPS   C3B12125   0.704   5.121   7.507 -0.2500 -0.0603  0.0842
  774POPS   C4B12126   0.880   5.000   7.914  0.2669 -0.3321  0.0896
  775POPS   CNO12127  12.454  10.378   5.763 -0.0510 -0.2040  0.1597
  775POPS   PO412128  12.899  10.401   5.723  0.0559 -0.2372 -0.2165
  775POPS   GL112129  13.154  10.328   5.911  0.1806  0.5064  0.0612
  775POPS   GL212130  13.292  10.442   6.159  0.1770 -0.0751  0.1445
  775POPS   C1A12131  13.257   9.981   6.310 -0.2623 -0.0302  0.2188
  775POPS   D2A12132  13.493   9.691   6.542 -0.1059  0.2857  0.0896
  775POPS   C3A12133  13.638   9.927   6.890  0.1052 -0.2747 -0.2651
  775POPS   C4A12134  13.415  10.149   7.123 -0.1524  0.3086  0.0947
  775POPS   C1B12135  12.928  10.350   6.399  0.2041 -0.1326  0.0844
  775POPS   C2B12136  12.534  10.248   6.544  0.0201  0.3520 -0.0682
  775POPS   C3B12137  12.201  10.404   6.834 -0.1139 -0.0760 -0.2246
  775POPS   C4B12138  12.055  10.705   7.136  0.0631  0.0091  0.0731
  776POPS   CNO12139  16.629  10.186   5.907 -0.0441  0.2845  0.0567
  776POPS   PO412140  16.465   9.840   5.736 -0.1126 -0.1955  0.0749
  776POPS   GL112141  16.244   9.908   6.134 -0.0829  0.0699 -0.1235
  776POPS   GL212142  16.174  10.259   6.146  0.0641  0.1939 -0.3232
  776POPS   C1A12143  16.251   9.937   6.579 -0.0356 -0.2635 -0.0148
  776POPS   D2A12144  16.256   9.626   6.904  0.2339  0.1252 -0.1721
  776POPS   C3A12145  16.080   9.688   7.274  0.1862  0.1765  0.1155
  776POPS   C4A12146  16.052   9.989   7.690  0.1122 -0.2624  0.0943
  776POPS   C1B12147  15.719  10.214   6.477 -0.1824  0.0960 -0.2467
  776POPS   C2B12148  15.558  10.344   6.894 -0.0417 -0.0133  0.0598
  776POPS   C3B12149  15.252  10.403   7.186 -0.3248  0.0742 -0.1758
  776POPS   C4B12150  15.160  10.419   7.583  0.1556  0.0876 -0.0051
  777POPS   CNO12151   8.146  17.918   5.365 -0.1109  0.3296  0.3353
  777POPS   PO412152   8.493  18.044   5.105  0.0073  0.0151  0.0292
  777POPS   GL112153   8.572  18.037   5.618  0.1035  0.1262 -0.2574
  777POPS   GL212154   8.350  17.761   5.751 -0.4450  0.0457 -0.1489
  777POPS   C1A12155   8.546  17.972   6.163  0.0562 -0.2345  0.2091
  777POPS   D2A12156   8.436  17.787   6.594 -0.1779 -0.2471  0.1947
  777POPS   C3A12157   8.252  17.900   6.936  0.0639 -0.1107 -0.2540
  777POPS   C4A12158   8.207  18.295   7.203 -0.0952 -0.1398  0.0607
  777POPS   C1B12159   8.443  17.516   6.028 -0.0795 -0.2065  0.4172
  777POPS   C2B12160   8.438  17.273   6.478  0.2151  0.0934 -0.2219
  777POPS   C3B12161   8.327  17.321   6.900  0.4795  0.0932  0.1257
  777POPS   C4B12162   8.069  17.483   7.257  0.1488 -0.1770 -0.1727
  778POPS   CNO12163   2.438  16.525   4.899  0.2088  0.2000 -0.1560
  778POPS   PO412164   2.343  16.408   5.244 -0.1807 -0.1981  0.2585
  778POPS   GL112165   2.176  16.296   5.755 -0.0306  0.1421 -0.2760
  778POPS   GL212166   2.245  15.959   5.938 -0.2353 -0.3428  0.0411
  778POPS   C1A12167   1.920  16.504   6.035 -0.1320  0.2741 -0.0379
  778POPS   D2A12168   1.836  16.613   6.420 -0.1313  0.1524 -0.0959
  778POPS   C3A12169   1.925  16.416   6.782  0.2373 -0.1702 -0.1337
  778POPS   C4A12170   2.214  16.333   7.216 -0.1576  0.1946  0.0198
  778POPS   C1B12171   2.360  15.717   6.382  0.1475 -0.0241  0.1326
  778POPS   C2B12172   2.755  15.525   6.359 -0.3139  0.0654  0.1704
  778POPS   C3B12173   3.061  15.771   6.475 -0.2293 -0.2758 -0.1402
  778POPS   C4B12174   3.487  16.031   6.498 -0.3423 -0.0803 -0.0572
  779POPS   CNO12175   2.528   7.580   5.518  0.0756 -0.1593  0.1515
  779POPS   PO412176   2.878   7.326   5.475 -0.2132 -0.1920  0.0362
  779POPS   GL112177   2.793   7.416   5.899 -0.4114  0.1071  0.0545
  779POPS   GL212178   2.376   7.349   5.968  0.2920 -0.0231  0.3432
  779POPS   C1A12179   2.743   7.550   6.305 -0.1029  0.1507 -0.0721
  779POPS   D2A12180   2.642   7.664   6.780 -0.2293  0.2051 -0.2416
  779POPS   C3A12181   2.954   7.895   7.066  0.0823 -0.1773  0.0010
  779POPS   C4A12182   3.030   8.263   7.344 -0.0947  0.3215  0.3170
  779POPS   C1B12183   2.250   7.534   6.255  0.0459 -0.2049  0.2146
  779POPS   C2B12184   2.277   7.895   6.432 -0.0795  0.0623 -0.1064
  779POPS   C3B12185   2.399   8.154   6.704 -0.1576 -0.2794  0.1463
  779POPS   C4B12186   2.454   8.540   6.681  0.3066  0.0081  0.1280
  780POPS   CNO12187   8.464   6.146   4.966  0.3178 -0.1474 -0.0014
  780POPS   PO412188   8.538   6.456   5.256  0.5906  0.0360  0.3269
  780POPS   GL112189   8.314   6.488   5.642  0.1683 -0.0931  0.0867
  780POPS   GL212190   8.580   6.462   5.924  0.0625  0.1711  0.1125
  780POPS   C1A12191   8.046   6.368   5.981  0.2566 -0.2723  0.0534
  780POPS   D2A12192   7.923   6.558   6.345 -0.2983  0.1381 -0.0557
  780POPS   C3A12193   8.101   6.846   6.632  0.1718 -0.2386 -0.1137
  780POPS   C4A12194   8.381   7.173   6.851  0.0286  0.1548 -0.4676
  780POPS   C1B12195   8.459   6.675   6.355 -0.0292 -0.1415  0.1695
  780POPS   C2B12196   8.433   6.506   6.819  0.0340 -0.2042  0.1566
  780POPS   C3B12197   8.418   6.241   7.214  0.0327  0.0397 -0.4019
  780POPS   C4B12198   8.663   5.970   7.448 -0.2815  0.3894 -0.2887
  781POPS   CNO12199  11.895  18.296   5.378  0.0515  0.1805 -0.0232
  781POPS   PO412200  12.309  18.060   5.403 -0.1807 -0.0622 -0.0464
  781POPS   GL112201  12.121  18.031   5.787 -0.2377  0.0470  0.2939
  781POPS   GL212202  12.345  18.297   5.855  0.0538  0.0093 -0.0093
  781POPS   C1A12203  11.742  18.136   5.831  0.0747  0.0879  0.1576
  781POPS   D2A12204  11.359  18.255   6.087  0.0914  0.0817  0.1080
  781POPS   C3A12205  11.380  18.018   6.433  0.0678 -0.0693 -0.3779
  781POPS   C4A12206  11.692  17.995   6.737  0.1202 -0.1515 -0.1397
  781POPS   C1B12207  12.261  18.186   6.293  0.2903  0.0205 -0.3982
  781POPS   C2B12208  12.145  17.898   6.609  0.2915 -0.2681  0.3939
  781POPS   C3B12209  12.181  17.439   6.591  0.0593  0.3640  0.1590
  781POPS   C4B12210  12.059  17.087   6.856 -0.0685  0.2504 -0.1535
  782POPS   CNO12211  18.673   1.656   5.258 -0.2609  0.1455  0.1021
  782POPS   PO412212  18.985   1.696   5.533 -0.2750  0.0287 -0.1087
  782POPS   GL112213  19.008   1.470   5.864  0.1650 -0.1327 -0.3374
  782POPS   GL212214  18.700   1.440   5.990  0.0207 -0.0234 -0.0966
  782POPS   C1A12215  19.334   1.475   6.228  0.0072 -0.0518 -0.0288
  782POPS   D2A12216  19.426   1.414   6.578  0.0233  0.1669 -0.1974
  782POPS   C3A12217  19.582   1.746   6.947  0.1093 -0.0092 -0.0346
  782POPS   C4A12218  19.759   1.833   7.330  0.3901 -0.2049  0.0130
  782POPS   C1B12219  18.915   1.262   6.349  0.0247 -0.1493 -0.2962
  782POPS   C2B12220  19.012   0.888   6.524  0.0435  0.1281  0.1705
  782POPS   C3B12221  19.359   0.808   6.726 -0.1124  0.1293 -0.2190
  782POPS   C4B12222  19.710   0.833   6.966 -0.2175  0.3337 -0.1749
  783POPS   CNO12223   9.972  18.406   4.845  0.1102  0.1426  0.1572
  783POPS   PO412224  10.382  18.284   5.085  0.0015  0.0166 -0.1027
  783POPS   GL112225  10.629  18.386   5.417 -0.0355 -0.1771  0.4684
  783POPS   GL212226  10.923  18.572   5.395  0.2191 -0.1104 -0.0874
  783POPS   C1A12227  10.537  18.521   5.866 -0.2097  0.1715  0.1151
  783POPS   D2A12228  10.269  18.425   6.170  0.0474  0.1001 -0.2169
  783POPS   C3A12229  10.542  18.494   6.530 -0.0965  0.0538 -0.1252
  783POPS   C4A12230  10.823  18.507   6.888 -0.2110 -0.0125 -0.2188
  783POPS   C1B12231  11.008  18.454   5.775 -0.1340 -0.2603 -0.1364
  783POPS   C2B12232  10.884  18.300   6.200 -0.0104  0.1387  0.3355
  783POPS   C3B12233  10.890  18.019   6.535  0.1470 -0.2008  0.4001
  783POPS   C4B12234  10.855  17.958   7.093  0.0245 -0.0050  0.4649
  784POPS   CNO12235   7.812   9.761   5.313 -0.3263 -0.0654 -0.2521
  784POPS   PO412236   8.228   9.590   5.331  0.3545 -0.2253 -0.3126
  784POPS   GL112237   8.406   9.448   5.756  0.1243 -0.2610 -0.0805
  784POPS   GL212238   8.509   9.132   5.801  0.1307  0.2413 -0.0360
  784POPS   C1A12239   8.180   9.286   6.197  0.0149 -0.1691  0.0852
  784POPS   D2A12240   7.960   9.294   6.605 -0.1833  0.2780 -0.0077
  784POPS   C3A12241   7.874   9.678   6.591 -0.1905 -0.1265  0.2723
  784POPS   C4A12242   8.034  10.109   6.491  0.0333  0.1867  0.4487
  784POPS   C1B12243   8.702   9.168   6.218 -0.1768  0.5579 -0.1068
  784POPS   C2B12244   8.907   9.436   6.357 -0.0233 -0.0278  0.0400
  784POPS   C3B12245   9.083   9.336   6.667 -0.0774  0.3511 -0.1159
  784POPS   C4B12246   9.286   9.553   7.037  0.0409 -0.1331  0.1982
  785POPS   CNO12247   1.674   3.121   5.476 -0.0083 -0.0077 -0.1642
  785POPS   PO412248   1.303   2.923   5.600  0.0633  0.1944  0.0756
  785POPS   GL112249   1.412   3.293   5.953  0.2911  0.1432  0.0694
  785POPS   GL212250   1.239   3.153   6.200  0.0707 -0.2684 -0.1227
  785POPS   C1A12251   1.675   3.470   6.257  0.1109 -0.1908  0.2107
  785POPS   D2A12252   1.726   3.281   6.656  0.0387 -0.1579 -0.0995
  785POPS   C3A12253   1.855   3.163   7.112  0.2293 -0.2145 -0.0588
  785POPS   C4A12254   2.075   2.989   7.519  0.1850  0.0914 -0.1988
  785POPS   C1B12255   1.343   2.905   6.440 -0.0806  0.3170  0.0415
  785POPS   C2B12256   1.430   2.861   6.934  0.2228  0.2156  0.0459
  785POPS   C3B12257   1.737   2.533   7.245  0.1998 -0.2531 -0.1186
  785POPS   C4B12258   1.719   2.150   7.455  0.0388  0.0286  0.2901
  786POPS   CNO12259  15.532   7.422   5.661 -0.1063  0.1680  0.1598
  786POPS   PO412260  15.550   7.815   5.801  0.0831  0.0922 -0.0667
  786POPS   GL112261  15.116   7.950   6.101  0.1042  0.1415  0.2334
  786POPS   GL212262  15.265   8.152   6.289 -0.1819  0.0055 -0.0730
  786POPS   C1A12263  14.816   7.757   6.482 -0.1195  0.1555  0.0699
  786POPS   D2A12264  14.460   7.586   6.563  0.1721 -0.0597  0.1939
  786POPS   C3A12265  14.571   7.346   6.924  0.0602  0.0614  0.1493
  786POPS   C4A12266  14.472   7.046   7.224  0.1218  0.3151  0.1106
  786POPS   C1B12267  14.840   8.347   6.493  0.1818 -0.0070  0.0616
  786POPS   C2B12268  14.693   8.425   6.944 -0.2240 -0.2949  0.1384
  786POPS   C3B12269  14.715   8.423   7.338  0.1052 -0.2702 -0.2345
  786POPS   C4B12270  14.600   8.755   7.765  0.0342  0.0163 -0.1632
  787POPS   CNO12271   3.482   5.365   5.619  0.1726  0.0175  0.0213
  787POPS   PO412272   3.544   4.920   5.580 -0.2233 -0.2215 -0.3144
  787POPS   GL112273   3.808   4.780   5.990 -0.1944  0.2103  0.1943
  787POPS   GL212274   4.099   4.857   6.148  0.1750  0.1294  0.0023
  787POPS   C1A12275   3.708   4.746   6.429  0.2682 -0.2306 -0.1406
  787POPS   D2A12276   3.442   4.965   6.707 -0.2712  0.1799 -0.0876
  787POPS   C3A12277   3.436   5.372   6.730 -0.2660  0.0742  0.1763
  787POPS   C4A12278   3.600   5.736   6.532  0.3029 -0.0863  0.0224
  787POPS   C1B12279   3.975   5.188   6.446  0.3003  0.2188 -0.1969
  787POPS   C2B12280   3.918   5.104   6.868  0.0653 -0.0238 -0.0069
  787POPS   C3B12281   3.827   4.724   6.939  0.1032  0.3558 -0.1361
  787POPS   C4B12282   3.820   4.339   6.866  0.0676  0.0579 -0.4093
  788POPS   CNO12283  14.665  13.141   5.622  0.0128 -0.1137 -0.1142
  788POPS   PO412284  14.587  13.105   6.061  0.0734 -0.4306  0.1627
  788POPS   GL112285  14.597  13.266   6.416  0.0918 -0.0216  0.0354
  788POPS   GL212286  14.629  13.601   6.347 -0.3345 -0.0829  0.1481
  788POPS   C1A12287  14.566  13.223   6.915 -0.0153 -0.1970 -0.2816
  788POPS   D2A12288  14.324  13.449   7.212 -0.0872  0.0368 -0.1060
  788POPS   C3A12289  14.085  13.805   6.986 -0.0989 -0.0996 -0.1646
  788POPS   C4A12290  13.739  14.024   7.220 -0.0752 -0.2104 -0.2366
  788POPS   C1B12291  14.856  13.623   6.766  0.0466  0.0467  0.2225
  788POPS   C2B12292  14.837  13.454   7.300  0.0100 -0.2621 -0.0263
  788POPS   C3B12293  14.902  13.304   7.789 -0.1069 -0.1574 -0.0958
  788POPS   C4B12294  14.767  13.660   8.001  0.2408 -0.1381  0.1867
  789POPS   CNO12295   7.641   5.265   5.310  0.0773  0.3535  0.4564
  789POPS   PO412296   7.507   5.405   5.710 -0.0710  0.0390 -0.2510
  789POPS   GL112297   7.579   5.414   6.094 -0.1019 -0.1378 -0.1738
  789POPS   GL212298   7.357   5.698   6.103 -0.1992  0.1732  0.1010
  789POPS   C1A12299   7.734   5.113   6.491  0.1250 -0.0289 -0.1337
  789POPS   D2A12300   7.834   4.707   6.810 -0.2778 -0.0038 -0.2826
  789POPS   C3A12301   8.174   4.410   6.942  0.2947  0.0072 -0.1476
  789POPS   C4A12302   8.402   4.314   7.222  0.1162 -0.0843 -0.1642
  789POPS   C1B12303   7.477   5.744   6.514 -0.0426  0.0209 -0.1549
  789POPS   C2B12304   7.644   5.529   6.859  0.0248 -0.2097  0.0544
  789POPS   C3B12305   7.976   5.177   6.901  0.0611 -0.0455  0.1385
  789POPS   C4B12306   8.317   4.873   6.983 -0.0736  0.0646 -0.0299
  790POPS   CNO12307  10.851   5.774   5.183  0.3715 -0.0346 -0.1479
  790POPS   PO412308  11.102   5.962   5.490  0.2085  0.0958  0.2998
  790POPS   GL112309  11.136   6.192   5.867  0.2263 -0.0541  0.1921
  790POPS   GL212310  11.254   5.962   6.033  0.1231 -0.1111  0.0162
  790POPS   C1A12311  11.184   6.491   6.225  0.1978  0.2260 -0.1404
  790POPS   D2A12312  11.259   6.840   6.416 -0.0965 -0.0813  0.0356
  790POPS   C3A12313  10.929   7.006   6.750  0.0474  0.3456 -0.1867
  790POPS   C4A12314  10.530   7.005   6.906 -0.0678  0.2140 -0.1077
  790POPS   C1B12315  11.001   6.086   6.444  0.2746 -0.2218 -0.1094
  790POPS   C2B12316  10.765   5.999   6.816 -0.1855  0.3545 -0.1601
  790POPS   C3B12317  10.526   6.130   7.130  0.1742  0.3153  0.2451
  790POPS   C4B12318  10.497   6.327   7.464  0.0866 -0.1732 -0.0668
  791POPS   CNO12319   2.625  11.021   4.642 -0.3767 -0.0360  0.0377
  791POPS   PO412320   2.900  10.887   5.032 -0.0166  0.0086  0.2296
  791POPS   GL112321   2.887  10.896   5.518  0.2979 -0.1469  0.1825
  791POPS   GL212322   2.663  10.598   5.668 -0.1408  0.3587  0.1334
  791POPS   C1A12323   2.867  11.001   6.032 -0.2083 -0.2780  0.1955
  791POPS   D2A12324   2.815  11.233   6.356 -0.1474  0.0222 -0.2040
  791POPS   C3A12325   2.704  11.066   6.845  0.2311 -0.0694 -0.0024
  791POPS   C4A12326   2.602  11.013   7.203 -0.1996  0.2479  0.1545
  791POPS   C1B12327   2.868  10.199   6.022 -0.4042  0.0899  0.2509
  791POPS   C2B12328   2.958   9.766   6.256  0.0792 -0.0725  0.0112
  791POPS   C3B12329   2.735   9.425   6.450  0.2124  0.0159  0.0036
  791POPS   C4B12330   2.355   9.218   6.265 -0.3913  0.2463 -0.0653
  792POPS   CNO12331  16.023  16.451   5.619  0.1844  0.1378  0.1820
  792POPS   PO412332  15.769  16.196   5.882 -0.3005  0.0160  0.1312
  792POPS   GL112333  15.784  16.421   6.228  0.2506 -0.0978  0.2911
  792POPS   GL212334  15.845  16.207   6.487 -0.2470 -0.1185  0.3017
  792POPS   C1A12335  15.862  16.790   6.461  0.6226 -0.3227  0.0245
  792POPS   D2A12336  16.074  17.253   6.482  0.2562 -0.4240 -0.0364
  792POPS   C3A12337  15.900  17.513   6.797  0.0005 -0.0960 -0.0525
  792POPS   C4A12338  16.119  17.730   7.133 -0.0691  0.3274 -0.0759
  792POPS   C1B12339  16.008  16.125   6.817 -0.0631 -0.0869  0.0558
  792POPS   C2B12340  15.897  16.173   7.245  0.0898  0.0998  0.3354
  792POPS   C3B12341  15.631  16.179   7.666  0.0900  0.6114  0.2255
  792POPS   C4B12342  15.824  16.000   8.044 -0.0993  0.1121  0.2667
  793POPS   CNO12343   5.275  11.467   5.076 -0.0969  0.0204  0.1702
  793POPS   PO412344   5.102  11.489   5.496  0.2073 -0.1546 -0.1178
  793POPS   GL112345   5.338  11.801   5.803  0.3792 -0.0935  0.1347
  793POPS   GL212346   5.690  11.990   5.800 -0.0350  0.1717 -0.2878
  793POPS   C1A12347   5.278  11.826   6.266  0.0963  0.2070  0.1249
  793POPS   D2A12348   5.111  11.956   6.645  0.0075  0.3645 -0.5309
  793POPS   C3A12349   5.301  11.655   6.935  0.2322 -0.2071 -0.2928
  793POPS   C4A12350   5.698  11.743   7.238 -0.1542 -0.0308  0.0489
  793POPS   C1B12351   5.640  12.197   6.183 -0.2458  0.1050 -0.0671
  793POPS   C2B12352   5.159  12.325   6.182 -0.0837 -0.1644  0.1525
  793POPS   C3B12353   5.011  12.749   6.275  0.0337 -0.3210  0.0631
  793POPS   C4B12354   4.640  12.998   6.523  0.0430  0.1071  0.1111
  794POPS   CNO12355   5.344  14.077   4.804 -0.0192  0.0818  0.0197
  794POPS   PO412356   5.398  14.232   5.202 -0.2060  0.0481 -0.1207
  794POPS   GL112357   5.045  14.324   5.428 -0.0514 -0.0093 -0.2709
  794POPS   GL212358   4.949  14.248   5.688 -0.0738  0.1093 -0.0576
  794POPS   C1A12359   4.636  14.668   5.574 -0.3545  0.0252 -0.2623
  794POPS   D2A12360   4.445  14.769   6.037  0.1717  0.0144 -0.2495
  794POPS   C3A12361   4.450  14.433   6.300  0.1790 -0.0052 -0.1472
  794POPS   C4A12362   4.541  14.040   6.430 -0.3158 -0.1928 -0.2419
  794POPS   C1B12363   4.931  14.238   6.090 -0.3234  0.1402  0.1824
  794POPS   C2B12364   5.009  14.192   6.592 -0.0785 -0.0142  0.0356
  794POPS   C3B12365   4.867  14.190   6.976 -0.2865  0.4418  0.0753
  794POPS   C4B12366   4.535  14.274   7.298  0.2327  0.3280  0.1702
  795POPS   CNO12367  16.789   6.366   6.047  0.0139  0.0350  0.0454
  795POPS   PO412368  17.043   6.120   5.826 -0.2382 -0.2098 -0.2477
  795POPS   GL112369  17.130   6.093   6.320  0.0100 -0.2158 -0.0378
  795POPS   GL212370  17.284   6.046   6.429 -0.1266 -0.1468 -0.1564
  795POPS   C1A12371  16.940   6.386   6.719  0.1903 -0.2044 -0.4155
  795POPS   D2A12372  16.798   6.604   7.188  0.0211 -0.2113 -0.1478
  795POPS   C3A12373  17.016   6.926   7.486  0.1616 -0.1750 -0.1399
  795POPS   C4A12374  17.045   7.431   7.329  0.0916 -0.0195  0.2912
  795POPS   C1B12375  17.073   5.783   6.783 -0.0029  0.0975  0.0531
  795POPS   C2B12376  16.667   5.546   6.796 -0.0726  0.0613 -0.0832
  795POPS   C3B12377  16.431   5.091   6.778 -0.1449  0.1071  0.1867
  795POPS   C4B12378  16.277   4.864   7.071  0.1004  0.1772 -0.2060
  796POPS   CNO12379  18.353   0.761   5.847  0.1840  0.0301 -0.1552
  796POPS   PO412380  17.933   0.816   5.776 -0.2083  0.1414 -0.3222
  796POPS   GL112381  18.028   0.832   6.214  0.1670  0.3243  0.1857
  796POPS   GL212382  17.954   1.069   6.469 -0.0002  0.1801  0.0051
  796POPS   C1A12383  18.285   0.545   6.532 -0.0784  0.1186  0.0850
  796POPS   D2A12384  18.565   0.172   6.633 -0.0897  0.0028 -0.0746
  796POPS   C3A12385  18.878   0.088   6.400  0.1963 -0.2328 -0.0369
  796POPS   C4A12386  19.006   0.117   6.017  0.3109 -0.1153  0.1400
  796POPS   C1B12387  18.058   0.962   6.888  0.1816  0.3075 -0.1098
  796POPS   C2B12388  18.473   1.099   7.199 -0.0870  0.1163 -0.2677
  796POPS   C3B12389  18.483   1.519   7.355 -0.4771  0.1426 -0.0696
  796POPS   C4B12390  18.533   1.516   7.775  0.2897  0.1464 -0.1154
  797POPS   CNO12391  14.175  17.728   5.526 -0.1387  0.5807 -0.1364
  797POPS   PO412392  14.406  18.107   5.601  0.1504  0.1403  0.2990
  797POPS   GL112393  14.584  17.782   5.909 -0.0365 -0.0011 -0.0491
  797POPS   GL212394  14.536  18.082   6.113  0.0499  0.1945  0.1778
  797POPS   C1A12395  14.634  17.552   6.305  0.0114 -0.1210 -0.2110
  797POPS   D2A12396  14.823  17.391   6.700  0.4424 -0.2952 -0.0471
  797POPS   C3A12397  15.052  17.633   7.018 -0.1003  0.2049 -0.1812
  797POPS   C4A12398  14.974  17.832   7.445  0.3091 -0.1229  0.2161
  797POPS   C1B12399  14.694  18.041   6.538 -0.2577 -0.3472 -0.1148
  797POPS   C2B12400  14.689  18.407   6.807 -0.0083 -0.1970 -0.0861
  797POPS   C3B12401  14.500  18.612   7.180  0.0352 -0.0942 -0.0342
  797POPS   C4B12402  14.206  18.880   7.298 -0.0367  0.0458  0.1620
  798POPS   CNO12403   0.408   0.004   5.112 -0.1136 -0.2936  0.0874
  798POPS   PO412404   0.849   0.050   5.314  0.3854 -0.2857 -0.1784
  798POPS   GL112405   0.931   0.425   5.564 -0.4927 -0.2836 -0.1361
  798POPS   GL212406   1.235   0.382   5.807 -0.0643 -0.0819 -0.0106
  798POPS   C1A12407   0.744   0.624   5.969 -0.5253 -0.1621  0.0060
  798POPS   D2A12408   0.398   0.579   6.237  0.2469  0.1234  0.2695
  798POPS   C3A12409   0.468   0.302   6.554  0.1719  0.1645 -0.1294
  798POPS   C4A12410   0.491   0.376   7.088 -0.2077 -0.0348  0.3028
  798POPS   C1B12411   1.333   0.018   5.994  0.4132 -0.1217  0.0324
  798POPS   C2B12412   1.484  -0.397   5.941  0.3077 -0.0568 -0.1843
  798POPS   C3B12413   1.516  -0.752   5.988  0.0470  0.0203  0.1484
  798POPS   C4B12414   1.463  -1.233   6.113  0.2336  0.1208  0.0559
  799POPS   CNO12415  13.045  15.272   5.701 -0.0277 -0.1969 -0.3618
  799POPS   PO412416  13.100  15.737   5.693 -0.1450 -0.1653  0.0907
  799POPS   GL112417  13.144  15.618   6.079  0.4721  0.0652  0.2715
  799POPS   GL212418  12.836  15.392   6.342 -0.2117 -0.1830 -0.1803
  799POPS   C1A12419  13.200  15.627   6.485  0.4125 -0.0110 -0.3737
  799POPS   D2A12420  13.419  15.633   6.874 -0.1017  0.1472  0.0200
  799POPS   C3A12421  13.244  15.819   7.302  0.1242  0.0138 -0.1125
  799POPS   C4A12422  12.937  15.768   7.668  0.0148  0.2123  0.0645
  799POPS   C1B12423  13.027  15.013   6.627  0.0150  0.1312  0.3291
  799POPS   C2B12424  12.905  14.572   6.783  0.0606  0.4251 -0.4920
  799POPS   C3B12425  12.573  14.446   7.067 -0.2478  0.1106 -0.2370
  799POPS   C4B12426  12.309  14.393   7.464  0.1922  0.3107 -0.2410
  800POPS   CNO12427   4.147  18.168   5.607 -0.0544  0.0583 -0.0438
  800POPS   PO412428   3.883  18.468   5.333  0.0983  0.0055  0.0807
  800POPS   GL112429   3.886  18.631   5.884 -0.0154  0.0301 -0.1013
  800POPS   GL212430   3.760  18.314   5.871 -0.1313 -0.2814 -0.1346
  800POPS   C1A12431   3.627  18.542   6.315 -0.2601 -0.0182 -0.0162
  800POPS   D2A12432   3.730  18.435   6.744  0.0982  0.0836 -0.0142
  800POPS   C3A12433   3.726  18.859   6.799  0.2738  0.2922 -0.1343
  800POPS   C4A12434   3.881  19.216   6.873  0.2110  0.0924 -0.2708
  800POPS   C1B12435   3.912  18.135   6.223 -0.0145 -0.2697 -0.2552
  800POPS   C2B12436   4.050  18.084   6.571 -0.0500 -0.2699 -0.1160
  800POPS   C3B12437   3.867  17.973   6.930  0.1137 -0.0217 -0.3115
  800POPS   C4B12438   3.860  17.616   7.213  0.1980 -0.2407 -0.1423
  801POPS   CNO12439  16.008  11.906   5.616  0.0933 -0.0368 -0.1698
  801POPS   PO412440  15.767  11.686   5.901  0.3687  0.1704 -0.1000
  801POPS   GL112441  15.842  11.750   6.276 -0.1888 -0.1352  0.0922
  801POPS   GL212442  15.980  11.990   6.412  0.0757  0.1067 -0.0484
  801POPS   C1A12443  15.764  11.575   6.673 -0.1253 -0.1659 -0.2053
  801POPS   D2A12444  15.796  11.298   7.047  0.3535  0.2661  0.0780
  801POPS   C3A12445  16.105  11.436   7.399  0.0784 -0.0533 -0.0155
  801POPS   C4A12446  15.961  11.727   7.763 -0.4061 -0.0708 -0.1055
  801POPS   C1B12447  16.358  11.695   6.628 -0.1479  0.2314 -0.0140
  801POPS   C2B12448  16.287  11.416   6.971 -0.1999  0.0191  0.0377
  801POPS   C3B12449  16.520  11.116   7.375  0.2004  0.1140 -0.0979
  801POPS   C4B12450  16.369  10.822   7.665 -0.1002  0.0819  0.0613
  802POPS   CNO12451   9.709   7.356   5.373 -0.1757  0.0119 -0.1118
  802POPS   PO412452   9.365   7.476   5.315 -0.1337  0.2377  0.1464
  802POPS   GL112453   9.239   7.690   5.645 -0.3448  0.1246 -0.3331
  802POPS   GL212454   9.308   7.359   5.946  0.0162 -0.1281 -0.3090
  802POPS   C1A12455   9.294   7.834   6.086 -0.0336  0.1263 -0.0662
  802POPS   D2A12456   9.404   7.872   6.484 -0.2934  0.2679  0.0426
  802POPS   C3A12457   9.114   8.185   6.820 -0.0641  0.0612  0.0373
  802POPS   C4A12458   9.006   8.458   7.156  0.0294  0.1643  0.1444
  802POPS   C1B12459   9.237   7.042   6.288  0.1134 -0.0616 -0.0541
  802POPS   C2B12460   9.004   6.792   6.471  0.0990 -0.0533 -0.1066
  802POPS   C3B12461   8.863   6.779   6.903 -0.0704  0.0410 -0.0175
  802POPS   C4B12462   9.124   6.852   7.233 -0.1395 -0.0815 -0.0398
  803POPS   CNO12463   5.054   9.621   5.219  0.0020  0.0202  0.1855
  803POPS   PO412464   5.064   9.170   5.234  0.0791 -0.1012 -0.0536
  803POPS   GL112465   5.094   8.971   5.686  0.0882 -0.0215  0.1515
  803POPS   GL212466   4.754   8.979   5.822 -0.1061 -0.0228 -0.1872
  803POPS   C1A12467   5.023   8.637   6.103 -0.1219 -0.1544 -0.2442
  803POPS   D2A12468   5.242   8.384   6.385 -0.2842 -0.3279  0.0422
  803POPS   C3A12469   5.654   8.086   6.383  0.1429  0.0755 -0.0061
  803POPS   C4A12470   6.059   8.243   6.379  0.2491 -0.1944 -0.2286
  803POPS   C1B12471   4.577   8.824   6.303  0.1533  0.2135  0.0962
  803POPS   C2B12472   4.269   8.504   6.524  0.2922 -0.0084 -0.2615
  803POPS   C3B12473   4.243   8.376   6.937 -0.3570 -0.2240  0.0013
  803POPS   C4B12474   3.996   8.550   7.274 -0.2091  0.1693 -0.1107
  804POPS   CNO12475  12.922  16.973   5.813 -0.3046  0.0534 -0.1029
  804POPS   PO412476  13.248  17.213   5.741 -0.0420  0.5492  0.3464
  804POPS   GL112477  12.986  17.316   6.128  0.0496 -0.1171 -0.1640
  804POPS   GL212478  13.239  17.262   6.228  0.2461 -0.1015  0.1467
  804POPS   C1A12479  12.684  17.331   6.545 -0.0768 -0.0466  0.1901
  804POPS   D2A12480  12.611  17.502   6.901  0.0606  0.0054 -0.1607
  804POPS   C3A12481  12.318  17.318   7.158  0.0459  0.0386 -0.1819
  804POPS   C4A12482  11.884  17.351   7.323 -0.4031 -0.2890  0.0174
  804POPS   C1B12483  13.277  17.364   6.584 -0.2868  0.0465 -0.1412
  804POPS   C2B12484  13.157  17.421   6.923  0.2505  0.0790 -0.1079
  804POPS   C3B12485  12.967  17.818   7.050  0.0103 -0.1609  0.0469
  804POPS   C4B12486  12.650  18.222   6.965 -0.0248  0.1517  0.0322
  805POPS   CNO12487  18.243  15.474   5.284 -0.3070  0.0466 -0.1893
  805POPS   PO412488  17.882  15.498   5.549 -0.3155  0.2486  0.0487
  805POPS   GL112489  17.882  15.379   5.976 -0.0628  0.0123  0.0571
  805POPS   GL212490  18.020  15.591   6.159  0.3432 -0.2271 -0.1310
  805POPS   C1A12491  17.593  15.134   6.300  0.1343 -0.0581  0.0122
  805POPS   D2A12492  17.308  14.914   6.503 -0.0755  0.1832 -0.2255
  805POPS   C3A12493  17.185  15.031   6.907 -0.0606 -0.1868 -0.2669
  805POPS   C4A12494  16.937  14.961   7.223  0.2233  0.1826 -0.1854
  805POPS   C1B12495  18.028  15.848   6.528 -0.0826 -0.0541  0.1381
  805POPS   C2B12496  18.150  16.227   6.664  0.1778  0.2636 -0.1295
  805POPS   C3B12497  18.463  16.243   7.015  0.1383  0.1840 -0.2055
  805POPS   C4B12498  18.627  16.358   7.465 -0.2518  0.0246 -0.0756
  806POPS   CNO12499   6.187   0.711   4.965  0.2779 -0.3616  0.0310
  806POPS   PO412500   6.551   0.580   4.958  0.1220  0.3298 -0.1028
  806POPS   GL112501   6.263   0.517   5.423  0.1256 -0.1780  0.0343
  806POPS   GL212502   6.420   0.549   5.729  0.2217 -0.3599  0.3581
  806POPS   C1A12503   5.945   0.349   5.727  0.0481  0.0626  0.0691
  806POPS   D2A12504   5.999   0.215   6.155 -0.0342 -0.1316 -0.1071
  806POPS   C3A12505   5.562   0.310   6.432  0.0365 -0.1843 -0.0353
  806POPS   C4A12506   5.261   0.345   6.712  0.1874 -0.0673 -0.1424
  806POPS   C1B12507   6.402   0.152   5.969  0.0876 -0.1278 -0.1094
  806POPS   C2B12508   6.347   0.060   6.450  0.0399  0.0409  0.0737
  806POPS   C3B12509   6.508  -0.137   6.860 -0.0824  0.0940 -0.0582
  806POPS   C4B12510   6.670  -0.113   7.202  0.1335  0.1608  0.0930
  807POPS   CNO12511  11.338   4.155   5.221  0.0257 -0.0746 -0.1398
  807POPS   PO412512  11.729   4.279   5.435 -0.0928  0.0664 -0.0421
  807POPS   GL112513  11.595   4.192   5.834  0.0188 -0.1500  0.0543
  807POPS   GL212514  11.864   4.159   6.064 -0.4621 -0.0453  0.0554
  807POPS   C1A12515  11.212   4.144   6.249  0.1786 -0.2333 -0.2898
  807POPS   D2A12516  11.230   4.163   6.709  0.2362  0.1921  0.0136
  807POPS   C3A12517  11.429   3.850   6.923 -0.0143  0.1735 -0.2509
  807POPS   C4A12518  11.372   3.510   6.690  0.3456 -0.4861  0.1372
  807POPS   C1B12519  11.673   4.229   6.431 -0.0383 -0.1305  0.2906
  807POPS   C2B12520  11.859   4.183   6.863 -0.0349  0.0009 -0.0490
  807POPS   C3B12521  12.020   4.385   7.349  0.0986 -0.1564 -0.2105
  807POPS   C4B12522  11.936   4.655   7.655  0.3174 -0.0269  0.4449
  808POPS   CNO12523   0.938   5.824   5.984 -0.2493 -0.1337 -0.1281
  808POPS   PO412524   1.003   6.209   5.887  0.4297  0.1825 -0.0904
  808POPS   GL112525   1.128   6.182   6.220  0.0433 -0.0687  0.1257
  808POPS   GL212526   0.949   6.000   6.446  0.2660  0.1975 -0.2262
  808POPS   C1A12527   1.400   6.102   6.588 -0.3078 -0.1613 -0.0655
  808POPS   D2A12528   1.616   6.018   6.853  0.2237  0.2024 -0.1293
  808POPS   C3A12529   1.251   5.809   7.167  0.0188  0.0543 -0.2161
  808POPS   C4A12530   1.139   5.533   7.325  0.1391  0.1604 -0.2610
  808POPS   C1B12531   0.962   6.052   6.805  0.1965  0.0485 -0.0831
  808POPS   C2B12532   0.737   5.822   7.193 -0.1082 -0.1389  0.0597
  808POPS   C3B12533   0.692   5.989   7.649  0.1044  0.2180  0.0432
  808POPS   C4B12534   0.648   6.441   7.710 -0.1656 -0.1053  0.1627
  809POPS   CNO12535  16.076  15.804   6.000 -0.0127  0.1722 -0.0085
  809POPS   PO412536  16.083  15.483   5.738 -0.2003  0.2740 -0.0488
  809POPS   GL112537  16.067  15.260   6.221 -0.0779 -0.2177  0.1485
  809POPS   GL212538  15.811  15.108   6.160  0.2589 -0.0590 -0.1202
  809POPS   C1A12539  16.411  15.237   6.504  0.0840  0.0049  0.0258
  809POPS   D2A12540  16.812  15.391   6.742 -0.2311  0.1328  0.0306
  809POPS   C3A12541  16.877  15.433   7.026  0.2688  0.0783  0.1226
  809POPS   C4A12542  16.678  15.411   7.353  0.0444 -0.2331 -0.1384
  809POPS   C1B12543  15.768  14.863   6.553  0.0657  0.0474 -0.0475
  809POPS   C2B12544  15.497  15.038   7.011  0.1228 -0.1148  0.2480
  809POPS   C3B12545  15.280  15.274   7.359  0.2142 -0.1743  0.2157
  809POPS   C4B12546  15.388  15.694   7.508  0.0011 -0.1864 -0.2073
  810POPS   CNO12547  13.998  15.886   5.424 -0.1387  0.0722  0.0216
  810POPS   PO412548  14.379  15.742   5.718 -0.1464  0.2721  0.0735
  810POPS   GL112549  14.346  15.771   6.087 -0.0664 -0.0276 -0.0459
  810POPS   GL212550  14.393  15.485   6.216  0.0184  0.5361  0.1487
  810POPS   C1A12551  14.398  15.843   6.536 -0.0002  0.1314 -0.1111
  810POPS   D2A12552  14.402  16.164   6.842  0.1765 -0.0623 -0.2984
  810POPS   C3A12553  14.117  16.293   7.172  0.2882  0.0363  0.0282
  810POPS   C4A12554  14.138  16.637   7.420  0.0091 -0.0511  0.1427
  810POPS   C1B12555  14.398  15.281   6.616  0.4182 -0.0429  0.1069
  810POPS   C2B12556  14.388  15.128   6.967 -0.0259  0.0870  0.0375
  810POPS   C3B12557  14.175  14.700   7.082 -0.0368  0.0964  0.1020
  810POPS   C4B12558  14.260  14.235   7.186 -0.0071  0.0160 -0.0887
  811POPS   CNO12559   1.511   8.176   5.358  0.3634 -0.0360  0.0603
  811POPS   PO412560   1.864   8.262   5.645  0.1988 -0.2135 -0.0259
  811POPS   GL112561   2.074   8.642   5.852 -0.4315 -0.2421  0.1131
  811POPS   GL212562   1.991   8.926   5.940 -0.1606  0.0941  0.1690
  811POPS   C1A12563   2.520   8.671   5.937 -0.1111  0.2031 -0.0206
  811POPS   D2A12564   2.766   9.053   6.062 -0.0197 -0.0918  0.0571
  811POPS   C3A12565   3.161   9.267   6.310 -0.2283  0.2101 -0.1902
  811POPS   C4A12566   3.584   9.139   6.425 -0.3156  0.0333 -0.2838
  811POPS   C1B12567   1.915   9.056   6.397 -0.1364 -0.1231 -0.1207
  811POPS   C2B12568   2.104   9.169   6.743 -0.0254 -0.0605 -0.2301
  811POPS   C3B12569   2.289   8.914   7.051 -0.0450 -0.0353  0.2267
  811POPS   C4B12570   2.243   8.645   7.450 -0.0621  0.1243 -0.1195
  812POPS   CNO12571   9.379   1.522   5.249  0.0483 -0.2448 -0.0305
  812POPS   PO412572   9.626   1.697   5.585 -0.2068  0.1285  0.0565
  812POPS   GL112573   9.421   1.595   5.937 -0.2154 -0.1683  0.0193
  812POPS   GL212574   9.176   1.847   6.117  0.0409  0.1097 -0.0061
  812POPS   C1A12575   9.386   1.503   6.413  0.2866  0.2218 -0.1272
  812POPS   D2A12576   9.363   1.261   6.846  0.0886 -0.3992 -0.1442
  812POPS   C3A12577   8.944   1.086   7.048  0.1683 -0.0312  0.4597
  812POPS   C4A12578   8.567   0.952   7.322  0.1104  0.1155 -0.1159
  812POPS   C1B12579   9.094   1.926   6.499  0.1354 -0.1224 -0.2383
  812POPS   C2B12580   9.013   2.325   6.748 -0.1790  0.0679  0.2060
  812POPS   C3B12581   8.981   2.614   6.958 -0.1379 -0.2024  0.2565
  812POPS   C4B12582   9.153   2.335   7.348 -0.0180  0.1495  0.1235
  813POPS   CNO12583   0.205  14.276   5.306 -0.1149  0.1571 -0.2618
  813POPS   PO412584   0.613  14.236   5.506  0.2521  0.0468  0.0543
  813POPS   GL112585   0.783  14.508   5.823  0.0241 -0.1422 -0.1776
  813POPS   GL212586   1.170  14.391   5.896  0.1257  0.0333  0.0328
  813POPS   C1A12587   0.699  14.589   6.258 -0.2407  0.3038 -0.0454
  813POPS   D2A12588   0.669  14.497   6.699 -0.3011 -0.4570 -0.2179
  813POPS   C3A12589   1.023  14.742   6.872 -0.1394 -0.1366 -0.1169
  813POPS   C4A12590   1.128  14.804   7.384  0.0533 -0.1222  0.1705
  813POPS   C1B12591   1.149  14.470   6.230  0.0708  0.1085  0.0866
  813POPS   C2B12592   0.864  14.068   6.476  0.0537  0.0206  0.0256
  813POPS   C3B12593   0.713  13.944   6.890  0.0567  0.0977  0.2542
  813POPS   C4B12594   0.895  13.774   7.197 -0.0008  0.2891  0.0412
  814YOPS   CNO12595  11.719  13.080   5.139 -0.1402  0.2250 -0.0953
  814YOPS   PO412596  12.012  12.832   5.396 -0.1885  0.2714  0.0230
  814YOPS   GL112597  11.848  13.131   5.675  0.1806 -0.2598 -0.2542
  814YOPS   GL212598  11.934  13.322   6.020  0.1909 -0.0452  0.1649
  814YOPS   C1A12599  11.608  12.973   6.060 -0.2228  0.0788 -0.0585
  814YOPS   D2A12600  11.315  12.705   6.219  0.0650  0.0614 -0.0840
  814YOPS   C3A12601  11.303  12.453   6.634  0.0643  0.2085  0.0756
  814YOPS   C4A12602  11.603  12.783   6.974 -0.0489 -0.1039 -0.0513
  814YOPS   C1B12603  11.608  13.427   6.308  0.2068 -0.3182 -0.0888
  814YOPS   C2B12604  11.326  13.603   6.615  0.0437 -0.4789  0.0969
  814YOPS   D3B12605  10.934  13.699   6.591  0.2145  0.0245  0.0211
  814YOPS   C4B12606  10.554  13.405   6.794 -0.1930 -0.1936  0.0132
  815YOPS   CNO12607  15.878   6.920   5.745 -0.0052 -0.1690 -0.2921
  815YOPS   PO412608  15.455   7.011   5.989  0.0058  0.1636 -0.2939
  815YOPS   GL112609  15.230   6.915   6.364 -0.3352 -0.3517  0.0967
  815YOPS   GL212610  15.434   7.228   6.502  0.1032 -0.0928 -0.2174
  815YOPS   C1A12611  15.231   6.789   6.793 -0.0261  0.0843  0.0036
  815YOPS   D2A12612  15.355   6.531   7.170 -0.1852  0.0812 -0.2166
  815YOPS   C3A12613  15.749   6.457   7.226 -0.1447 -0.3096 -0.2124
  815YOPS   C4A12614  16.030   6.230   7.541  0.0163 -0.0476  0.0372
  815YOPS   C1B12615  15.492   7.500   6.926 -0.0988  0.1620  0.0139
  815YOPS   C2B12616  15.770   7.806   7.199 -0.2138 -0.1449  0.0180
  815YOPS   D3B12617  15.818   8.044   7.538  0.1284  0.1955  0.0693
  815YOPS   C4B12618  16.209   8.136   7.639  0.0427  0.0956 -0.0294
  816YOPS   CNO12619  14.637  12.252   6.096 -0.2731  0.1652  0.2760
  816YOPS   PO412620  14.884  11.997   5.741  0.1052 -0.0620 -0.1062
  816YOPS   GL112621  15.118  11.942   6.189 -0.2065  0.0779  0.2841
  816YOPS   GL212622  15.352  11.768   6.496 -0.2994  0.5580 -0.0439
  816YOPS   C1A12623  15.098  12.159   6.636  0.0510 -0.1252  0.0040
  816YOPS   D2A12624  14.921  12.345   6.988  0.0477  0.2017 -0.2151
  816YOPS   C3A12625  14.880  12.574   7.322  0.0549  0.1221 -0.2826
  816YOPS   C4A12626  15.064  12.367   7.665  0.1337 -0.1405 -0.0451
  816YOPS   C1B12627  15.246  11.655   6.870 -0.2519 -0.1970  0.0506
  816YOPS   C2B12628  15.269  12.022   7.085  0.0214 -0.1397 -0.0531
  816YOPS   D3B12629  15.503  12.168   7.356 -0.0975  0.0119 -0.1520
  816YOPS   C4B12630  15.453  11.985   7.812  0.0346 -0.2118  0.2181
  817YOPS   CNO12631   2.078   4.862   6.492 -0.1146 -0.1074 -0.1713
  817YOPS   PO412632   1.989   5.193   6.197  0.2337  0.0649 -0.0300
  817YOPS   GL112633   2.074   5.465   6.495 -0.0676 -0.3520  0.1249
  817YOPS   GL212634   2.346   5.543   6.561 -0.1208 -0.0671  0.3701
  817YOPS   C1A12635   1.950   5.602   6.942  0.0603 -0.0718 -0.2077
  817YOPS   D2A12636   1.796   5.794   7.380  0.0613  0.1573  0.3790
  817YOPS   C3A12637   1.484   5.574   7.659 -0.2839  0.1138  0.0355
  817YOPS   C4A12638   1.045   5.585   7.813 -0.3338  0.0467  0.4339
  817YOPS   C1B12639   2.349   5.173   6.848 -0.3012 -0.2338  0.0814
  817YOPS   C2B12640   2.683   5.015   7.088  0.3649 -0.2489  0.0237
  817YOPS   D3B12641   3.087   5.053   7.107  0.0003 -0.0466  0.1532
  817YOPS   C4B12642   3.093   5.300   7.392  0.1964 -0.2255  0.0890
  818YOPS   CNO12643   6.502  16.584   5.270  0.1926 -0.0991 -0.0560
  818YOPS   PO412644   6.805  16.193   5.204 -0.1325 -0.0701  0.3539
  818YOPS   GL112645   6.821  16.219   5.553  0.2977  0.2563 -0.0777
  818YOPS   GL212646   6.817  16.469   5.674 -0.1440  0.1909 -0.0109
  818YOPS   C1A12647   6.916  15.825   5.771 -0.0244  0.2452  0.2668
  818YOPS   D2A12648   6.694  15.486   5.905  0.1724  0.2649  0.3164
  818YOPS   C3A12649   6.386  15.502   6.193  0.1401 -0.0789  0.1153
  818YOPS   C4A12650   6.578  15.526   6.547  0.1364  0.1572  0.1469
  818YOPS   C1B12651   6.739  16.178   6.069  0.1900 -0.3900 -0.0095
  818YOPS   C2B12652   6.977  15.882   6.275  0.0229  0.1429  0.2210
  818YOPS   D3B12653   7.232  15.555   6.334  0.3428 -0.2905 -0.0436
  818YOPS   C4B12654   7.333  15.477   6.757 -0.1178 -0.3654  0.0965
  819YOPS   CNO12655   3.529  11.409   5.807  0.1133 -0.3030 -0.1769
  819YOPS   PO412656   3.336  11.778   5.669 -0.3404 -0.2865  0.1699
  819YOPS   GL112657   3.303  11.962   6.028  0.0528 -0.4413 -0.2027
  819YOPS   GL212658   3.129  11.691   6.149 -0.3595  0.0367 -0.0043
  819YOPS   C1A12659   3.376  12.021   6.470  0.0129  0.4448 -0.1087
  819YOPS   D2A12660   3.499  12.036   6.908 -0.0563 -0.1656  0.1164
  819YOPS   C3A12661   3.708  12.064   7.282  0.0527 -0.4894  0.3426
  819YOPS   C4A12662   3.856  12.413   7.490  0.2120  0.0140 -0.3181
  819YOPS   C1B12663   3.178  11.576   6.663  0.0698  0.0221  0.0971
  819YOPS   C2B12664   3.453  11.487   6.971  0.3314  0.1732 -0.2765
  819YOPS   D3B12665   3.443  11.161   7.376 -0.0488 -0.3276 -0.2226
  819YOPS   C4B12666   3.657  10.870   7.614  0.1778 -0.1793  0.0717
  820YOPS   CNO12667   7.396  12.866   5.093  0.1773 -0.2457  0.1362
  820YOPS   PO412668   7.339  13.122   5.564  0.1724  0.0710 -0.1279
  820YOPS   GL112669   7.452  13.136   5.917 -0.0278 -0.2121 -0.2115
  820YOPS   GL212670   7.547  12.750   5.993 -0.0012  0.0552  0.0984
  820YOPS   C1A12671   7.623  13.201   6.285  0.0246 -0.1427  0.2686
  820YOPS   D2A12672   7.653  13.535   6.605  0.0428 -0.0323  0.0228
  820YOPS   C3A12673   7.750  13.819   6.816 -0.0923 -0.1538  0.3586
  820YOPS   C4A12674   8.155  14.000   6.961  0.0474  0.2073  0.0992
  820YOPS   C1B12675   7.265  12.837   6.378 -0.2830 -0.1797  0.1076
  820YOPS   C2B12676   7.181  13.198   6.559 -0.0325  0.0201  0.1314
  820YOPS   D3B12677   7.295  13.436   6.919  0.4253  0.0831 -0.1349
  820YOPS   C4B12678   7.343  13.672   7.262 -0.0213 -0.0416  0.0151
  821YOPS   CNO12679   2.700   9.437   5.387 -0.1027 -0.0999 -0.2601
  821YOPS   PO412680   2.428   9.743   5.368  0.1956  0.1191  0.1568
  821YOPS   GL112681   2.224   9.580   5.820 -0.1254  0.1403  0.1900
  821YOPS   GL212682   1.917   9.397   5.960 -0.0032 -0.0616  0.2940
  821YOPS   C1A12683   2.433   9.852   6.222  0.0032  0.4993  0.2145
  821YOPS   D2A12684   2.147  10.095   6.566 -0.1974  0.1567  0.0794
  821YOPS   C3A12685   2.135  10.110   6.995 -0.3514  0.2007  0.1343
  821YOPS   C4A12686   2.573  10.159   7.012 -0.0612  0.2915  0.0036
  821YOPS   C1B12687   1.988   9.583   6.426  0.0809  0.5247  0.0802
  821YOPS   C2B12688   2.358   9.621   6.761  0.1194  0.1426  0.0216
  821YOPS   D3B12689   2.454   9.663   7.209 -0.0048 -0.0727  0.0119
  821YOPS   C4B12690   2.503   9.522   7.524  0.0440 -0.2137 -0.0410
  822YOPS   CNO12691   9.504   5.527   5.456  0.2393 -0.1306 -0.3612
  822YOPS   PO412692   9.885   5.808   5.445  0.1451  0.2697 -0.0469
  822YOPS   GL112693   9.838   5.955   5.808  0.1982  0.1967 -0.0638
  822YOPS   GL212694   9.557   5.868   5.908  0.2758  0.1711 -0.0621
  822YOPS   C1A12695   9.862   6.219   6.112 -0.3835 -0.0501 -0.1179
  822YOPS   D2A12696   9.555   6.401   6.387  0.2359 -0.0250  0.2168
  822YOPS   C3A12697   9.239   6.410   6.707 -0.1701  0.1331  0.1101
  822YOPS   C4A12698   9.399   6.337   7.075 -0.1800  0.0566  0.3205
  822YOPS   C1B12699   9.700   5.889   6.382 -0.0732  0.1271 -0.0457
  822YOPS   C2B12700   9.450   5.930   6.682 -0.3041 -0.3208 -0.2299
  822YOPS   D3B12701   9.021   5.944   6.938 -0.0828 -0.0809  0.0409
  822YOPS   C4B12702   9.162   5.921   7.294  0.1905 -0.3451 -0.1782
  823YOPS   CNO12703   0.735  15.937   5.249 -0.2936  0.0452 -0.0405
  823YOPS   PO412704   0.880  15.515   5.216 -0.1531 -0.2079  0.0563
  823YOPS   GL112705   1.067  15.346   5.618  0.1132  0.2938 -0.5005
  823YOPS   GL212706   0.867  15.008   5.668 -0.4515 -0.0371 -0.0746
  823YOPS   C1A12707   1.266  15.378   6.052  0.1159 -0.4010 -0.1403
  823YOPS   D2A12708   1.326  15.781   6.107 -0.1208 -0.2698  0.1991
  823YOPS   C3A12709   1.412  16.263   6.073  0.1213  0.0273 -0.0780
  823YOPS   C4A12710   1.172  16.527   5.755  0.0847  0.1792  0.0733
  823YOPS   C1B12711   0.878  15.009   6.033  0.1041  0.0150 -0.1489
  823YOPS   C2B12712   0.980  15.122   6.505  0.0236 -0.2601  0.1135
  823YOPS   D3B12713   1.346  15.284   6.805  0.0432  0.0244  0.4656
  823YOPS   C4B12714   1.412  15.672   6.613  0.0142  0.0232  0.0318
  824YOPS   CNO12715   7.088  17.612   5.090  0.0402 -0.0544  0.2535
  824YOPS   PO412716   6.953  17.342   5.366 -0.2253  0.3004  0.0926
  824YOPS   GL112717   7.149  17.501   5.688 -0.1683 -0.0374  0.0220
  824YOPS   GL212718   7.288  17.734   5.546 -0.4756 -0.0040 -0.1229
  824YOPS   C1A12719   7.051  17.727   6.126  0.0793 -0.1907 -0.1380
  824YOPS   D2A12720   7.037  17.953   6.452  0.2355 -0.0571 -0.2613
  824YOPS   C3A12721   7.253  18.290   6.669  0.0339  0.3429  0.0091
  824YOPS   C4A12722   7.456  18.575   6.963 -0.1914  0.3308 -0.0463
  824YOPS   C1B12723   7.480  17.518   5.988  0.1354 -0.2427 -0.2813
  824YOPS   C2B12724   7.617  17.326   6.402 -0.0013 -0.4123 -0.1020
  824YOPS   D3B12725   7.488  17.253   6.799 -0.2813 -0.0780  0.2339
  824YOPS   C4B12726   7.583  17.455   7.215  0.0846  0.0947 -0.1159
  825YOPS   CNO12727  11.098   0.037   4.876 -0.0183  0.2487  0.0717
  825YOPS   PO412728  11.341   0.113   5.340  0.3471  0.1582  0.0199
  825YOPS   GL112729  11.509   0.284   5.731 -0.1349 -0.0426  0.0846
  825YOPS   GL212730  11.313   0.067   5.877  0.0053  0.2062 -0.0118
  825YOPS   C1A12731  11.560   0.457   6.195 -0.0352  0.0555  0.2722
  825YOPS   D2A12732  11.564   0.259   6.597 -0.2352 -0.0487 -0.0988
  825YOPS   C3A12733  11.569   0.275   7.020 -0.1245 -0.0741 -0.1696
  825YOPS   C4A12734  11.197  -0.066   6.998 -0.2332  0.0143  0.3293
  825YOPS   C1B12735  11.307  -0.073   6.273 -0.2652  0.2478 -0.0336
  825YOPS   C2B12736  11.163  -0.331   6.570 -0.0515 -0.0624  0.2482
  825YOPS   D3B12737  11.214  -0.663   6.856 -0.0714 -0.2021 -0.3303
  825YOPS   C4B12738  11.440  -0.706   7.216  0.1799  0.0734 -0.0955
  826YOPS   CNO12739   8.848   1.977   5.670  0.2034  0.0647 -0.2715
  826YOPS   PO412740   9.226   2.219   5.709 -0.1397  0.0768 -0.2313
  826YOPS   GL112741   9.627   2.122   6.061 -0.4764 -0.1636  0.1143
  826YOPS   GL212742   9.931   1.950   5.943  0.1174  0.1014 -0.2791
  826YOPS   C1A12743   9.549   2.027   6.519  0.1489 -0.1204  0.1199
  826YOPS   D2A12744   9.392   1.880   6.910 -0.1266  0.1848 -0.0889
  826YOPS   C3A12745   9.268   1.755   7.339 -0.1380 -0.2800  0.2269
  826YOPS   C4A12746   8.935   1.948   7.673  0.0831  0.0456 -0.0924
  826YOPS   C1B12747   9.807   1.687   6.309  0.3800 -0.0774 -0.2695
  826YOPS   C2B12748   9.861   1.432   6.724 -0.0499  0.1813  0.1252
  826YOPS   D3B12749   9.815   1.172   6.995 -0.3361 -0.3331 -0.1519
  826YOPS   C4B12750   9.447   1.253   7.366  0.1598  0.1032 -0.1400
  827YOPS   CNO12751   1.904  12.088   5.206 -0.3283 -0.0869  0.0709
  827YOPS   PO412752   2.337  12.148   5.476  0.3276  0.0557 -0.0150
  827YOPS   GL112753   2.549  12.232   5.955  0.1128  0.0325  0.2331
  827YOPS   GL212754   2.910  12.369   6.032  0.2776  0.0573  0.0433
  827YOPS   C1A12755   2.472  12.445   6.276 -0.1255  0.1519  0.2242
  827YOPS   D2A12756   2.511  12.824   6.614  0.0041  0.1732  0.2435
  827YOPS   C3A12757   2.463  13.181   6.838  0.3231  0.0848 -0.0435
  827YOPS   C4A12758   2.816  13.380   7.059 -0.1631  0.1601  0.0096
  827YOPS   C1B12759   2.895  12.504   6.498  0.2536 -0.0257 -0.1824
  827YOPS   C2B12760   2.802  12.551   7.027 -0.0963  0.0328 -0.2843
  827YOPS   D3B12761   2.450  12.232   7.171 -0.0996 -0.0385 -0.1674
  827YOPS   C4B12762   2.401  11.875   7.145  0.0183  0.3666  0.2105
  828YOPS   CNO12763  12.673   4.937   4.926 -0.0245 -0.2442 -0.1071
  828YOPS   PO412764  12.622   5.165   5.272  0.0787 -0.3573  0.2422
  828YOPS   GL112765  12.390   5.071   5.627  0.1734  0.0099 -0.3054
  828YOPS   GL212766  12.431   4.764   5.758 -0.2545 -0.1438  0.0963
  828YOPS   C1A12767  12.284   5.409   5.882 -0.0601  0.3152 -0.0411
  828YOPS   D2A12768  12.190   5.509   6.356 -0.1597 -0.1796  0.1402
  828YOPS   C3A12769  12.003   5.273   6.840  0.1134  0.0576  0.2270
  828YOPS   C4A12770  11.758   5.573   7.135  0.3093 -0.2044  0.1610
  828YOPS   C1B12771  12.308   4.943   6.123 -0.0728 -0.1661  0.2325
  828YOPS   C2B12772  12.587   4.924   6.526  0.0843 -0.3603  0.2168
  828YOPS   D3B12773  12.876   4.762   6.797 -0.1091 -0.3276  0.0903
  828YOPS   C4B12774  12.867   4.790   7.156 -0.0690  0.0476 -0.1222
  829YOPS   CNO12775   3.661   3.410   6.032  0.3524  0.2047 -0.2429
  829YOPS   PO412776   3.408   3.403   5.689  0.0095 -0.3422 -0.1574
  829YOPS   GL112777   3.263   3.706   6.046  0.0226  0.0581 -0.1513
  829YOPS   GL212778   3.129   3.950   6.099  0.2343 -0.0413 -0.0161
  829YOPS   C1A12779   3.348   3.650   6.480  0.3543 -0.3324  0.1892
  829YOPS   D2A12780   3.666   3.543   6.680  0.1837 -0.2013 -0.1619
  829YOPS   C3A12781   3.856   3.555   7.082 -0.0123  0.2154 -0.0797
  829YOPS   C4A12782   4.244   3.394   7.290 -0.1951  0.1806  0.0878
  829YOPS   C1B12783   3.396   4.173   6.416  0.2333  0.0990  0.0348
  829YOPS   C2B12784   3.427   4.015   6.819  0.1208 -0.2116  0.3806
  829YOPS   D3B12785   3.417   4.110   7.202 -0.0687  0.1020  0.1120
  829YOPS   C4B12786   3.111   4.005   7.578  0.2914  0.2634 -0.0495
  830YOPS   CNO12787  15.552   3.284   5.465  0.2941 -0.0873 -0.5477
  830YOPS   PO412788  15.192   3.209   5.784 -0.0251 -0.0817  0.3428
  830YOPS   GL112789  15.239   3.113   6.177  0.1453  0.2098  0.0556
  830YOPS   GL212790  15.279   3.435   6.267  0.2379 -0.0495  0.2518
  830YOPS   C1A12791  15.182   3.078   6.582 -0.0388  0.2090  0.2028
  830YOPS   D2A12792  15.179   3.184   6.991 -0.3320 -0.1259 -0.2110
  830YOPS   C3A12793  14.981   2.960   7.409 -0.1929  0.1354 -0.2409
  830YOPS   C4A12794  14.983   2.621   7.813 -0.2624  0.2767 -0.0611
  830YOPS   C1B12795  15.388   3.640   6.627  0.1050  0.0389 -0.4323
  830YOPS   C2B12796  15.734   3.562   6.957 -0.5733 -0.1166  0.1495
  830YOPS   D3B12797  16.073   3.376   7.048  0.0433 -0.1203  0.2762
  830YOPS   C4B12798  16.177   3.027   7.198  0.0968 -0.0291 -0.1558
  831YOPS   CNO12799   7.509   4.454   5.789  0.0662 -0.0594 -0.1029
  831YOPS   PO412800   7.191   4.436   5.619  0.1685  0.1892  0.0707
  831YOPS   GL112801   7.032   4.494   5.946 -0.0612 -0.2450 -0.4224
  831YOPS   GL212802   6.976   4.339   6.358  0.1810  0.0808 -0.2422
  831YOPS   C1A12803   7.072   4.875   6.251 -0.0189  0.1863 -0.0840
  831YOPS   D2A12804   7.254   4.735   6.648 -0.2441 -0.1501 -0.0883
  831YOPS   C3A12805   7.314   4.362   6.928  0.0448 -0.1294  0.2418
  831YOPS   C4A12806   7.641   4.232   7.149 -0.0264  0.0137  0.1777
  831YOPS   C1B12807   7.271   4.119   6.230 -0.0286  0.2177 -0.0135
  831YOPS   C2B12808   7.377   3.655   6.146 -0.2313  0.0638  0.0296
  831YOPS   D3B12809   7.584   3.257   6.046 -0.0743  0.0525  0.0322
  831YOPS   C4B12810   7.849   3.308   6.274 -0.1421  0.3176  0.2107
  832YOPS   CNO12811   8.778  11.761   5.360 -0.0138 -0.0220  0.2258
  832YOPS   PO412812   8.262  11.830   5.526  0.2070 -0.3233 -0.0753
  832YOPS   GL112813   8.232  12.004   5.939  0.1809 -0.0278  0.0320
  832YOPS   GL212814   7.937  11.956   6.103  0.0704  0.0535  0.0480
  832YOPS   C1A12815   8.410  11.942   6.417  0.2165 -0.2650 -0.1051
  832YOPS   D2A12816   8.835  12.131   6.593 -0.0284  0.1185  0.1355
  832YOPS   C3A12817   9.266  12.031   6.852  0.0036 -0.0303 -0.1105
  832YOPS   C4A12818   9.367  12.408   7.090 -0.1169 -0.3492 -0.1088
  832YOPS   C1B12819   7.797  11.990   6.473 -0.1114 -0.0536 -0.2425
  832YOPS   C2B12820   7.517  12.052   6.856 -0.1838  0.2407 -0.0104
  832YOPS   D3B12821   7.427  11.805   7.137  0.0843 -0.0317  0.2112
  832YOPS   C4B12822   7.355  12.031   7.592  0.1355 -0.2019  0.0311
  833YOPS   CNO12823   2.221   4.706   5.476 -0.3166 -0.0039 -0.0594
  833YOPS   PO412824   2.282   4.423   5.880  0.0329  0.0744 -0.1821
  833YOPS   GL112825   2.261   4.090   6.242 -0.2251 -0.6044 -0.3200
  833YOPS   GL212826   1.909   4.182   6.306 -0.1401  0.0334 -0.2366
  833YOPS   C1A12827   2.366   3.976   6.706 -0.0313  0.1381 -0.2646
  833YOPS   D2A12828   2.470   4.062   7.128 -0.0076  0.3566  0.0965
  833YOPS   C3A12829   2.637   4.059   7.492 -0.0558 -0.2063  0.1759
  833YOPS   C4A12830   2.333   4.217   7.779  0.0566  0.4049  0.3023
  833YOPS   C1B12831   1.905   3.819   6.514  0.0676  0.4317 -0.0585
  833YOPS   C2B12832   2.107   3.572   6.787 -0.2088  0.1265 -0.1593
  833YOPS   D3B12833   2.194   3.128   6.708  0.1426 -0.1033 -0.1596
  833YOPS   C4B12834   2.512   2.996   7.005  0.1313 -0.1322  0.2399
  834YOPS   CNO12835  12.386   3.832   5.379 -0.2889  0.0033  0.3792
  834YOPS   PO412836  12.554   4.114   5.392 -0.0804  0.3041  0.1111
  834YOPS   GL112837  12.539   4.033   5.885 -0.2247  0.2805 -0.0122
  834YOPS   GL212838  12.290   3.877   6.017  0.2475  0.0181 -0.0936
  834YOPS   C1A12839  12.668   3.977   6.283  0.0337 -0.1483 -0.3020
  834YOPS   D2A12840  12.869   3.908   6.580 -0.1005 -0.2981  0.0138
  834YOPS   C3A12841  12.928   3.510   6.827 -0.1923  0.3125 -0.0558
  834YOPS   C4A12842  13.283   3.355   7.008  0.0510 -0.1065 -0.0077
  834YOPS   C1B12843  12.288   3.484   5.939  0.0378  0.2199 -0.1555
  834YOPS   C2B12844  12.425   3.032   6.075  0.1100  0.5527 -0.0117
  834YOPS   D3B12845  12.719   2.966   6.290 -0.2076 -0.1745 -0.2048
  834YOPS   C4B12846  12.736   3.005   6.711  0.0515  0.0467  0.0702
  835YOPS   CNO12847   3.513   0.649   5.175  0.0873  0.0679 -0.1820
  835YOPS   PO412848   3.049   0.770   5.407 -0.3316 -0.2064 -0.2392
  835YOPS   GL112849   2.907   0.780   5.768 -0.1827 -0.2791  0.0818
  835YOPS   GL212850   2.745   0.548   5.933 -0.0533 -0.2723  0.0166
  835YOPS   C1A12851   3.190   0.616   6.121  0.1590  0.2381 -0.1663
  835YOPS   D2A12852   3.345   0.380   6.423  0.0455 -0.2666 -0.0323
  835YOPS   C3A12853   3.409   0.348   6.916 -0.1129  0.0126  0.0302
  835YOPS   C4A12854   3.670   0.717   7.164  0.0111  0.1878  0.0366
  835YOPS   C1B12855   2.714   0.475   6.334 -0.0485 -0.3196 -0.2376
  835YOPS   C2B12856   2.517   0.301   6.700  0.1780  0.0342 -0.3738
  835YOPS   D3B12857   2.336   0.497   7.061 -0.0486  0.1881  0.2855
  835YOPS   C4B12858   2.129   0.235   7.453  0.0450 -0.0358 -0.2787
  836YOPS   CNO12859   8.293  18.499   4.937 -0.1255  0.4154 -0.1917
  836YOPS   PO412860   7.961  18.312   5.146  0.1057 -0.1935 -0.3276
  836YOPS   GL112861   7.846  18.286   5.579 -0.1386  0.0086  0.0248
  836YOPS   GL212862   7.474  18.264   5.741  0.1250  0.0068  0.1669
  836YOPS   C1A12863   7.990  18.353   5.950  0.0266 -0.2734  0.0950
  836YOPS   D2A12864   8.061  18.268   6.371 -0.0775 -0.0259  0.0202
  836YOPS   C3A12865   8.325  18.356   6.670  0.3241  0.1778 -0.2946
  836YOPS   C4A12866   8.776  18.224   6.861  0.1224  0.1565 -0.2164
  836YOPS   C1B12867   7.477  18.004   6.050  0.0150  0.0546 -0.1414
  836YOPS   C2B12868   7.575  17.840   6.460  0.0205  0.2992 -0.1363
  836YOPS   D3B12869   7.275  17.793   6.853  0.0492  0.2092  0.1395
  836YOPS   C4B12870   7.294  18.031   7.149 -0.2353  0.2490 -0.0764
  837YOPS   CNO12871  18.150  11.626   5.651  0.0968 -0.0665 -0.2353
  837YOPS   PO412872  18.674  11.629   5.509  0.2186 -0.4881  0.1014
  837YOPS   GL112873  18.585  11.490   5.992  0.0637  0.1290  0.1704
  837YOPS   GL212874  18.167  11.442   6.101 -0.0271  0.0345  0.1902
  837YOPS   C1A12875  18.569  11.450   6.446  0.0279 -0.0248 -0.3325
  837YOPS   D2A12876  18.798  11.455   6.770  0.0323  0.3181 -0.0703
  837YOPS   C3A12877  19.021  11.500   7.057 -0.0319 -0.1276 -0.2024
  837YOPS   C4A12878  19.545  11.558   7.038 -0.3040  0.2169  0.1668
  837YOPS   C1B12879  18.108  11.476   6.557  0.0222 -0.1600  0.0260
  837YOPS   C2B12880  17.958  11.847   6.862  0.2418 -0.0081 -0.0677
  837YOPS   D3B12881  17.999  11.980   7.269  0.0511  0.1426  0.0069
  837YOPS   C4B12882  18.315  11.777   7.544 -0.1283 -0.1770  0.2209
  838YOPS   CNO12883  16.966  15.348   5.442  0.2116  0.0115 -0.0195
  838YOPS   PO412884  16.825  15.183   5.757 -0.3512  0.2263  0.0848
  838YOPS   GL112885  16.858  15.042   6.171 -0.1047  0.0736 -0.2521
  838YOPS   GL212886  16.955  15.337   6.253 -0.1532 -0.1384 -0.2098
  838YOPS   C1A12887  16.814  14.779   6.587 -0.1117  0.1334  0.0154
  838YOPS   D2A12888  16.727  14.563   6.930 -0.2319 -0.2040 -0.0469
  838YOPS   C3A12889  16.822  14.191   7.117 -0.3922  0.2110 -0.2472
  838YOPS   C4A12890  16.925  14.465   7.372  0.1445  0.0708 -0.0958
  838YOPS   C1B12891  17.310  15.425   6.563  0.1089  0.0909  0.4610
  838YOPS   C2B12892  17.382  15.442   7.021 -0.1508  0.3439  0.1515
  838YOPS   D3B12893  17.249  15.404   7.332 -0.1070  0.1297  0.0494
  838YOPS   C4B12894  17.280  15.576   7.702  0.2880 -0.1042 -0.0082
  839YOPS   CNO12895   3.582  10.656   5.405 -0.2773  0.1323  0.0566
  839YOPS   PO412896   3.327  10.961   5.309 -0.0264  0.1584 -0.0930
  839YOPS   GL112897   3.316  10.886   5.765 -0.1953  0.0379  0.1238
  839YOPS   GL212898   3.629  10.919   5.896  0.3842 -0.0004 -0.2843
  839YOPS   C1A12899   3.178  10.569   5.966  0.0293 -0.0267 -0.0982
  839YOPS   D2A12900   3.077  10.577   6.412  0.1951 -0.2183  0.1078
  839YOPS   C3A12901   2.821  10.540   6.839 -0.0340  0.0628 -0.1834
  839YOPS   C4A12902   2.986  10.315   7.137  0.0348 -0.3947 -0.0514
  839YOPS   C1B12903   3.797  10.742   6.346  0.0440 -0.0630 -0.0790
  839YOPS   C2B12904   3.639  10.385   6.646  0.1845  0.0469 -0.0619
  839YOPS   D3B12905   3.421  10.142   7.022 -0.0057  0.1600  0.0703
  839YOPS   C4B12906   3.472   9.833   7.224  0.1313  0.1408 -0.1846
  840YOPS   CNO12907   1.970   2.858   5.034  0.0922 -0.1979  0.3883
  840YOPS   PO412908   2.110   2.799   5.520  0.0179 -0.0169 -0.0515
  840YOPS   GL112909   2.372   2.819   5.853  0.0161 -0.0013 -0.0369
  840YOPS   GL212910   2.157   2.657   6.072 -0.0726  0.0297  0.0746
  840YOPS   C1A12911   2.613   3.019   6.117 -0.1502  0.1041 -0.2005
  840YOPS   D2A12912   2.787   3.118   6.597  0.2108  0.0997  0.0423
  840YOPS   C3A12913   2.570   3.484   6.827  0.1660 -0.2478  0.0690
  840YOPS   C4A12914   2.368   3.385   7.251  0.3098 -0.3572 -0.0100
  840YOPS   C1B12915   2.423   2.694   6.413 -0.2212  0.2408 -0.3171
  840YOPS   C2B12916   2.561   2.554   6.786 -0.0886 -0.0003  0.0505
  840YOPS   D3B12917   2.673   2.212   7.093 -0.0251  0.4983  0.5555
  840YOPS   C4B12918   2.767   2.257   7.550  0.1627  0.1758  0.1790
  841YOPS   CNO12919   0.790  11.385   5.277  0.0021 -0.1499 -0.0169
  841YOPS   PO412920   0.554  11.309   5.706  0.0642 -0.0427 -0.0850
  841YOPS   GL112921   0.364  11.274   6.163 -0.3498  0.1212  0.0524
  841YOPS   GL212922   0.154  11.416   6.308 -0.1245  0.1461 -0.1959
  841YOPS   C1A12923   0.588  11.055   6.446  0.2784 -0.1076  0.2073
  841YOPS   D2A12924   0.626  11.104   6.824  0.0709 -0.1375 -0.3658
  841YOPS   C3A12925   0.705  11.057   7.298 -0.0777 -0.3292 -0.1460
  841YOPS   C4A12926   0.948  11.260   7.623  0.1216 -0.2319 -0.2437
  841YOPS   C1B12927   0.428  11.575   6.591 -0.2607 -0.1026  0.0251
  841YOPS   C2B12928   0.525  11.952   6.782  0.0101 -0.1938 -0.0182
  841YOPS   D3B12929   0.830  12.126   7.066  0.0467  0.4482 -0.1545
  841YOPS   C4B12930   0.981  11.831   7.383 -0.2430  0.3638  0.1011
  842YOPS   CNO12931   1.237   4.173   5.298 -0.0015  0.0393  0.0187
  842YOPS   PO412932   1.409   4.007   5.680  0.2252  0.0938 -0.1825
  842YOPS   GL112933   1.373   3.948   6.110  0.0458 -0.1082  0.0674
  842YOPS   GL212934   1.102   3.787   6.110  0.1337  0.0029  0.2329
  842YOPS   C1A12935   1.453   4.089   6.494 -0.0207  0.0256  0.0040
  842YOPS   D2A12936   1.389   4.088   6.895 -0.1655  0.1416 -0.0212
  842YOPS   C3A12937   1.132   4.303   7.177  0.1490  0.3778  0.0186
  842YOPS   C4A12938   0.624   4.135   7.242 -0.0601  0.3240  0.1439
  842YOPS   C1B12939   1.104   3.621   6.489 -0.0377  0.2149  0.0420
  842YOPS   C2B12940   1.223   3.345   6.841 -0.5481  0.1358 -0.0997
  842YOPS   D3B12941   1.640   3.606   7.014  0.3341  0.1304 -0.2067
  842YOPS   C4B12942   1.889   4.043   6.955 -0.2023  0.1259  0.2210
  843YOPS   CNO12943  11.323  13.455   4.895 -0.0025 -0.1557  0.0761
  843YOPS   PO412944  11.042  13.603   5.216  0.0928 -0.1754 -0.3106
  843YOPS   GL112945  10.990  13.799   5.592 -0.1192  0.3475 -0.0678
  843YOPS   GL212946  11.277  13.947   5.790 -0.1029  0.2095  0.3695
  843YOPS   C1A12947  10.766  14.080   5.786 -0.0854  0.0342 -0.1253
  843YOPS   D2A12948  10.464  14.319   5.975  0.2096  0.0935 -0.1498
  843YOPS   C3A12949  10.240  14.414   6.155  0.0705  0.2885 -0.0678
  843YOPS   C4A12950   9.965  14.498   5.872  0.1458  0.2330 -0.1062
  843YOPS   C1B12951  11.414  13.853   6.173  0.0151  0.2949  0.1073
  843YOPS   C2B12952  11.347  14.086   6.515 -0.0804  0.1431  0.0091
  843YOPS   D3B12953  11.035  14.070   6.842 -0.1100  0.1781  0.0387
  843YOPS   C4B12954  10.697  13.828   7.036 -0.4228  0.1693 -0.2015
  844POPE   NH312955  18.216   0.801   5.324  0.1237 -0.0974  0.2173
  844POPE   PO412956  18.028   1.225   5.470 -0.0168 -0.1748 -0.0027
  844POPE   GL112957  18.235   1.193   5.958  0.2632 -0.4747  0.3666
  844POPE   GL212958  18.000   1.398   6.090 -0.0145  0.1435 -0.1152
  844POPE   C1A12959  18.463   1.007   6.346 -0.0294  0.0333  0.0100
  844POPE   D2A12960  18.613   0.845   6.741 -0.1040  0.4940  0.2364
  844POPE   C3A12961  18.952   0.477   6.783  0.1623  0.0295 -0.1457
  844POPE   C4A12962  19.023   0.034   6.849  0.2288  0.2976  0.0603
  844POPE   C1B12963  18.316   1.481   6.510  0.2090  0.2318  0.3402
  844POPE   C2B12964  18.659   1.393   6.798  0.3841 -0.0461 -0.0121
  844POPE   C3B12965  18.996   1.197   6.881  0.3201 -0.1952 -0.0267
  844POPE   C4B12966  19.411   1.277   7.077  0.0247  0.0191  0.1019
  845POPE   NH312967  16.418  13.795   5.950 -0.1360  0.0967 -0.3579
  845POPE   PO412968  16.460  14.189   5.930 -0.0069 -0.2281 -0.0281
  845POPE   GL112969  16.250  14.145   6.437 -0.0984  0.1221 -0.1557
  845POPE   GL212970  15.887  14.300   6.439  0.0985  0.0755  0.1147
  845POPE   C1A12971  16.359  14.268   6.849  0.0069  0.2377  0.0042
  845POPE   D2A12972  16.389  14.281   7.319 -0.2706 -0.4459 -0.1567
  845POPE   C3A12973  16.428  14.653   7.474 -0.0505  0.1285  0.0889
  845POPE   C4A12974  16.052  14.698   7.780  0.2520 -0.0651  0.2043
  845POPE   C1B12975  15.853  14.346   6.872 -0.0134 -0.2235  0.1161
  845POPE   C2B12976  15.544  14.337   7.173  0.0461 -0.0522  0.0908
  845POPE   C3B12977  15.638  14.501   7.596  0.0959 -0.0247 -0.0480
  845POPE   C4B12978  15.585  14.800   7.820  0.0819 -0.1871  0.1546
  846POPE   NH312979  15.781  12.191   5.977 -0.1178  0.0703  0.0457
  846POPE   PO412980  16.212  12.395   5.910 -0.0505  0.0651 -0.0512
  846POPE   GL112981  16.275  12.501   6.326  0.1298  0.0122  0.3087
  846POPE   GL212982  16.486  12.267   6.428  0.0245 -0.2596  0.0345
  846POPE   C1A12983  15.982  12.604   6.677  0.0693  0.3210 -0.0228
  846POPE   D2A12984  15.895  12.516   7.166 -0.2385  0.1186 -0.2006
  846POPE   C3A12985  16.276  12.527   7.434  0.0432  0.0122  0.0787
  846POPE   C4A12986  16.239  12.597   7.909  0.2360  0.0184 -0.1953
  846POPE   C1B12987  16.383  12.096   6.932  0.1919 -0.0607  0.3624
  846POPE   C2B12988  16.500  11.963   7.375  0.2700 -0.1185  0.2930
  846POPE   C3B12989  16.660  11.617   7.636  0.3184 -0.1174  0.1571
  846POPE   C4B12990  16.536  11.227   7.829  0.1557  0.4363 -0.0027
  847POPE   NH312991   9.527  18.128   5.097 -0.0790 -0.1234 -0.2200
  847POPE   PO412992   9.662  18.546   5.241  0.0926 -0.1905  0.1389
  847POPE   GL112993  10.018  18.455   5.437 -0.4111 -0.3070 -0.1279
  847POPE   GL212994  10.212  18.668   5.443  0.0146 -0.2333 -0.1444
  847POPE   C1A12995  10.165  18.208   5.708 -0.0106  0.0594 -0.3740
  847POPE   D2A12996   9.979  17.999   6.096 -0.1422 -0.0713  0.2236
  847POPE   C3A12997  10.422  18.025   6.332 -0.0647  0.0710  0.0405
  847POPE   C4A12998  10.451  18.084   6.716  0.1657 -0.0541  0.0382
  847POPE   C1B12999  10.520  19.025   5.550 -0.0613  0.0973  0.1062
  847POPE   C2B13000  10.720  18.948   5.877 -0.2809 -0.0433 -0.0512
  847POPE   C3B13001  10.758  18.813   6.230 -0.0920 -0.1648 -0.0404
  847POPE   C4B13002  10.698  18.970   6.557  0.1127 -0.3475 -0.2719
  848POPE   NH313003  15.372   8.886   5.831 -0.1459  0.3270  0.0653
  848POPE   PO413004  14.857   8.951   5.829 -0.2774  0.1315 -0.2242
  848POPE   GL113005  14.661   8.956   6.086  0.0354  0.1929  0.0868
  848POPE   GL213006  14.586   8.714   6.277  0.1522 -0.4432  0.5096
  848POPE   C1A13007  14.721   9.127   6.532 -0.1499 -0.1883  0.0987
  848POPE   D2A13008  14.787   8.904   6.877 -0.1502  0.0818  0.1006
  848POPE   C3A13009  14.579   8.934   7.253 -0.0292  0.2229  0.0019
  848POPE   C4A13010  14.473   9.217   7.578 -0.2579  0.1010 -0.0254
  848POPE   C1B13011  14.406   8.696   6.572  0.2285 -0.0465  0.0856
  848POPE   C2B13012  14.193   8.610   7.116  0.1038  0.1585 -0.0966
  848POPE   C3B13013  14.131   8.287   7.451 -0.3121  0.0022  0.1691
  848POPE   C4B13014  13.951   8.329   7.844  0.0957 -0.1805  0.0873
  849POPE   NH313015   5.721   4.696   5.347 -0.1510 -0.4645  0.0545
  849POPE   PO413016   5.829   5.081   5.524 -0.2086  0.3090  0.1386
  849POPE   GL113017   5.995   5.159   5.959 -0.1758  0.3696  0.2696
  849POPE   GL213018   5.815   5.223   6.202 -0.1666  0.2368 -0.0146
  849POPE   C1A13019   6.177   4.905   6.345 -0.1885 -0.1452  0.2545
  849POPE   D2A13020   6.288   4.992   6.785 -0.0783  0.0523 -0.3081
  849POPE   C3A13021   6.050   4.827   7.060  0.1883  0.1273  0.0358
  849POPE   C4A13022   5.824   5.060   7.248  0.2197  0.1665 -0.1779
  849POPE   C1B13023   5.476   5.367   6.551  0.3367  0.0429 -0.0132
  849POPE   C2B13024   5.406   5.240   6.975  0.0269 -0.2681  0.1155
  849POPE   C3B13025   5.521   5.500   7.348 -0.1780 -0.0035  0.1023
  849POPE   C4B13026   5.338   5.677   7.675  0.1551 -0.2692 -0.1721
  850POPE   NH313027  17.603  12.594   5.700 -0.0367  0.0772 -0.4540
  850POPE   PO413028  17.965  12.789   5.508 -0.2000  0.0193 -0.1449
  850POPE   GL113029  18.006  12.868   5.916  0.0040  0.1328  0.0567
  850POPE   GL213030  17.911  12.702   6.109 -0.3570 -0.1813  0.1063
  850POPE   C1A13031  17.914  13.192   6.237  0.2063  0.1555  0.0992
  850POPE   D2A13032  17.708  13.008   6.532  0.2657 -0.1947  0.4023
  850POPE   C3A13033  17.854  12.980   7.012 -0.0524 -0.0695  0.1119
  850POPE   C4A13034  17.773  13.294   7.295  0.0199 -0.0309  0.1053
  850POPE   C1B13035  18.142  12.751   6.503  0.4241 -0.1060 -0.0106
  850POPE   C2B13036  18.340  12.790   6.941 -0.0744 -0.0364 -0.0024
  850POPE   C3B13037  18.144  12.869   7.359 -0.2401  0.1730  0.2327
  850POPE   C4B13038  17.753  12.826   7.521 -0.3496 -0.0788 -0.0310
  851POPE   NH313039   8.223  12.324   5.450 -0.3314 -0.2996 -0.1710
  851POPE   PO413040   8.152  12.780   5.453  0.1408  0.0889 -0.4580
  851POPE   GL113041   8.554  12.694   5.658 -0.0869 -0.1232 -0.2683
  851POPE   GL213042   8.686  12.820   5.462  0.0533 -0.2729  0.1794
  851POPE   C1A13043   8.544  12.809   6.040 -0.1451  0.2633 -0.1431
  851POPE   D2A13044   8.533  13.037   6.478  0.0126  0.4337 -0.2097
  851POPE   C3A13045   8.930  13.057   6.743 -0.3284 -0.1278  0.2853
  851POPE   C4A13046   9.359  12.979   6.888 -0.2114 -0.5198  0.0023
  851POPE   C1B13047   8.841  13.106   5.825 -0.1125  0.2445 -0.3218
  851POPE   C2B13048   9.059  13.075   6.230  0.1505 -0.1521  0.0154
  851POPE   C3B13049   9.504  12.721   6.263 -0.1459  0.1375  0.4074
  851POPE   C4B13050   9.666  12.306   5.998  0.2285  0.0349  0.0405
  852POPE   NH313051   6.315   0.006   5.264 -0.0560  0.3268 -0.0364
  852POPE   PO413052   6.687   0.257   5.405 -0.0984  0.1814 -0.2716
  852POPE   GL113053   6.964   0.311   5.683  0.1011  0.0958 -0.0388
  852POPE   GL213054   7.049   0.695   5.785 -0.1389  0.1561  0.0628
  852POPE   C1A13055   6.811   0.458   6.138 -0.0755  0.0305 -0.2585
  852POPE   D2A13056   6.862   0.322   6.526 -0.0890  0.2258 -0.0977
  852POPE   C3A13057   6.998   0.535   6.847 -0.1984  0.2334  0.0333
  852POPE   C4A13058   7.183   0.570   7.194 -0.0319  0.0539  0.2811
  852POPE   C1B13059   7.195   0.754   6.365  0.1646  0.0871 -0.0205
  852POPE   C2B13060   7.457   0.996   6.611  0.0705  0.0308 -0.2224
  852POPE   C3B13061   7.249   1.067   7.029  0.6330  0.1749  0.0631
  852POPE   C4B13062   7.312   0.972   7.466 -0.1741  0.0090  0.1015
  853POPE   NH313063   6.671   6.458   5.823 -0.1318  0.1076  0.1226
  853POPE   PO413064   6.314   6.657   5.910 -0.0257 -0.2939  0.1632
  853POPE   GL113065   6.465   6.671   6.281  0.3189  0.2120  0.0844
  853POPE   GL213066   6.766   6.571   6.320  0.0266  0.0004 -0.0671
  853POPE   C1A13067   6.487   6.786   6.753  0.1271  0.0520  0.2213
  853POPE   D2A13068   6.654   7.170   6.999 -0.2325 -0.0576 -0.0225
  853POPE   C3A13069   6.344   7.385   7.339  0.3370 -0.0666  0.0667
  853POPE   C4A13070   5.904   7.681   7.363 -0.1730 -0.0786  0.2458
  853POPE   C1B13071   6.945   6.662   6.756 -0.1859 -0.3066  0.0515
  853POPE   C2B13072   7.019   6.734   7.133  0.0011 -0.1180 -0.3090
  853POPE   C3B13073   7.243   6.652   7.485 -0.1868  0.1721 -0.1381
  853POPE   C4B13074   7.549   6.739   7.731 -0.2875  0.0910  0.1811
  854POPE   NH313075  12.653  10.837   5.657  0.0959 -0.1661  0.3010
  854POPE   PO413076  12.723  11.189   5.493  0.1274  0.1173 -0.0711
  854POPE   GL113077  12.389  11.232   5.890 -0.5830  0.1344  0.4715
  854POPE   GL213078  12.249  10.987   5.932 -0.2193  0.1298  0.0255
  854POPE   C1A13079  12.101  11.396   6.188  0.3337 -0.1046 -0.0498
  854POPE   D2A13080  11.792  11.539   6.418 -0.1314 -0.2874  0.0804
  854POPE   C3A13081  11.960  11.731   6.786 -0.2188  0.0321 -0.4887
  854POPE   C4A13082  12.037  11.912   7.220  0.0296  0.3986 -0.0564
  854POPE   C1B13083  11.898  10.956   6.119  0.0999 -0.0867  0.2792
  854POPE   C2B13084  11.592  11.052   6.402 -0.2612  0.0961 -0.1334
  854POPE   C3B13085  11.281  10.921   6.613  0.0017  0.1414  0.3640
  854POPE   C4B13086  10.946  10.801   6.465  0.3538  0.3276  0.1957
  855POPE   NH313087  14.621   2.669   5.829  0.0088  0.3841  0.0685
  855POPE   PO413088  14.976   2.681   5.975 -0.3235  0.6072 -0.1489
  855POPE   GL113089  14.905   2.516   6.330 -0.1555 -0.3559  0.0836
  855POPE   GL213090  14.772   2.745   6.469 -0.0128 -0.0366  0.0164
  855POPE   C1A13091  14.771   2.369   6.777 -0.0652 -0.1247  0.0267
  855POPE   D2A13092  14.735   2.576   7.202  0.2032 -0.1103 -0.1895
  855POPE   C3A13093  14.759   2.159   7.523 -0.0464 -0.1930  0.2916
  855POPE   C4A13094  14.852   1.730   7.736 -0.2000  0.2519 -0.0110
  855POPE   C1B13095  14.711   2.989   6.875 -0.2481  0.0007 -0.3102
  855POPE   C2B13096  14.491   3.177   7.105 -0.0151  0.0939  0.0693
  855POPE   C3B13097  14.590   3.410   7.537 -0.0965 -0.0999 -0.0669
  855POPE   C4B13098  14.592   3.833   7.835 -0.2936  0.0644 -0.2066
  856POPE   NH313099  12.680   0.880   5.676  0.1989  0.1722  0.2039
  856POPE   PO413100  13.128   0.758   5.601  0.5116  0.0921 -0.4861
  856POPE   GL113101  13.410   0.686   5.909  0.2739  0.4220 -0.4757
  856POPE   GL213102  13.581   0.440   5.851  0.3751 -0.1193  0.0828
  856POPE   C1A13103  13.423   0.711   6.381 -0.0813  0.1821  0.4071
  856POPE   D2A13104  13.244   0.897   6.679  0.2959  0.3408  0.1032
  856POPE   C3A13105  13.458   0.677   6.925  0.5010 -0.0820 -0.0181
  856POPE   C4A13106  13.299   0.527   7.323 -0.0736 -0.1243 -0.2739
  856POPE   C1B13107  13.797   0.202   6.134 -0.0785  0.1864  0.1638
  856POPE   C2B13108  13.995   0.114   6.523  0.1635 -0.0806 -0.1988
  856POPE   C3B13109  14.207  -0.095   6.816 -0.4137 -0.1252  0.1568
  856POPE   C4B13110  14.213  -0.493   6.870 -0.1747 -0.0133  0.4029
  857POPE   NH313111  14.350   6.202   5.698 -0.1020 -0.0358  0.4125
  857POPE   PO413112  14.012   6.446   5.890 -0.4553 -0.0250  0.2384
  857POPE   GL113113  13.791   6.428   6.216  0.1970  0.0248 -0.0344
  857POPE   GL213114  13.545   6.115   6.350 -0.2885 -0.0423  0.1742
  857POPE   C1A13115  13.683   6.487   6.683  0.0756 -0.1216  0.0870
  857POPE   D2A13116  13.751   6.538   7.063  0.1301  0.0512 -0.0615
  857POPE   C3A13117  13.452   6.537   7.408  0.1800  0.0834 -0.1717
  857POPE   C4A13118  13.135   6.551   7.672 -0.1627  0.1602 -0.0458
  857POPE   C1B13119  13.912   6.081   6.716  0.2092 -0.3719  0.2827
  857POPE   C2B13120  13.797   6.100   7.224 -0.1166  0.2901 -0.0764
  857POPE   C3B13121  13.809   6.148   7.650  0.2217 -0.1056 -0.0657
  857POPE   C4B13122  13.573   6.361   7.974  0.5526  0.0240  0.3971
  858POPE   NH313123   5.978   6.238   5.831  0.3401  0.1256 -0.1658
  858POPE   PO413124   6.373   6.038   5.723 -0.1862 -0.0421  0.1237
  858POPE   GL113125   6.738   5.981   6.065 -0.1948 -0.1923 -0.1392
  858POPE   GL213126   7.065   6.111   5.985 -0.3161  0.0259  0.0963
  858POPE   C1A13127   6.817   5.722   6.408  0.3255 -0.0169  0.2209
  858POPE   D2A13128   6.931   5.648   6.828  0.2637  0.2956  0.0423
  858POPE   C3A13129   6.709   5.379   7.065  0.2516 -0.0539 -0.0118
  858POPE   C4A13130   6.379   5.174   7.231  0.0463  0.0828 -0.2322
  858POPE   C1B13131   7.107   6.114   6.365 -0.6071 -0.2718 -0.0845
  858POPE   C2B13132   7.224   6.037   6.846 -0.0782 -0.1468  0.0942
  858POPE   C3B13133   7.533   5.966   7.158  0.1502  0.4211  0.1796
  858POPE   C4B13134   7.995   5.987   7.231 -0.0366  0.0064  0.1134
  859POPE   NH313135   2.585   1.450   5.569 -0.1208  0.2865 -0.0843
  859POPE   PO413136   2.152   1.751   5.561  0.2147  0.0661 -0.3015
  859POPE   GL113137   2.103   1.353   5.859  0.2104 -0.1752  0.3187
  859POPE   GL213138   1.865   1.394   5.950 -0.0530 -0.1404  0.1074
  859POPE   C1A13139   2.217   1.096   6.213  0.1559 -0.0254 -0.0908
  859POPE   D2A13140   2.659   0.984   6.212 -0.3155  0.1696 -0.1016
  859POPE   C3A13141   2.935   0.917   6.452  0.0183 -0.1238 -0.3337
  859POPE   C4A13142   3.119   0.787   6.665 -0.3511 -0.0558 -0.0132
  859POPE   C1B13143   1.867   1.385   6.385  0.2296  0.0626 -0.1168
  859POPE   C2B13144   1.622   1.370   6.845  0.2187 -0.0586 -0.0582
  859POPE   C3B13145   1.588   1.360   7.261  0.0031 -0.1109 -0.2569
  859POPE   C4B13146   1.478   1.488   7.689  0.2812 -0.2804  0.0843
  860POPE   NH313147  16.378  14.984   5.888  0.0691 -0.1439  0.0792
  860POPE   PO413148  16.055  14.639   5.868 -0.1697  0.1379 -0.0676
  860POPE   GL113149  16.168  14.618   6.257 -0.1196  0.1099  0.2493
  860POPE   GL213150  16.479  14.602   6.303 -0.1840  0.2610  0.2207
  860POPE   C1A13151  16.313  14.817   6.714  0.1042  0.1999  0.3405
  860POPE   D2A13152  16.443  15.126   7.024 -0.3904  0.1786  0.0329
  860POPE   C3A13153  16.178  15.096   7.448  0.0453 -0.0333 -0.2312
  860POPE   C4A13154  15.746  15.119   7.452 -0.2644 -0.1432 -0.0784
  860POPE   C1B13155  16.725  14.237   6.555 -0.0698  0.0874 -0.0686
  860POPE   C2B13156  16.561  13.849   6.789 -0.0547  0.2626 -0.2705
  860POPE   C3B13157  16.265  13.771   7.022 -0.0339 -0.1687 -0.2922
  860POPE   C4B13158  15.924  14.089   7.275  0.3332 -0.3963 -0.1098
  861POPE   NH313159   4.834  13.517   5.099 -0.0081 -0.1688 -0.2028
  861POPE   PO413160   4.941  13.845   5.018  0.3439 -0.1766  0.1331
  861POPE   GL113161   5.188  13.812   5.314  0.0655 -0.2841  0.0712
  861POPE   GL213162   5.536  13.757   5.201 -0.2202 -0.0499 -0.0866
  861POPE   C1A13163   5.153  13.796   5.727  0.0675  0.3417 -0.0795
  861POPE   D2A13164   4.985  13.323   5.784  0.0756  0.0331 -0.4539
  861POPE   C3A13165   5.015  13.293   6.209 -0.1204  0.1596  0.4195
  861POPE   C4A13166   4.776  13.429   6.530 -0.1710 -0.2459  0.1548
  861POPE   C1B13167   5.653  13.880   5.629  0.0370  0.2009 -0.1131
  861POPE   C2B13168   5.447  14.215   5.847 -0.0627  0.0824  0.1596
  861POPE   C3B13169   5.419  14.319   6.318 -0.0163  0.0178  0.1352
  861POPE   C4B13170   5.863  14.594   6.575  0.0596  0.1685 -0.2126
  862POPE   NH313171  15.494  13.001   5.909 -0.1030 -0.1272  0.0002
  862POPE   PO413172  15.766  12.714   6.027 -0.2868 -0.3675  0.0477
  862POPE   GL113173  15.627  12.454   6.347  0.4968 -0.1014  0.0634
  862POPE   GL213174  15.263  12.453   6.259 -0.0712  0.0630 -0.1014
  862POPE   C1A13175  15.618  12.306   6.790  0.2037  0.1373  0.1446
  862POPE   D2A13176  15.794  12.001   6.890 -0.0753  0.0537  0.2040
  862POPE   C3A13177  16.027  11.988   7.332 -0.0423 -0.0320  0.1994
  862POPE   C4A13178  16.376  11.953   7.810 -0.0738 -0.1973 -0.0499
  862POPE   C1B13179  14.861  12.550   6.450 -0.1006  0.1798  0.3753
  862POPE   C2B13180  14.721  12.765   6.773 -0.2111 -0.1229 -0.2203
  862POPE   C3B13181  15.052  13.012   7.074 -0.0636  0.4059 -0.0704
  862POPE   C4B13182  15.104  13.001   7.462 -0.1046 -0.4586 -0.0665
  863POPE   NH313183  18.471   3.542   5.628  0.1225 -0.2119 -0.0632
  863POPE   PO413184  18.854   3.614   5.889 -0.1420  0.2097 -0.0523
  863POPE   GL113185  18.708   3.721   6.251  0.1804  0.0016 -0.0388
  863POPE   GL213186  18.465   3.485   6.259 -0.0069 -0.0755 -0.0043
  863POPE   C1A13187  18.970   3.821   6.631  0.2591  0.2492  0.4466
  863POPE   D2A13188  19.151   3.797   7.093  0.1525 -0.4825 -0.2617
  863POPE   C3A13189  18.988   4.012   7.469 -0.1057  0.1597  0.0206
  863POPE   C4A13190  18.556   4.158   7.617 -0.1644 -0.0338  0.1026
  863POPE   C1B13191  18.467   3.349   6.508 -0.0477  0.2236 -0.2081
  863POPE   C2B13192  18.562   3.330   6.840  0.0524  0.2709  0.0910
  863POPE   C3B13193  18.555   3.241   7.271  0.0391  0.2796  0.0545
  863POPE   C4B13194  18.785   3.217   7.701 -0.3095 -0.3127 -0.1925
  864POPE   NH313195  18.358   2.777   5.309 -0.3604  0.3777 -0.0443
  864POPE   PO413196  18.219   2.338   5.492 -0.0125  0.2260  0.0941
  864POPE   GL113197  18.342   2.346   5.943  0.0969  0.0318  0.1004
  864POPE   GL213198  18.353   2.014   6.078  0.1054  0.2968 -0.0142
  864POPE   C1A13199  18.584   2.442   6.322 -0.1265 -0.3368 -0.2209
  864POPE   D2A13200  18.862   2.354   6.584 -0.0819 -0.0620 -0.0712
  864POPE   C3A13201  19.222   2.683   6.754 -0.1956  0.1403 -0.1065
  864POPE   C4A13202  19.392   2.851   7.071  0.1648 -0.0492 -0.0525
  864POPE   C1B13203  18.538   1.971   6.494 -0.4298 -0.1857 -0.1446
  864POPE   C2B13204  18.508   1.886   6.900 -0.0666  0.0740  0.2335
  864POPE   C3B13205  18.307   1.957   7.200  0.1276 -0.0272  0.0802
  864POPE   C4B13206  18.441   2.098   7.538  0.3879 -0.2156  0.0844
  865POPE   NH313207   7.997   5.163   5.709 -0.2259  0.1748  0.1849
  865POPE   PO413208   7.956   4.780   5.774  0.0402 -0.1381 -0.2706
  865POPE   GL113209   7.893   4.604   6.129 -0.1603  0.1002  0.1398
  865POPE   GL213210   7.581   4.589   6.291  0.1385 -0.0785 -0.1371
  865POPE   C1A13211   8.153   4.256   6.461 -0.1558 -0.2983  0.0786
  865POPE   D2A13212   7.892   3.994   6.808  0.0478  0.0182  0.0934
  865POPE   C3A13213   8.047   3.986   7.304  0.0821  0.1278  0.0328
  865POPE   C4A13214   8.036   4.170   7.665  0.0410  0.1141 -0.0650
  865POPE   C1B13215   7.624   4.311   6.564  0.0792 -0.3305 -0.0894
  865POPE   C2B13216   7.362   3.923   6.694 -0.1484  0.0487  0.1087
  865POPE   C3B13217   7.442   3.453   6.590 -0.0852  0.1794  0.1730
  865POPE   C4B13218   7.543   2.928   6.466  0.0068  0.1242 -0.1522
  866POPE   NH313219   6.106   3.216   5.711  0.1915  0.1552 -0.0210
  866POPE   PO413220   6.176   2.852   5.649  0.1042 -0.2077 -0.0188
  866POPE   GL113221   6.190   2.499   5.903 -0.5094 -0.0119  0.0860
  866POPE   GL213222   6.089   2.185   5.797  0.5124 -0.1209 -0.0096
  866POPE   C1A13223   6.514   2.246   6.115  0.2839 -0.0113 -0.0710
  866POPE   D2A13224   6.742   2.366   6.551 -0.1454  0.0571  0.1616
  866POPE   C3A13225   6.812   2.189   6.912  0.0800 -0.0319  0.1617
  866POPE   C4A13226   6.847   2.355   7.354  0.1062  0.0172  0.0293
  866POPE   C1B13227   6.079   1.972   6.252 -0.1984  0.2440 -0.0168
  866POPE   C2B13228   5.998   1.768   6.632  0.2027 -0.2139 -0.0370
  866POPE   C3B13229   5.961   1.507   7.000 -0.1906  0.0085  0.1696
  866POPE   C4B13230   5.645   1.272   7.176  0.2597 -0.1965  0.1560
  867POPE   NH313231  16.360  12.892   6.020  0.1796 -0.0180  0.2155
  867POPE   PO413232  16.443  13.228   5.822 -0.1586  0.3864 -0.0668
  867POPE   GL113233  16.535  13.309   6.242  0.0403 -0.3171  0.0704
  867POPE   GL213234  16.683  13.060   6.358  0.2496 -0.1433 -0.0761
  867POPE   C1A13235  16.659  13.362   6.770 -0.2965  0.1295 -0.0060
  867POPE   D2A13236  16.290  13.316   7.075  0.1548  0.1777 -0.0824
  867POPE   C3A13237  16.197  13.391   7.363  0.1361 -0.1675 -0.2810
  867POPE   C4A13238  16.200  13.758   7.576  0.1907 -0.0034  0.2307
  867POPE   C1B13239  16.820  12.796   6.649  0.0103  0.0720  0.0898
  867POPE   C2B13240  16.912  12.963   7.150  0.2558 -0.2159  0.1260
  867POPE   C3B13241  16.688  13.078   7.400  0.3086  0.2055  0.3120
  867POPE   C4B13242  16.400  13.073   7.716  0.0239 -0.0992 -0.3592
  868POPE   NH313243   4.446   6.591   5.770  0.3748  0.0397 -0.2899
  868POPE   PO413244   4.869   6.522   5.832 -0.0637 -0.1414  0.1562
  868POPE   GL113245   4.818   6.652   6.123  0.1423  0.0225  0.0656
  868POPE   GL213246   4.584   6.358   6.156 -0.4459 -0.2460 -0.1728
  868POPE   C1A13247   4.509   6.841   6.508  0.0730 -0.1877 -0.4190
  868POPE   D2A13248   4.702   6.603   6.903  0.2080  0.1409  0.2282
  868POPE   C3A13249   5.076   6.621   7.055 -0.0912  0.1587  0.2995
  868POPE   C4A13250   5.324   6.443   7.379  0.1354 -0.3548  0.3047
  868POPE   C1B13251   4.436   6.311   6.539  0.2353 -0.2369 -0.1711
  868POPE   C2B13252   4.543   6.091   6.876 -0.0864  0.0606 -0.1631
  868POPE   C3B13253   4.774   6.174   7.253  0.5762  0.1563  0.1690
  868POPE   C4B13254   5.067   5.957   7.365  0.1405  0.1182 -0.0418
  869POPE   NH313255  12.751  15.568   5.427 -0.0079  0.4515 -0.1868
  869POPE   PO413256  12.490  15.221   5.548 -0.1507 -0.0257  0.1276
  869POPE   GL113257  12.211  15.228   5.805 -0.0717  0.1306  0.0090
  869POPE   GL213258  12.076  14.983   5.864  0.2630 -0.0366 -0.1963
  869POPE   C1A13259  12.279  15.229   6.351  0.0762 -0.2377 -0.1052
  869POPE   D2A13260  12.075  15.281   6.730 -0.1722  0.0891  0.1290
  869POPE   C3A13261  12.036  15.249   7.138 -0.0743 -0.0489 -0.0680
  869POPE   C4A13262  12.034  15.409   7.654  0.2481  0.0823  0.4095
  869POPE   C1B13263  12.144  14.794   6.235 -0.0069 -0.0379  0.1602
  869POPE   C2B13264  12.047  14.766   6.667 -0.1069 -0.3714  0.1958
  869POPE   C3B13265  12.007  14.534   7.119 -0.1791 -0.1042 -0.0077
  869POPE   C4B13266  11.799  14.501   7.472  0.2885  0.2065  0.3607
  870POPE   NH313267   5.099  12.891   5.616  0.0678  0.0281  0.0624
  870POPE   PO413268   4.706  13.201   5.426 -0.1694  0.0112  0.0940
  870POPE   GL113269   4.488  13.281   5.742 -0.0605 -0.1208 -0.0685
  870POPE   GL213270   4.115  13.315   5.718 -0.4545  0.0072  0.2573
  870POPE   C1A13271   4.453  13.503   6.166 -0.0933 -0.1631  0.0635
  870POPE   D2A13272   4.338  13.655   6.569  0.0126 -0.0943  0.1459
  870POPE   C3A13273   4.615  13.708   6.944 -0.0686 -0.0351 -0.2482
  870POPE   C4A13274   4.964  13.705   7.142  0.0910 -0.0286  0.1248
  870POPE   C1B13275   4.049  13.272   6.118 -0.0331  0.4166  0.1888
  870POPE   C2B13276   4.144  13.191   6.454 -0.0327  0.0552  0.0821
  870POPE   C3B13277   4.110  12.925   6.796 -0.0614 -0.2034 -0.1610
  870POPE   C4B13278   3.811  12.801   7.149  0.0285 -0.0056 -0.1701
  871POPE   NH313279  13.531   5.725   5.532 -0.1159  0.0029 -0.3231
  871POPE   PO413280  13.154   5.916   5.389  0.1340  0.1588 -0.0271
  871POPE   GL113281  13.082   5.933   5.871  0.0972  0.2177  0.4088
  871POPE   GL213282  13.229   6.085   5.974  0.1578 -0.1413  0.1868
  871POPE   C1A13283  12.972   5.631   6.136  0.5148 -0.1256 -0.0100
  871POPE   D2A13284  12.650   5.415   6.415 -0.0571 -0.1699  0.0943
  871POPE   C3A13285  12.609   5.290   6.870  0.0113  0.0259  0.2181
  871POPE   C4A13286  12.454   5.431   7.224  0.2618  0.0483 -0.1436
  871POPE   C1B13287  12.942   6.234   6.315 -0.1055 -0.0751 -0.1744
  871POPE   C2B13288  12.857   6.295   6.690  0.0354 -0.1957 -0.2118
  871POPE   C3B13289  12.557   6.471   7.082  0.1330  0.0919  0.3769
  871POPE   C4B13290  12.622   6.605   7.622 -0.1787  0.0069  0.1603
  872POPE   NH313291   8.234  14.565   5.233 -0.1258 -0.3927  0.1207
  872POPE   PO413292   8.562  14.350   5.349 -0.0574  0.1637 -0.0268
  872POPE   GL113293   8.597  14.353   5.863  0.0887  0.1276  0.0174
  872POPE   GL213294   8.898  14.185   5.949  0.1726  0.0497 -0.1087
  872POPE   C1A13295   8.539  14.470   6.253 -0.0053 -0.1076 -0.2782
  872POPE   D2A13296   8.820  14.563   6.594 -0.1046 -0.0576  0.0074
  872POPE   C3A13297   8.529  14.712   7.006 -0.1800 -0.0717  0.1557
  872POPE   C4A13298   8.379  14.550   7.401  0.0903  0.1629 -0.1730
  872POPE   C1B13299   8.885  14.123   6.381  0.0291  0.2833 -0.1595
  872POPE   C2B13300   8.941  13.960   6.668  0.0037  0.4219 -0.0753
  872POPE   C3B13301   8.918  13.781   6.988  0.1468  0.2286 -0.2047
  872POPE   C4B13302   8.815  13.811   7.418 -0.2679 -0.0968 -0.3913
  873POPE   NH313303   7.635  10.295   5.441  0.0269 -0.1362  0.0822
  873POPE   PO413304   8.017  10.527   5.400  0.3504  0.0288  0.2203
  873POPE   GL113305   8.017  10.069   5.713  0.3635  0.0384  0.2016
  873POPE   GL213306   8.279   9.927   5.733 -0.2445  0.2026  0.1010
  873POPE   C1A13307   8.006   9.736   6.090 -0.0516 -0.1488  0.0621
  873POPE   D2A13308   8.390   9.680   6.428  0.1267  0.1367  0.0391
  873POPE   C3A13309   8.386   9.940   6.860  0.2373 -0.3805  0.2876
  873POPE   C4A13310   8.135  10.021   7.216  0.1938 -0.2377  0.1069
  873POPE   C1B13311   8.449  10.079   6.102 -0.0659  0.5535  0.1222
  873POPE   C2B13312   8.630  10.063   6.482 -0.4073 -0.1746  0.3735
  873POPE   C3B13313   8.840  10.218   6.819 -0.3074 -0.0962  0.0772
  873POPE   C4B13314   9.118  10.038   7.087  0.0789  0.0327  0.0446
  874YOPE   NH313315  17.667  11.559   5.753 -0.0033 -0.1636 -0.0176
  874YOPE   PO413316  17.313  11.147   5.774 -0.0123 -0.1416  0.0671
  874YOPE   GL113317  17.391  11.193   6.140  0.2905 -0.0701 -0.0971
  874YOPE   GL213318  17.316  10.933   6.241  0.0530  0.2968 -0.1273
  874YOPE   C1A13319  17.738  11.153   6.431 -0.0979 -0.1908  0.0356
  874YOPE   D2A13320  17.902  11.064   6.854  0.1153  0.0024  0.2290
  874YOPE   C3A13321  18.037  11.402   7.163 -0.3291  0.1491  0.2957
  874YOPE   C4A13322  17.889  11.447   7.593 -0.1160  0.0685  0.0274
  874YOPE   C1B13323  17.375  10.977   6.671  0.4937  0.1476 -0.0429
  874YOPE   C2B13324  17.395  10.918   7.121  0.1836 -0.2970 -0.0670
  874YOPE   D3B13325  17.391  10.511   7.497  0.3424 -0.1748 -0.2108
  874YOPE   C4B13326  17.449  10.269   7.894 -0.0725 -0.0583  0.1114
  875YOPE   NH313327   8.442   4.460   5.568  0.0180  0.0923  0.1458
  875YOPE   PO413328   8.565   4.927   5.457  0.0693  0.0549 -0.0773
  875YOPE   GL113329   8.469   4.973   5.920 -0.0124  0.1358  0.2601
  875YOPE   GL213330   8.445   4.681   6.038  0.0614 -0.1637 -0.0120
  875YOPE   C1A13331   8.639   5.263   6.144  0.2187 -0.0215 -0.0263
  875YOPE   D2A13332   8.790   5.521   6.355  0.2566  0.1457  0.1393
  875YOPE   C3A13333   9.032   5.939   6.397  0.1380 -0.4072  0.1705
  875YOPE   C4A13334   8.762   6.313   6.483  0.0931  0.3008  0.0308
  875YOPE   C1B13335   8.937   4.697   6.092  0.2312 -0.0921 -0.2968
  875YOPE   C2B13336   9.150   4.529   6.324  0.3874  0.1359 -0.1264
  875YOPE   D3B13337   9.529   4.343   6.445  0.0180 -0.1047 -0.2154
  875YOPE   C4B13338   9.668   4.054   6.527 -0.0485 -0.0801  0.1759
  876YOPE   NH313339  14.730  15.424   5.819  0.2845  0.1093 -0.2971
  876YOPE   PO413340  14.626  15.049   5.649  0.0849  0.0586  0.2936
  876YOPE   GL113341  14.646  14.962   6.140  0.4428 -0.0523  0.3615
  876YOPE   GL213342  14.826  15.199   6.325 -0.2321 -0.1312 -0.2584
  876YOPE   C1A13343  14.462  14.773   6.537 -0.5248  0.0355  0.2461
  876YOPE   D2A13344  14.602  14.597   6.904  0.3740 -0.0198  0.0907
  876YOPE   C3A13345  14.814  14.828   7.251 -0.1447 -0.0233 -0.0430
  876YOPE   C4A13346  15.275  14.785   7.411  0.1041  0.0400 -0.2673
  876YOPE   C1B13347  14.840  15.592   6.557 -0.3159 -0.0842 -0.1668
  876YOPE   C2B13348  14.613  15.653   6.943 -0.0307  0.2937 -0.1553
  876YOPE   D3B13349  14.472  15.843   7.261  0.1846 -0.1380  0.0513
  876YOPE   C4B13350  14.574  16.322   7.415 -0.2861  0.1980 -0.1539
  877YOPE   NH313351  14.779  16.536   5.403  0.3209  0.1986 -0.1824
  877YOPE   PO413352  14.599  16.647   5.815  0.0952  0.1980 -0.0808
  877YOPE   GL113353  14.405  16.885   6.226  0.6342  0.2288 -0.2989
  877YOPE   GL213354  14.182  16.611   6.361  0.2666 -0.2210 -0.2628
  877YOPE   C1A13355  14.555  17.005   6.657 -0.2266 -0.2079 -0.0978
  877YOPE   D2A13356  14.696  17.060   7.087 -0.1399 -0.1094  0.0293
  877YOPE   C3A13357  14.318  17.158   7.417  0.1042 -0.0706  0.3905
  877YOPE   C4A13358  14.153  16.991   7.765  0.1462 -0.1041  0.0903
  877YOPE   C1B13359  14.075  17.016   6.577  0.2354  0.0125 -0.0969
  877YOPE   C2B13360  14.186  17.262   6.931 -0.0729 -0.4410  0.0702
  877YOPE   D3B13361  13.996  17.493   7.327 -0.1631 -0.1336 -0.2596
  877YOPE   C4B13362  13.917  17.855   7.655 -0.1587  0.1943 -0.0771
  878YOPE   NH313363  12.104   5.126   5.187  0.4494 -0.1412 -0.0881
  878YOPE   PO413364  12.243   5.485   5.080  0.2472 -0.1711 -0.1219
  878YOPE   GL113365  11.934   5.514   5.470  0.0861  0.0188 -0.1745
  878YOPE   GL213366  11.817   5.215   5.597  0.1208  0.2818 -0.2624
  878YOPE   C1A13367  12.014   5.798   5.932 -0.2828 -0.0087 -0.1115
  878YOPE   D2A13368  12.454   5.908   6.100  0.0999  0.2095  0.1209
  878YOPE   C3A13369  12.574   5.879   6.549 -0.0107 -0.0612  0.0939
  878YOPE   C4A13370  12.674   5.825   6.993 -0.1251  0.1818  0.1190
  878YOPE   C1B13371  11.830   5.232   6.030 -0.3086  0.0477  0.2127
  878YOPE   C2B13372  11.589   5.225   6.558 -0.4324 -0.0368  0.0906
  878YOPE   D3B13373  11.275   5.063   6.958 -0.0643  0.0395  0.2493
  878YOPE   C4B13374  10.886   5.269   7.063 -0.1453 -0.0653  0.0926
  879YOPE   NH313375   1.066  18.497   5.103  0.1234 -0.2425  0.2029
  879YOPE   PO413376   1.027  17.999   5.203 -0.0268  0.1805 -0.0202
  879YOPE   GL113377   1.024  18.212   5.599 -0.1376  0.1579  0.1642
  879YOPE   GL213378   0.936  18.559   5.629 -0.1274 -0.0593 -0.0838
  879YOPE   C1A13379   0.764  18.088   5.842 -0.3093 -0.2563  0.0982
  879YOPE   D2A13380   0.629  18.117   6.201 -0.0956  0.1625 -0.2134
  879YOPE   C3A13381   0.808  18.183   6.536  0.1660  0.2990  0.3522
  879YOPE   C4A13382   1.110  18.081   6.871 -0.0895  0.0140 -0.0282
  879YOPE   C1B13383   1.079  18.361   6.110  0.0527 -0.0196  0.0111
  879YOPE   C2B13384   1.355  18.245   6.434  0.0937 -0.2332 -0.0118
  879YOPE   D3B13385   1.560  17.943   6.491  0.1839  0.1842 -0.0149
  879YOPE   C4B13386   1.738  17.674   6.563  0.0262 -0.3101  0.2008
  880YOPE   NH313387  11.663   8.201   5.474 -0.0889  0.1310  0.4507
  880YOPE   PO413388  12.064   8.428   5.635  0.2264  0.0616  0.1234
  880YOPE   GL113389  11.876   8.616   6.026  0.1160 -0.0407 -0.0964
  880YOPE   GL213390  11.890   8.517   6.290 -0.2972  0.2178 -0.2554
  880YOPE   C1A13391  12.132   8.910   6.358  0.0046  0.0491  0.2636
  880YOPE   D2A13392  12.161   9.132   6.754 -0.0312  0.0829 -0.0924
  880YOPE   C3A13393  12.141   9.512   6.948 -0.3023  0.5334 -0.2877
  880YOPE   C4A13394  12.203   9.953   7.100 -0.2778  0.2562  0.0732
  880YOPE   C1B13395  11.766   8.186   6.641  0.0935  0.3030  0.1137
  880YOPE   C2B13396  11.634   7.775   6.829  0.0290  0.0633  0.1624
  880YOPE   D3B13397  11.937   7.463   6.703  0.0263  0.1725 -0.0503
  880YOPE   C4B13398  12.326   7.129   6.699  0.0578  0.1538  0.1014
  881YOPE   NH313399  17.605  18.491   5.672  0.1046 -0.2790 -0.0963
  881YOPE   PO413400  17.698  18.730   6.084  0.4178  0.0485  0.1163
  881YOPE   GL113401  17.655  18.929   6.515 -0.2185  0.0707  0.0463
  881YOPE   GL213402  17.533  18.649   6.605  0.0069  0.0371 -0.0510
  881YOPE   C1A13403  18.031  18.837   6.798 -0.4580  0.0033 -0.3171
  881YOPE   D2A13404  18.245  19.040   7.005  0.1088  0.0805  0.1276
  881YOPE   C3A13405  18.556  19.130   7.119 -0.0763 -0.0690 -0.2025
  881YOPE   C4A13406  18.600  19.485   7.329  0.1092 -0.2668  0.0221
  881YOPE   C1B13407  17.660  18.680   7.092 -0.1073 -0.2922 -0.0782
  881YOPE   C2B13408  17.668  18.984   7.331 -0.0772  0.1972  0.0825
  881YOPE   D3B13409  17.499  19.364   7.154 -0.1519 -0.0165  0.0478
  881YOPE   C4B13410  17.206  19.448   6.888 -0.1879  0.1198 -0.1286
  882YOPE   NH313411  14.052  15.415   5.835  0.2903  0.0669  0.1380
  882YOPE   PO413412  13.885  15.113   5.553 -0.2165 -0.0262 -0.1844
  882YOPE   GL113413  13.870  14.904   5.917  0.0186 -0.1692 -0.1225
  882YOPE   GL213414  14.063  15.004   6.159 -0.3507  0.1596 -0.0704
  882YOPE   C1A13415  13.834  14.595   6.231 -0.0456 -0.1396  0.2276
  882YOPE   D2A13416  14.010  14.424   6.722 -0.6596  0.0067  0.2690
  882YOPE   C3A13417  13.783  14.514   7.104  0.0471 -0.0705  0.3667
  882YOPE   C4A13418  13.948  14.549   7.515 -0.0292  0.2615  0.0629
  882YOPE   C1B13419  13.960  14.947   6.564 -0.3205 -0.1636  0.2498
  882YOPE   C2B13420  13.836  15.012   6.994  0.0376 -0.0232 -0.0247
  882YOPE   D3B13421  13.618  14.935   7.320 -0.0259  0.4526 -0.0672
  882YOPE   C4B13422  13.608  15.125   7.691 -0.3597 -0.2857 -0.1634
  883YOPE   NH313423   4.222  18.018   5.032 -0.0475 -0.2505 -0.1612
  883YOPE   PO413424   4.362  17.665   4.881  0.0369 -0.1672  0.0180
  883YOPE   GL113425   4.510  17.627   5.391 -0.2624  0.3250  0.1826
  883YOPE   GL213426   4.615  17.871   5.537 -0.0710  0.1124  0.0645
  883YOPE   C1A13427   4.423  17.369   5.774 -0.1841 -0.1306  0.0201
  883YOPE   D2A13428   4.619  17.099   6.212  0.3442 -0.0312  0.0788
  883YOPE   C3A13429   4.406  16.959   6.649  0.1310  0.1859  0.2476
  883YOPE   C4A13430   4.332  16.498   6.855 -0.0383 -0.0828  0.0645
  883YOPE   C1B13431   4.560  17.974   6.020 -0.0389 -0.1384  0.0040
  883YOPE   C2B13432   4.551  17.960   6.480 -0.1854  0.0716  0.1987
  883YOPE   D3B13433   4.815  17.926   6.864 -0.1539 -0.0590 -0.0068
  883YOPE   C4B13434   4.770  17.932   7.321 -0.0688 -0.1058 -0.1254
  884YOPE   NH313435  13.631  17.439   5.940  0.0763  0.0744  0.3703
  884YOPE   PO413436  13.650  17.031   6.076  0.0386  0.1230 -0.1504
  884YOPE   GL113437  13.747  17.320   6.437 -0.3461 -0.0296  0.0141
  884YOPE   GL213438  13.676  17.571   6.412 -0.0708 -0.2553 -0.2467
  884YOPE   C1A13439  13.631  17.245   6.921  0.0726  0.5674 -0.3175
  884YOPE   D2A13440  13.340  17.115   7.224  0.1195  0.3516 -0.0431
  884YOPE   C3A13441  13.219  16.733   7.208 -0.0694  0.1719  0.0745
  884YOPE   C4A13442  13.079  16.345   7.244  0.2103 -0.2461  0.0758
  884YOPE   C1B13443  13.919  17.701   6.799 -0.1619  0.1402 -0.0776
  884YOPE   C2B13444  13.850  17.969   7.111 -0.1761  0.0002  0.1346
  884YOPE   D3B13445  14.035  18.278   7.425  0.0936  0.0931 -0.0987
  884YOPE   C4B13446  14.415  18.346   7.676  0.0648 -0.1332 -0.3316
  885YOPE   NH313447   2.467  17.047   5.084  0.0998  0.0385 -0.1571
  885YOPE   PO413448   2.917  17.164   4.950 -0.1429  0.1338  0.2249
  885YOPE   GL113449   2.764  17.033   5.458 -0.0982  0.0829  0.0136
  885YOPE   GL213450   2.551  16.804   5.507 -0.1206  0.1674  0.1455
  885YOPE   C1A13451   2.799  17.231   5.860 -0.1256  0.0082  0.1923
  885YOPE   D2A13452   2.766  17.662   6.029 -0.0163 -0.2874 -0.1234
  885YOPE   C3A13453   2.709  17.678   6.622 -0.0980 -0.2630 -0.4224
  885YOPE   C4A13454   2.822  17.565   7.089  0.1684 -0.0526  0.1466
  885YOPE   C1B13455   2.644  16.745   5.933  0.1192  0.0854  0.0580
  885YOPE   C2B13456   2.630  16.613   6.417 -0.0908 -0.2098  0.0521
  885YOPE   D3B13457   2.529  16.404   6.808 -0.1338 -0.0775 -0.0447
  885YOPE   C4B13458   2.706  16.554   7.299  0.0378 -0.2601 -0.1596
  886YOPE   NH313459   0.754   2.904   5.837  0.0406  0.1779 -0.0763
  886YOPE   PO413460   0.616   2.556   5.683 -0.3375 -0.0122 -0.6503
  886YOPE   GL113461   0.780   2.225   5.922 -0.2867 -0.1665  0.0103
  886YOPE   GL213462   0.641   1.933   6.084 -0.0509 -0.1935  0.1394
  886YOPE   C1A13463   1.106   2.223   6.325 -0.0300  0.0445 -0.0200
  886YOPE   D2A13464   1.248   2.013   6.706 -0.0016  0.0115  0.2697
  886YOPE   C3A13465   1.228   1.647   6.873  0.0244 -0.1551  0.1795
  886YOPE   C4A13466   1.075   1.340   7.165 -0.1908  0.0792  0.2016
  886YOPE   C1B13467   0.998   1.679   6.350  0.3569 -0.0179  0.1210
  886YOPE   C2B13468   1.429   1.606   6.433 -0.2320 -0.0378  0.2948
  886YOPE   D3B13469   1.723   1.967   6.504 -0.2162  0.3433 -0.2499
  886YOPE   C4B13470   1.602   2.371   6.733  0.0821 -0.0468 -0.0342
  887YOPE   NH313471  12.723   6.110   5.568  0.1502 -0.2312  0.2016
  887YOPE   PO413472  13.023   6.417   5.543 -0.5813 -0.3630 -0.1334
  887YOPE   GL113473  13.193   6.629   5.966  0.0364  0.1316 -0.1738
  887YOPE   GL213474  12.854   6.728   6.073  0.2638  0.1275  0.1156
  887YOPE   C1A13475  13.263   6.664   6.470  0.1910 -0.1879 -0.1612
  887YOPE   D2A13476  13.244   6.521   6.890 -0.2763  0.2161  0.1216
  887YOPE   C3A13477  13.254   6.129   6.878  0.0588  0.0861 -0.1278
  887YOPE   C4A13478  13.131   5.782   6.632  0.1188 -0.0693  0.2262
  887YOPE   C1B13479  12.773   6.868   6.466 -0.0701  0.1206 -0.0365
  887YOPE   C2B13480  12.860   6.781   6.852  0.2456  0.1090  0.3799
  887YOPE   D3B13481  12.543   6.986   7.273 -0.0390 -0.2690 -0.1280
  887YOPE   C4B13482  12.389   7.378   7.154 -0.0519 -0.0337  0.6969
  888YOPE   NH313483   5.566   7.738   5.701 -0.1605  0.1872  0.0413
  888YOPE   PO413484   5.325   7.396   5.680 -0.0243 -0.1130 -0.2465
  888YOPE   GL113485   5.305   7.589   6.094 -0.3116  0.0529  0.1279
  888YOPE   GL213486   5.095   7.641   6.081 -0.1962  0.2897 -0.0182
  888YOPE   C1A13487   5.435   7.654   6.465  0.0016  0.1133  0.5361
  888YOPE   D2A13488   5.178   7.597   6.818 -0.0837  0.0380 -0.0599
  888YOPE   C3A13489   4.866   7.768   7.000  0.0647 -0.0044 -0.1741
  888YOPE   C4A13490   4.612   7.739   7.344  0.1617 -0.1178  0.0479
  888YOPE   C1B13491   5.034   7.311   6.463 -0.1447 -0.0303  0.0334
  888YOPE   C2B13492   5.100   6.858   6.520  0.3655  0.1723 -0.1878
  888YOPE   D3B13493   5.454   6.572   6.593 -0.3019  0.1420  0.0409
  888YOPE   C4B13494   5.615   6.338   6.899 -0.1071  0.1866 -0.3863
  889YOPE   NH313495  17.978  14.995   5.639 -0.1233 -0.4306 -0.2481
  889YOPE   PO413496  17.687  14.629   5.749 -0.1558  0.0117  0.1676
  889YOPE   GL113497  17.818  14.365   5.981  0.1593  0.2409  0.1708
  889YOPE   GL213498  17.695  13.957   6.053  0.2653 -0.0148  0.2802
  889YOPE   C1A13499  17.853  14.266   6.375  0.0775  0.1552  0.1252
  889YOPE   D2A13500  18.162  14.411   6.713  0.3574  0.0430  0.2197
  889YOPE   C3A13501  18.345  14.799   6.658 -0.2087 -0.1053  0.2866
  889YOPE   C4A13502  18.684  14.759   6.345  0.1350 -0.1697 -0.2293
  889YOPE   C1B13503  17.981  13.776   6.253 -0.1004 -0.1221  0.0148
  889YOPE   C2B13504  18.132  13.891   6.607 -0.2766  0.0794  0.1360
  889YOPE   D3B13505  18.534  13.873   6.945 -0.1402 -0.0861 -0.0919
  889YOPE   C4B13506  18.849  14.105   7.176 -0.3398 -0.2075 -0.1314
  890YOPE   NH313507   8.178  15.827   5.138  0.0407  0.1733  0.1287
  890YOPE   PO413508   7.762  15.981   5.107 -0.1417 -0.2659 -0.0912
  890YOPE   GL113509   7.829  15.998   5.547  0.0868 -0.2687  0.2324
  890YOPE   GL213510   7.961  16.385   5.618 -0.0002 -0.1162 -0.0709
  890YOPE   C1A13511   7.942  16.002   5.974  0.1291  0.2560  0.3029
  890YOPE   D2A13512   8.203  15.879   6.256  0.1017 -0.0019  0.1735
  890YOPE   C3A13513   8.417  16.168   6.587  0.1017  0.0766  0.0017
  890YOPE   C4A13514   8.756  16.456   6.540 -0.0061 -0.3682  0.1479
  890YOPE   C1B13515   7.747  16.620   5.961 -0.1113 -0.3567 -0.1872
  890YOPE   C2B13516   7.550  16.739   6.285 -0.0976 -0.1595  0.2589
  890YOPE   D3B13517   7.556  16.657   6.736  0.0732 -0.0643  0.1224
  890YOPE   C4B13518   7.297  16.775   7.036 -0.0701  0.0047  0.2391
  891YOPE   NH313519   2.438   7.056   5.296 -0.2215  0.1021 -0.7123
  891YOPE   PO413520   2.135   6.932   5.609  0.2732 -0.1782  0.2375
  891YOPE   GL113521   2.052   6.951   6.141 -0.0226  0.2361 -0.1837
  891YOPE   GL213522   1.750   7.026   6.367  0.0130 -0.0315  0.2763
  891YOPE   C1A13523   2.159   6.848   6.599 -0.3933 -0.3133 -0.4525
  891YOPE   D2A13524   1.861   6.917   6.965  0.2052 -0.0899  0.0215
  891YOPE   C3A13525   1.804   6.714   7.284 -0.0918 -0.0754  0.2199
  891YOPE   C4A13526   1.670   6.279   7.309 -0.0266 -0.1196  0.2955
  891YOPE   C1B13527   1.449   7.072   6.684 -0.0975 -0.0063  0.1743
  891YOPE   C2B13528   1.367   7.030   7.158  0.1713  0.2241  0.0549
  891YOPE   D3B13529   1.732   7.263   7.298  0.2280 -0.0347 -0.2201
  891YOPE   C4B13530   1.906   7.747   7.330  0.3583 -0.1388 -0.1368
  892YOPE   NH313531  11.767  10.443   5.220 -0.1417 -0.2785  0.0231
  892YOPE   PO413532  11.849  10.869   5.140  0.0649 -0.3215 -0.0923
  892YOPE   GL113533  11.598  11.249   5.459  0.1750  0.2377  0.0777
  892YOPE   GL213534  11.847  11.240   5.705  0.3290 -0.2100 -0.0933
  892YOPE   C1A13535  11.234  11.500   5.611 -0.0249 -0.1050  0.1360
  892YOPE   D2A13536  11.179  11.817   5.823  0.1401 -0.0986  0.1607
  892YOPE   C3A13537  11.370  11.889   6.177 -0.2118  0.2706  0.7007
  892YOPE   C4A13538  11.639  12.186   6.327  0.0170  0.0352  0.0643
  892YOPE   C1B13539  11.533  11.390   6.016  0.0248 -0.5126 -0.0052
  892YOPE   C2B13540  11.184  11.352   6.390 -0.2645  0.5361 -0.1957
  892YOPE   D3B13541  11.068  11.436   6.849 -0.5213 -0.2180  0.1366
  892YOPE   C4B13542  11.113  11.362   7.192  0.0016 -0.1515  0.0156
  893YOPE   NH313543  15.453   5.973   5.879 -0.2713 -0.0627 -0.0797
  893YOPE   PO413544  15.040   6.211   5.904 -0.1306  0.0420  0.1496
  893YOPE   GL113545  14.890   6.376   6.195 -0.1918 -0.0979 -0.2755
  893YOPE   GL213546  14.535   6.463   6.281 -0.1921 -0.1785 -0.0640
  893YOPE   C1A13547  15.119   6.303   6.611 -0.0597 -0.0637 -0.3398
  893YOPE   D2A13548  14.994   6.106   7.081  0.0634 -0.1933  0.3208
  893YOPE   C3A13549  15.213   5.700   7.113  0.1491 -0.0347  0.1858
  893YOPE   C4A13550  15.049   5.289   7.113  0.2402  0.1672  0.2064
  893YOPE   C1B13551  14.730   6.618   6.662  0.2683 -0.0022  0.3527
  893YOPE   C2B13552  14.805   6.577   7.097  0.0390  0.1070 -0.3067
  893YOPE   D3B13553  14.680   6.586   7.457  0.1644  0.3036 -0.2746
  893YOPE   C4B13554  14.772   6.544   7.929  0.1568  0.2905  0.0307
  894YOPE   NH313555   6.684   0.868   5.364  0.0480  0.1591 -0.0807
  894YOPE   PO413556   6.848   1.247   5.501 -0.0914 -0.4800  0.3540
  894YOPE   GL113557   6.876   1.617   5.790 -0.1424 -0.2093  0.2365
  894YOPE   GL213558   6.897   1.469   5.964  0.1668 -0.1722  0.1404
  894YOPE   C1A13559   6.895   2.031   5.858  0.1882  0.0078  0.1974
  894YOPE   D2A13560   7.019   2.269   6.098 -0.0468 -0.0161 -0.5727
  894YOPE   C3A13561   7.255   2.718   5.996  0.1228 -0.1507 -0.0238
  894YOPE   C4A13562   7.102   3.186   6.199  0.0111 -0.0930 -0.3054
  894YOPE   C1B13563   6.800   1.758   6.272 -0.2727 -0.2690  0.0703
  894YOPE   C2B13564   6.461   1.895   6.524  0.1713 -0.0080  0.0775
  894YOPE   D3B13565   6.240   2.262   6.690 -0.0520 -0.0188  0.2077
  894YOPE   C4B13566   6.383   2.473   6.969  0.2185 -0.1994 -0.0776
  895YOPE   NH313567   6.901   9.927   5.485  0.1191  0.1163 -0.1534
  895YOPE   PO413568   7.221  10.137   5.287  0.1581 -0.1025  0.0361
  895YOPE   GL113569   7.179  10.269   5.689  0.2419 -0.0893 -0.0934
  895YOPE   GL213570   7.286  10.494   5.943  0.1308 -0.0230 -0.0071
  895YOPE   C1A13571   7.164  10.044   6.044 -0.2935 -0.0853 -0.1951
  895YOPE   D2A13572   7.028   9.890   6.536  0.0375 -0.0978  0.3329
  895YOPE   C3A13573   7.032  10.052   6.852  0.0383  0.1476  0.0576
  895YOPE   C4A13574   7.148   9.701   7.140  0.4106  0.0273  0.1598
  895YOPE   C1B13575   7.605  10.549   6.373  0.4467  0.1880 -0.0964
  895YOPE   C2B13576   7.866  10.515   6.718  0.0787 -0.0429  0.0292
  895YOPE   D3B13577   8.146  10.608   6.909 -0.0095 -0.0294 -0.0628
  895YOPE   C4B13578   8.391  10.401   7.104 -0.1332 -0.0111 -0.0323
  896YOPE   NH313579  15.003  14.725   5.759 -0.1285  0.1995  0.2614
  896YOPE   PO413580  15.146  14.338   5.928  0.0328 -0.0569  0.2931
  896YOPE   GL113581  15.061  14.346   6.348 -0.3000 -0.0426 -0.1657
  896YOPE   GL213582  14.979  14.657   6.343 -0.2598 -0.0499  0.0423
  896YOPE   C1A13583  14.791  14.102   6.592  0.0964  0.0820 -0.2951
  896YOPE   D2A13584  14.480  13.968   6.783 -0.0274  0.4341  0.1683
  896YOPE   C3A13585  14.623  13.860   7.157  0.2812 -0.1544  0.3350
  896YOPE   C4A13586  14.574  13.923   7.589 -0.3342  0.0140  0.1650
  896YOPE   C1B13587  14.922  14.956   6.761 -0.0273 -0.2933 -0.1378
  896YOPE   C2B13588  14.858  15.261   7.019 -0.3944  0.2525  0.1131
  896YOPE   D3B13589  14.683  15.282   7.486 -0.1926  0.2136  0.0759
  896YOPE   C4B13590  14.466  15.371   7.898  0.2284  0.1302 -0.1117
  897YOPE   NH313591   5.285   7.710   5.196  0.0514  0.0264 -0.0885
  897YOPE   PO413592   5.092   7.861   5.595 -0.0841 -0.0240  0.2486
  897YOPE   GL113593   4.796   8.075   6.021  0.2359 -0.1761  0.3424
  897YOPE   GL213594   4.563   7.941   6.154  0.0872 -0.1037 -0.2837
  897YOPE   C1A13595   4.747   8.356   6.453 -0.1671  0.0216  0.0127
  897YOPE   D2A13596   4.739   8.340   6.799 -0.0329  0.1155  0.0475
  897YOPE   C3A13597   5.029   8.520   7.033  0.2116  0.2809  0.3756
  897YOPE   C4A13598   5.196   8.808   7.427 -0.1833  0.0192  0.1410
  897YOPE   C1B13599   4.389   7.956   6.569  0.1046 -0.2975  0.2908
  897YOPE   C2B13600   4.382   7.773   6.916  0.2471 -0.0771 -0.2805
  897YOPE   D3B13601   4.193   7.548   7.224 -0.2665  0.2601  0.0923
  897YOPE   C4B13602   4.218   7.165   7.384 -0.0379  0.0522  0.0084
  898YOPE   NH313603   3.795   7.404   5.426 -0.0577  0.2208 -0.1804
  898YOPE   PO413604   4.223   7.389   5.596  0.4062 -0.1053  0.1394
  898YOPE   GL113605   4.210   7.519   6.006  0.0910  0.1071  0.0284
  898YOPE   GL213606   3.932   7.354   5.998  0.2592  0.0740 -0.2037
  898YOPE   C1A13607   4.130   7.575   6.487  0.4732 -0.1770  0.1410
  898YOPE   D2A13608   3.879   7.732   6.733  0.2781  0.0193 -0.2093
  898YOPE   C3A13609   3.995   7.972   6.992  0.2038 -0.1067 -0.1714
  898YOPE   C4A13610   4.232   8.081   7.363  0.1698 -0.2608 -0.0398
  898YOPE   C1B13611   3.679   7.379   6.343  0.1685  0.0902 -0.2095
  898YOPE   C2B13612   3.550   7.238   6.616 -0.1193  0.0266 -0.1596
  898YOPE   D3B13613   3.306   7.028   6.952  0.2204  0.0108  0.2538
  898YOPE   C4B13614   3.310   6.765   7.270 -0.0306 -0.0137  0.1289
  899YOPE   NH313615  14.539   8.557   5.831  0.2179 -0.0663  0.3332
  899YOPE   PO413616  14.302   8.864   5.770  0.0544 -0.3859 -0.0816
  899YOPE   GL113617  14.187   8.951   6.183  0.0456  0.1746 -0.0738
  899YOPE   GL213618  14.258   9.289   6.104 -0.1314  0.0929 -0.0250
  899YOPE   C1A13619  13.993   8.920   6.575  0.1043 -0.1146  0.0012
  899YOPE   D2A13620  13.726   8.851   6.918  0.1145  0.0076 -0.0136
  899YOPE   C3A13621  13.669   8.549   7.083 -0.1384  0.0195  0.0470
  899YOPE   C4A13622  13.665   8.259   7.438  0.1856 -0.0866 -0.4133
  899YOPE   C1B13623  14.356   9.430   6.453  0.0349  0.2469  0.0476
  899YOPE   C2B13624  14.359   9.205   6.900 -0.1716  0.1135  0.3489
  899YOPE   D3B13625  14.087   9.039   7.332 -0.0211 -0.0276 -0.0981
  899YOPE   C4B13626  14.095   8.768   7.712 -0.3655  0.3634 -0.2731
  900YOPE   NH313627   6.150  10.184   5.112 -0.0858  0.0286 -0.1880
  900YOPE   PO413628   6.286  10.045   5.571 -0.0294  0.0026  0.0237
  900YOPE   GL113629   6.189  10.093   5.886  0.0463  0.2023  0.0489
  900YOPE   GL213630   6.230  10.438   5.940  0.0655  0.2738  0.0147
  900YOPE   C1A13631   5.918   9.980   6.315  0.0618 -0.1862 -0.1545
  900YOPE   D2A13632   5.757   9.949   6.713  0.2699  0.2834 -0.1930
  900YOPE   C3A13633   5.858  10.325   6.962  0.2196 -0.3090  0.2479
  900YOPE   C4A13634   5.967  10.786   6.886 -0.1821 -0.3967  0.0366
  900YOPE   C1B13635   5.965  10.815   6.147 -0.1840  0.1310  0.1328
  900YOPE   C2B13636   6.104  11.081   6.349  0.2013  0.1998  0.2598
  900YOPE   D3B13637   6.335  11.052   6.730 -0.0364  0.1195  0.0223
  900YOPE   C4B13638   6.408  11.025   7.166  0.0519  0.2572  0.0602
  901YOPE   NH313639   0.624   8.689   5.437 -0.0568  0.1748 -0.0504
  901YOPE   PO413640   0.650   9.098   5.334  0.0414  0.0747  0.3316
  901YOPE   GL113641   0.743   9.100   5.722  0.0425 -0.2864 -0.1619
  901YOPE   GL213642   1.031   9.142   5.913  0.2789 -0.4390 -0.4319
  901YOPE   C1A13643   0.600   9.044   6.159  0.2273 -0.0236  0.1560
  901YOPE   D2A13644   0.676   8.989   6.588  0.1327 -0.1672 -0.3255
  901YOPE   C3A13645   0.437   9.000   6.998 -0.1157 -0.1136  0.2821
  901YOPE   C4A13646   0.214   8.921   7.359 -0.0345 -0.1262  0.0952
  901YOPE   C1B13647   1.003   9.288   6.367 -0.1176 -0.0189  0.0690
  901YOPE   C2B13648   0.998   9.373   6.735  0.4620  0.4427 -0.0631
  901YOPE   D3B13649   0.749   9.350   7.059 -0.0149 -0.1326  0.2260
  901YOPE   C4B13650   0.428   9.520   7.384 -0.3813  0.0998 -0.2330
  902YOPE   NH313651   5.177   4.354   5.824  0.0948 -0.3642 -0.2026
  902YOPE   PO413652   4.947   4.665   5.770  0.0717  0.0505 -0.2604
  902YOPE   GL113653   5.149   4.710   6.201  0.1526  0.2314 -0.1263
  902YOPE   GL213654   5.339   4.901   6.308 -0.0127  0.1920  0.0269
  902YOPE   C1A13655   5.136   4.578   6.660 -0.0638 -0.1555  0.0929
  902YOPE   D2A13656   4.861   4.333   6.994 -0.0529  0.2166  0.2071
  902YOPE   C3A13657   4.674   4.424   7.366 -0.2537  0.1503  0.0154
  902YOPE   C4A13658   4.758   4.475   7.782 -0.2630  0.2894 -0.2132
  902YOPE   C1B13659   4.989   5.100   6.492 -0.0404  0.0292 -0.1345
  902YOPE   C2B13660   4.891   5.339   6.608 -0.0684 -0.3216  0.2758
  902YOPE   D3B13661   4.943   5.718   6.797 -0.1565  0.1052 -0.2436
  902YOPE   C4B13662   5.028   6.186   6.842 -0.0446  0.1341  0.1322
  903YOPE   NH313663   6.552  17.904   5.202 -0.2404 -0.2436 -0.0206
  903YOPE   PO413664   6.277  18.298   5.278 -0.0932 -0.2373  0.4162
  903YOPE   GL113665   6.488  18.323   5.629  0.0162  0.0999 -0.3517
  903YOPE   GL213666   6.647  18.672   5.726  0.4633 -0.2859 -0.1011
  903YOPE   C1A13667   6.621  18.301   6.097 -0.1505 -0.2087  0.3667
  903YOPE   D2A13668   6.625  18.468   6.429  0.2966 -0.0154 -0.0738
  903YOPE   C3A13669   6.777  18.304   6.818  0.2598 -0.1451 -0.0684
  903YOPE   C4A13670   6.994  18.394   7.170 -0.1284 -0.2244  0.2333
  903YOPE   C1B13671   6.970  18.853   5.991  0.1727  0.1197 -0.1175
  903YOPE   C2B13672   7.221  19.129   6.122 -0.1344 -0.1010  0.1897
  903YOPE   D3B13673   7.412  19.192   6.568  0.5672  0.2183  0.0733
  903YOPE   C4B13674   7.638  19.046   6.860 -0.0614  0.1658 -0.2163
  904YOPE   NH313675  15.255  11.422   6.101  0.0566  0.2489  0.3246
  904YOPE   PO413676  14.793  11.560   6.189 -0.2139  0.0833  0.1415
  904YOPE   GL113677  14.784  11.736   6.594  0.2589 -0.1242  0.3081
  904YOPE   GL213678  14.588  11.981   6.558  0.0041  0.0154  0.2126
  904YOPE   C1A13679  14.803  11.783   7.029 -0.0486 -0.0482  0.0557
  904YOPE   D2A13680  14.873  11.939   7.404 -0.0500 -0.2501 -0.2624
  904YOPE   C3A13681  15.067  11.751   7.676  0.1130  0.2746  0.0766
  904YOPE   C4A13682  15.333  11.434   7.954 -0.0744 -0.3303  0.1563
  904YOPE   C1B13683  14.325  12.028   6.569  0.0201  0.0299 -0.0659
  904YOPE   C2B13684  14.016  12.150   6.709 -0.3563 -0.0405  0.2425
  904YOPE   D3B13685  13.883  12.370   7.077 -0.3804  0.0734 -0.0388
  904YOPE   C4B13686  13.857  12.108   7.448  0.0865 -0.1736  0.0158
  905YOPE   NH313687   0.541   3.667   5.847  0.0171 -0.0768  0.2284
  905YOPE   PO413688   0.445   3.285   5.739 -0.0396 -0.0042 -0.0512
  905YOPE   GL113689   0.346   3.284   6.133 -0.3725  0.0250  0.0316
  905YOPE   GL213690   0.596   3.059   6.334  0.1150  0.2380  0.4442
  905YOPE   C1A13691   0.114   3.335   6.530  0.1965  0.1530 -0.1599
  905YOPE   D2A13692   0.234   3.182   6.924  0.1297  0.1383 -0.1016
  905YOPE   C3A13693   0.281   3.318   7.262  0.0820  0.0764  0.0192
  905YOPE   C4A13694   0.525   3.678   7.485 -0.2661 -0.0856  0.0821
  905YOPE   C1B13695   0.815   3.086   6.739 -0.1389  0.1267 -0.1326
  905YOPE   C2B13696   1.025   2.987   7.155 -0.0054 -0.4026 -0.0854
  905YOPE   D3B13697   1.114   2.871   7.469 -0.2355 -0.0413 -0.3098
  905YOPE   C4B13698   1.360   2.548   7.617 -0.0306 -0.0487 -0.1727
  906YOPE   NH313699  15.059  16.220   5.807  0.3600 -0.1644  0.0685
  906YOPE   PO413700  14.898  15.907   5.959 -0.0718  0.2225 -0.1909
  906YOPE   GL113701  15.169  15.941   6.238  0.2087  0.0424 -0.2758
  906YOPE   GL213702  15.341  16.253   6.224  0.1177  0.1333 -0.0327
  906YOPE   C1A13703  15.324  15.943   6.656 -0.1702 -0.2558 -0.0668
  906YOPE   D2A13704  15.488  16.047   7.063  0.2153  0.0987 -0.0329
  906YOPE   C3A13705  15.673  15.739   7.137  0.1429 -0.1624 -0.0817
  906YOPE   C4A13706  15.866  15.576   7.537 -0.0908  0.1544  0.2022
  906YOPE   C1B13707  15.434  16.451   6.581  0.1707  0.2330  0.0620
  906YOPE   C2B13708  15.629  16.478   6.932 -0.0561 -0.2456  0.0395
  906YOPE   D3B13709  15.477  16.592   7.308 -0.1775  0.1415 -0.0836
  906YOPE   C4B13710  15.558  16.678   7.761  0.2494  0.1037  0.0087
  907YOPE   NH313711  11.013   3.619   5.408  0.3177  0.0932 -0.0677
  907YOPE   PO413712  10.518   3.734   5.396 -0.1454 -0.0808 -0.1521
  907YOPE   GL113713  10.457   3.834   5.823 -0.2088 -0.2367 -0.0614
  907YOPE   GL213714  10.782   3.786   6.006 -0.3700  0.0126 -0.2442
  907YOPE   C1A13715  10.192   3.842   6.188 -0.0953  0.0489 -0.2157
  907YOPE   D2A13716   9.971   3.659   6.418 -0.0616  0.0343 -0.1327
  907YOPE   C3A13717   9.628   3.611   6.681  0.0944 -0.0720 -0.0332
  907YOPE   C4A13718   9.239   3.511   7.013 -0.0489 -0.1744  0.3428
  907YOPE   C1B13719  10.675   3.868   6.376  0.1368 -0.0905 -0.0486
  907YOPE   C2B13720  10.448   3.845   6.721  0.0154 -0.0108  0.0132
  907YOPE   D3B13721  10.141   3.833   6.832 -0.1824 -0.2103 -0.1213
  907YOPE   C4B13722   9.802   3.875   7.069  0.1327 -0.3106  0.2466
  908YOPE   NH313723   2.408  13.355   5.394  0.3264 -0.5159  0.0302
  908YOPE   PO413724   2.576  12.989   5.260 -0.1890  0.0176  0.0151
  908YOPE   GL113725   2.552  12.813   5.666  0.2736 -0.2319 -0.1188
  908YOPE   GL213726   2.319  12.622   5.767 -0.0066 -0.2473  0.0947
  908YOPE   C1A13727   2.767  12.834   5.949 -0.3247  0.1414  0.1042
  908YOPE   D2A13728   3.128  12.972   6.055  0.0221  0.2091 -0.0219
  908YOPE   C3A13729   3.207  12.905   6.410 -0.1351  0.3491  0.0672
  908YOPE   C4A13730   3.087  12.981   6.671  0.0606 -0.3742 -0.1611
  908YOPE   C1B13731   2.296  12.947   6.180  0.0448  0.0693  0.3071
  908YOPE   C2B13732   2.057  13.019   6.648  0.0528 -0.2955  0.2546
  908YOPE   D3B13733   1.654  12.794   6.675 -0.1240 -0.1985  0.1256
  908YOPE   C4B13734   1.557  12.495   6.936 -0.3579 -0.3693  0.0093
  909YOPE   NH313735  17.799   3.940   5.960 -0.1680 -0.0808 -0.1998
  909YOPE   PO413736  18.049   4.389   5.961  0.1100 -0.0107 -0.0038
  909YOPE   GL113737  18.172   4.393   6.356  0.0510 -0.1739  0.0928
  909YOPE   GL213738  18.137   4.720   6.544  0.0187  0.0185  0.2538
  909YOPE   C1A13739  18.158   4.289   6.799  0.5225 -0.0028 -0.0827
  909YOPE   D2A13740  18.375   4.305   7.136 -0.0779 -0.1259 -0.0249
  909YOPE   C3A13741  18.114   4.014   7.252 -0.1189  0.0634 -0.0292
  909YOPE   C4A13742  18.210   3.605   7.257  0.1201 -0.0405 -0.2220
  909YOPE   C1B13743  17.909   4.863   6.918  0.1168  0.1408  0.0826
  909YOPE   C2B13744  17.768   5.135   7.327 -0.1290  0.0576 -0.1212
  909YOPE   D3B13745  17.764   5.244   7.704 -0.2043  0.2114  0.1496
  909YOPE   C4B13746  17.875   5.614   7.919 -0.1528  0.0437  0.1194
  910YOPE   NH313747   1.409  15.615   5.301 -0.0016 -0.0555 -0.3650
  910YOPE   PO413748   1.807  15.615   5.114  0.1833  0.3363 -0.4446
  910YOPE   GL113749   1.903  15.465   5.594  0.1845 -0.3374  0.1051
  910YOPE   GL213750   2.236  15.502   5.653  0.0017  0.1739 -0.2967
  910YOPE   C1A13751   1.860  15.625   6.020  0.1426 -0.0031 -0.2492
  910YOPE   D2A13752   1.804  15.987   6.320 -0.5087  0.0778  0.1649
  910YOPE   C3A13753   1.477  16.205   6.570  0.1698  0.3965  0.0753
  910YOPE   C4A13754   1.427  16.503   6.962  0.2764 -0.0100  0.4770
  910YOPE   C1B13755   2.173  15.254   6.129 -0.0338 -0.4121 -0.2241
  910YOPE   C2B13756   2.144  14.933   6.462  0.1993 -0.2426  0.0814
  910YOPE   D3B13757   2.177  14.734   6.813 -0.1757 -0.1815 -0.1986
  910YOPE   C4B13758   2.052  14.516   7.152 -0.1863  0.0398  0.1033
  911YOPE   NH313759   9.999  15.448   5.450  0.0556 -0.0199 -0.1566
  911YOPE   PO413760  10.322  15.235   5.256  0.0262 -0.0556 -0.2003
  911YOPE   GL113761  10.380  15.314   5.669  0.1699 -0.1882 -0.0434
  911YOPE   GL213762  10.280  15.620   5.832 -0.1288  0.0843  0.0903
  911YOPE   C1A13763  10.654  15.332   6.033 -0.2656  0.1427 -0.0085
  911YOPE   D2A13764  10.902  15.212   6.426 -0.0202 -0.1074  0.0362
  911YOPE   C3A13765  11.129  15.321   6.732  0.0330  0.0300 -0.0422
  911YOPE   C4A13766  11.589  15.328   6.938 -0.2855 -0.0831 -0.0010
  911YOPE   C1B13767  10.090  15.453   6.148 -0.0172 -0.0807 -0.0411
  911YOPE   C2B13768  10.374  15.207   6.468 -0.0840 -0.0327  0.1991
  911YOPE   D3B13769  10.586  15.169   6.813  0.2187 -0.1203 -0.2830
  911YOPE   C4B13770  10.743  15.220   7.160  0.3076 -0.0864  0.3186
  912YOPE   NH313771   8.082  11.366   5.245 -0.1809  0.3348 -0.3106
  912YOPE   PO413772   8.386  11.050   5.215 -0.0208  0.1349  0.0526
  912YOPE   GL113773   8.543  11.297   5.619 -0.0240 -0.0816  0.0055
  912YOPE   GL213774   8.232  11.367   5.731 -0.0962  0.2959 -0.1206
  912YOPE   C1A13775   8.494  11.023   6.101 -0.2289  0.2432 -0.0772
  912YOPE   D2A13776   8.398  11.085   6.578 -0.2593 -0.0872 -0.0066
  912YOPE   C3A13777   8.548  11.424   6.776 -0.2641  0.1393  0.0290
  912YOPE   C4A13778   8.910  11.648   6.868  0.4297 -0.1053  0.0236
  912YOPE   C1B13779   8.285  11.520   6.168 -0.2867  0.2108  0.0053
  912YOPE   C2B13780   8.136  11.547   6.534 -0.0690  0.0536 -0.1528
  912YOPE   D3B13781   7.908  11.718   6.922  0.0195  0.0413 -0.0744
  912YOPE   C4B13782   8.049  11.976   7.288 -0.0309  0.0271  0.0025
  913YOPE   NH313783  17.788   0.394   6.078 -0.0904 -0.1462  0.4601
  913YOPE   PO413784  17.372   0.306   6.167  0.0486 -0.3372 -0.0782
  913YOPE   GL113785  17.181   0.223   6.533  0.2842  0.1933 -0.1627
  913YOPE   GL213786  17.007  -0.075   6.333 -0.0414 -0.0546 -0.0278
  913YOPE   C1A13787  17.295   0.069   6.946 -0.0735  0.1799  0.2472
  913YOPE   D2A13788  17.000   0.088   7.353 -0.0798 -0.2872  0.4144
  913YOPE   C3A13789  16.474   0.104   7.325  0.0025  0.0109  0.1711
  913YOPE   C4A13790  16.266   0.241   7.025 -0.3456 -0.3335  0.0411
  913YOPE   C1B13791  16.659  -0.272   6.557  0.1020  0.1086 -0.0730
  913YOPE   C2B13792  16.472  -0.219   6.920  0.0350 -0.0116 -0.0236
  913YOPE   D3B13793  16.701  -0.428   7.380 -0.0660  0.2876  0.2162
  913YOPE   C4B13794  17.032  -0.619   7.742 -0.1372 -0.3136 -0.2962
  914YOPE   NH313795  18.283  10.729   5.763 -0.2175  0.1756  0.1768
  914YOPE   PO413796  17.850  10.730   5.600  0.3740  0.0615  0.1460
  914YOPE   GL113797  17.701  10.688   6.041  0.0888 -0.2075  0.0451
  914YOPE   GL213798  17.976  10.531   6.126 -0.0761 -0.2647 -0.4668
  914YOPE   C1A13799  17.767  10.660   6.550 -0.0206  0.0314  0.0456
  914YOPE   D2A13800  17.692  10.512   7.014  0.1113  0.1137 -0.1151
  914YOPE   C3A13801  17.871  10.443   7.542  0.2649  0.0187  0.1893
  914YOPE   C4A13802  17.822  10.811   7.855 -0.0423  0.1428 -0.2484
  914YOPE   C1B13803  18.263  10.355   6.445  0.2691  0.0676 -0.0195
  914YOPE   C2B13804  18.369  10.337   6.854  0.3107  0.1362  0.0224
  914YOPE   D3B13805  18.181  10.594   7.128  0.0616  0.3522  0.0524
  914YOPE   C4B13806  17.894  10.912   7.318  0.1278 -0.1221 -0.0106
  915YOPE   NH313807   0.383   5.009   6.002  0.0488  0.1094 -0.1599
  915YOPE   PO413808  -0.026   4.833   6.037  0.2646 -0.0224  0.7027
  915YOPE   GL113809  -0.207   5.014   6.421  0.3808  0.2290 -0.0107
  915YOPE   GL213810  -0.246   4.694   6.581 -0.0722  0.1252 -0.1091
  915YOPE   C1A13811  -0.198   5.332   6.822 -0.0543 -0.0479  0.1762
  915YOPE   D2A13812  -0.531   5.528   7.179 -0.0397 -0.1344 -0.0907
  915YOPE   C3A13813  -0.805   5.621   7.420  0.0869 -0.3145 -0.1275
  915YOPE   C4A13814  -0.923   6.041   7.697 -0.1007  0.2984  0.0822
  915YOPE   C1B13815  -0.434   4.868   7.004 -0.1613  0.4002 -0.1112
  915YOPE   C2B13816  -0.727   4.690   7.323  0.0317 -0.1328 -0.2107
  915YOPE   D3B13817  -0.751   4.370   7.617  0.1533 -0.0358 -0.2737
  915YOPE   C4B13818  -0.747   4.317   8.017 -0.0323 -0.0605 -0.1584
  916YOPE   NH313819   9.727  12.544   4.500 -0.1875 -0.3593  0.0659
  916YOPE   PO413820   9.925  12.998   4.774  0.1393  0.1646 -0.0723
  916YOPE   GL113821   9.906  12.819   5.194 -0.0833  0.3281  0.3714
  916YOPE   GL213822   9.625  12.813   5.412  0.1093  0.3053  0.2300
  916YOPE   C1A13823   9.876  12.411   5.521  0.0825 -0.0179  0.3160
  916YOPE   D2A13824   9.801  11.980   5.509  0.1216 -0.0241 -0.2285
  916YOPE   C3A13825   9.714  11.827   5.874  0.1772 -0.1242 -0.1216
  916YOPE   C4A13826   9.274  11.664   6.019  0.1070  0.2691 -0.2780
  916YOPE   C1B13827   9.347  12.905   5.703  0.1590 -0.0396  0.0940
  916YOPE   C2B13828   8.991  12.596   5.989 -0.1099  0.0393  0.2113
  916YOPE   D3B13829   9.008  12.595   6.401  0.1749 -0.0789 -0.2755
  916YOPE   C4B13830   8.934  12.536   6.860  0.2297 -0.1633 -0.2761
  917YOPE   NH313831  10.570  11.075   5.458 -0.0961  0.0651 -0.2172
  917YOPE   PO413832  10.251  11.476   5.486  0.0186  0.2052 -0.1530
  917YOPE   GL113833  10.314  11.364   5.906  0.2053 -0.1251 -0.2045
  917YOPE   GL213834  10.320  11.038   6.099  0.3473  0.0033 -0.3688
  917YOPE   C1A13835  10.282  11.560   6.316  0.1757  0.5338  0.3838
  917YOPE   D2A13836  10.187  11.734   6.771  0.0891 -0.2647 -0.1734
  917YOPE   C3A13837  10.522  12.017   7.002  0.1464 -0.0429 -0.3933
  917YOPE   C4A13838  10.763  11.961   7.375  0.1229 -0.0724 -0.0964
  917YOPE   C1B13839  10.604  11.183   6.405  0.1806 -0.0852 -0.1977
  917YOPE   C2B13840  10.714  11.052   6.777 -0.0200  0.0311  0.1452
  917YOPE   D3B13841  10.909  10.880   7.066  0.0518  0.0657 -0.0710
  917YOPE   C4B13842  10.919  10.687   7.526 -0.0285 -0.1489 -0.0247
  918YOPE   NH313843  12.681  18.404   5.519  0.0950 -0.3240  0.1477
  918YOPE   PO413844  12.964  18.775   5.674  0.0298  0.0432 -0.2422
  918YOPE   GL113845  12.780  18.475   6.022  0.2926 -0.3164 -0.0731
  918YOPE   GL213846  13.036  18.390   6.218  0.5991  0.4467 -0.2101
  918YOPE   C1A13847  12.594  18.417   6.545  0.1835  0.0614  0.0289
  918YOPE   D2A13848  12.214  18.476   6.840 -0.0359 -0.1367  0.0549
  918YOPE   C3A13849  12.055  18.186   7.163  0.5172 -0.1054  0.2343
  918YOPE   C4A13850  11.834  17.836   7.159 -0.2541 -0.0214 -0.0744
  918YOPE   C1B13851  13.255  18.425   6.565 -0.1203  0.0440 -0.0653
  918YOPE   C2B13852  13.180  18.316   6.921  0.1935  0.0761 -0.1011
  918YOPE   D3B13853  12.978  18.428   7.394  0.2747  0.0748 -0.1572
  918YOPE   C4B13854  12.745  18.383   7.797 -0.0127  0.0024  0.4049
  919YOPE   NH313855  16.947  13.190   5.874  0.2649  0.1335  0.1438
  919YOPE   PO413856  17.271  13.025   5.845  0.2246 -0.0764 -0.1004
  919YOPE   GL113857  17.259  13.287   6.228  0.2273  0.3354  0.2186
  919YOPE   GL213858  17.459  13.557   6.174  0.0729  0.2277  0.0604
  919YOPE   C1A13859  17.149  13.160   6.674 -0.0677 -0.5209 -0.1130
  919YOPE   D2A13860  17.380  13.133   7.055  0.2240 -0.2334 -0.0997
  919YOPE   C3A13861  17.219  13.065   7.542  0.0253 -0.0046 -0.1491
  919YOPE   C4A13862  17.385  12.826   7.810 -0.2076  0.0330 -0.1976
  919YOPE   C1B13863  17.554  13.516   6.635  0.0128 -0.4309 -0.0609
  919YOPE   C2B13864  17.713  13.691   6.957 -0.2060  0.0462  0.0422
  919YOPE   D3B13865  17.680  13.823   7.357  0.0405 -0.3745 -0.1002
  919YOPE   C4B13866  17.450  14.035   7.600  0.0109 -0.1452 -0.0288
  920YOPE   NH313867   2.825  18.584   5.522 -0.1047  0.1081  0.3604
  920YOPE   PO413868   2.536  18.325   5.428  0.1117 -0.0213 -0.1436
  920YOPE   GL113869   2.373  18.485   5.798 -0.1547  0.1550 -0.3233
  920YOPE   GL213870   2.234  18.690   5.849  0.1548 -0.0391  0.0895
  920YOPE   C1A13871   2.565  18.433   6.265 -0.0480 -0.0078 -0.1936
  920YOPE   D2A13872   2.850  18.206   6.522 -0.1474 -0.0295  0.3567
  920YOPE   C3A13873   3.002  18.113   6.942 -0.0271 -0.0791  0.0035
  920YOPE   C4A13874   3.017  17.958   7.367 -0.0624  0.2751 -0.1680
  920YOPE   C1B13875   2.085  18.501   6.277 -0.1374  0.0745 -0.1580
  920YOPE   C2B13876   1.847  18.344   6.597  0.2256 -0.0774  0.0327
  920YOPE   D3B13877   1.594  18.187   6.916 -0.3663 -0.2523  0.1762
  920YOPE   C4B13878   1.583  17.746   6.996  0.2808 -0.1669  0.2422
  921YOPE   NH313879  12.449  14.731   5.394  0.0006  0.0344 -0.0638
  921YOPE   PO413880  12.733  14.387   5.388 -0.4161 -0.0489 -0.1553
  921YOPE   GL113881  12.816  14.292   5.811 -0.2364  0.1572 -0.1807
  921YOPE   GL213882  13.085  14.291   5.954  0.1208  0.2066  0.0740
  921YOPE   C1A13883  12.673  14.046   6.113  0.1159  0.0378 -0.1482
  921YOPE   D2A13884  12.867  14.176   6.494 -0.1014 -0.0650  0.0415
  921YOPE   C3A13885  12.734  14.000   6.977 -0.0120 -0.0413  0.1674
  921YOPE   C4A13886  12.707  13.750   7.431 -0.0127 -0.0198  0.2362
  921YOPE   C1B13887  13.362  14.368   6.286  0.0836 -0.0629  0.2786
  921YOPE   C2B13888  13.506  14.700   6.634 -0.0471  0.0382 -0.1341
  921YOPE   D3B13889  13.282  14.637   7.081 -0.0827  0.2162  0.0463
  921YOPE   C4B13890  13.230  14.679   7.483  0.1101 -0.1354  0.0248
  922YOPE   NH313891   4.025   2.021   5.189 -0.1044 -0.1822  0.1572
  922YOPE   PO413892   3.706   1.763   5.449 -0.0121  0.0003  0.1223
  922YOPE   GL113893   3.516   1.886   5.766  0.2587  0.0199 -0.0802
  922YOPE   GL213894   3.211   2.183   5.721 -0.1532 -0.1531  0.1136
  922YOPE   C1A13895   3.415   1.585   6.176 -0.4201 -0.0519 -0.0164
  922YOPE   D2A13896   3.306   1.317   6.506 -0.4350 -0.1653 -0.1171
  922YOPE   C3A13897   3.467   1.281   6.876  0.1248 -0.1602  0.0878
  922YOPE   C4A13898   3.309   1.217   7.294 -0.0598  0.1723 -0.3927
  922YOPE   C1B13899   3.245   2.152   6.116 -0.1883  0.1778  0.2143
  922YOPE   C2B13900   3.146   2.220   6.651 -0.2284  0.1032 -0.0478
  922YOPE   D3B13901   3.142   2.423   7.141  0.2103 -0.1338 -0.0034
  922YOPE   C4B13902   3.084   2.724   7.384 -0.0648 -0.0998 -0.0739
  923YOPE   NH313903  17.096  16.634   5.865 -0.0469 -0.0710  0.1624
  923YOPE   PO413904  17.510  16.736   5.941  0.0852 -0.1829 -0.2146
  923YOPE   GL113905  17.614  16.943   6.313  0.1541  0.4648 -0.0866
  923YOPE   GL213906  17.482  16.743   6.529 -0.1773  0.0635  0.3775
  923YOPE   C1A13907  17.765  17.094   6.716  0.1952 -0.0071 -0.0732
  923YOPE   D2A13908  17.711  17.158   7.130 -0.0974 -0.1089  0.0675
  923YOPE   C3A13909  17.573  17.298   7.506 -0.1789 -0.0268 -0.1592
  923YOPE   C4A13910  17.477  17.358   7.957 -0.1517  0.1306 -0.1255
  923YOPE   C1B13911  17.352  16.812   6.954  0.1218 -0.1273 -0.1189
  923YOPE   C2B13912  17.110  17.073   7.282  0.1636  0.0116  0.2812
  923YOPE   D3B13913  17.258  16.974   7.650  0.2154 -0.2540 -0.0027
  923YOPE   C4B13914  17.404  16.453   7.718 -0.1564  0.2540  0.0510
  924YOPE   NH313915  15.616  16.488   5.226 -0.1147 -0.0390  0.1677
  924YOPE   PO413916  15.218  16.596   5.558  0.4085 -0.0707  0.1168
  924YOPE   GL113917  15.177  16.870   5.933 -0.1421  0.0163  0.2762
  924YOPE   GL213918  14.939  16.590   6.164  0.0787  0.0842 -0.1124
  924YOPE   C1A13919  15.373  16.908   6.300  0.1530 -0.0864  0.2238
  924YOPE   D2A13920  15.113  16.825   6.661  0.0956  0.2496 -0.0532
  924YOPE   C3A13921  15.201  17.010   7.028 -0.0531  0.2178 -0.1295
  924YOPE   C4A13922  15.432  17.370   7.158 -0.0240  0.3130  0.5974
  924YOPE   C1B13923  14.875  17.077   6.239  0.0650  0.2246  0.2071
  924YOPE   C2B13924  15.142  17.338   6.332 -0.5095 -0.0372  0.2110
  924YOPE   D3B13925  15.556  17.322   6.521 -0.0399  0.1434  0.0132
  924YOPE   C4B13926  15.680  17.001   6.856 -0.2950  0.0807 -0.4738
  925YOPE   NH313927   8.296  10.084   5.254 -0.0638  0.0336  0.3286
  925YOPE   PO413928   8.672  10.016   5.157 -0.0204 -0.0983  0.0142
  925YOPE   GL113929   8.712  10.065   5.582  0.0796  0.0746 -0.1697
  925YOPE   GL213930   8.814   9.802   5.762 -0.1160 -0.1262  0.2562
  925YOPE   C1A13931   8.778  10.387   5.837 -0.0834  0.0776  0.2241
  925YOPE   D2A13932   9.014  10.751   5.895 -0.0260 -0.1824  0.2649
  925YOPE   C3A13933   8.880  11.234   6.010 -0.2303  0.1927  0.0445
  925YOPE   C4A13934   8.797  11.526   6.325 -0.1267 -0.1632 -0.3100
  925YOPE   C1B13935   8.937   9.954   6.086 -0.2787 -0.2050  0.1806
  925YOPE   C2B13936   8.952  10.401   6.339 -0.1415 -0.0017 -0.0391
  925YOPE   D3B13937   8.955  10.731   6.357  0.0287  0.1464  0.0982
  925YOPE   C4B13938   8.888  11.045   6.471 -0.0285 -0.0867  0.0046
  926YOPE   NH313939  10.723   2.058   5.537 -0.0535  0.1699 -0.0494
  926YOPE   PO413940  10.632   1.727   5.602 -0.1890  0.0238 -0.1918
  926YOPE   GL113941  10.437   1.851   5.972 -0.1846  0.2549  0.4306
  926YOPE   GL213942  10.293   1.608   6.146 -0.0559  0.1163 -0.0081
  926YOPE   C1A13943  10.654   1.884   6.286 -0.0216  0.2032 -0.3205
  926YOPE   D2A13944  10.944   1.940   6.639  0.2156  0.0074 -0.0984
  926YOPE   C3A13945  11.156   1.570   6.883 -0.1947  0.1689 -0.1578
  926YOPE   C4A13946  11.516   1.267   6.941 -0.0049  0.3416 -0.3481
  926YOPE   C1B13947  10.302   1.456   6.537 -0.0877 -0.1810  0.0864
  926YOPE   C2B13948  10.272   1.072   6.922  0.2414  0.0468 -0.0914
  926YOPE   D3B13949  10.446   0.928   7.293  0.0803  0.4294 -0.1883
  926YOPE   C4B13950  10.716   0.714   7.589 -0.1516  0.2763 -0.0500
  927YOPE   NH313951  12.892   4.986   5.634  0.0460  0.0960  0.0184
  927YOPE   PO413952  13.244   4.645   5.654 -0.1911 -0.2750  0.0370
  927YOPE   GL113953  13.392   4.650   6.069 -0.0476 -0.0839 -0.2698
  927YOPE   GL213954  13.796   4.582   6.176  0.0557 -0.0973 -0.2416
  927YOPE   C1A13955  13.238   4.686   6.458 -0.1919 -0.2043  0.4206
  927YOPE   D2A13956  13.078   4.350   6.698  0.1953  0.1480  0.1372
  927YOPE   C3A13957  12.737   4.319   6.947 -0.0378  0.0205  0.2106
  927YOPE   C4A13958  12.483   4.504   7.222  0.0693  0.3849 -0.2833
  927YOPE   C1B13959  13.675   4.695   6.634  0.1501 -0.0761 -0.3505
  927YOPE   C2B13960  13.337   4.712   6.960 -0.2513  0.0152 -0.2524
  927YOPE   D3B13961  13.180   4.426   7.245  0.0345 -0.0550  0.1225
  927YOPE   C4B13962  12.866   4.227   7.459 -0.1059 -0.4049  0.0325
  928YOPE   NH313963   8.745  14.803   5.553 -0.1539 -0.4606 -0.0946
  928YOPE   PO413964   9.104  15.095   5.578 -0.1270  0.3708 -0.2102
  928YOPE   GL113965   9.131  15.031   5.913  0.2437 -0.0809  0.1869
  928YOPE   GL213966   8.913  14.735   6.038  0.2072  0.2978 -0.1719
  928YOPE   C1A13967   9.310  15.120   6.286 -0.0784  0.0093 -0.4214
  928YOPE   D2A13968   9.314  14.931   6.672  0.0368  0.1283 -0.2706
  928YOPE   C3A13969   9.296  15.106   7.141  0.1065  0.1879 -0.2272
  928YOPE   C4A13970   9.373  15.141   7.570 -0.1507 -0.3440  0.1140
  928YOPE   C1B13971   9.203  14.447   6.263  0.0147 -0.1812  0.1996
  928YOPE   C2B13972   9.292  14.310   6.666  0.1543 -0.1155  0.1012
  928YOPE   D3B13973   9.292  14.114   7.158  0.2677 -0.0649  0.0842
  928YOPE   C4B13974   9.314  13.797   7.530 -0.1885 -0.0805 -0.1468
  929YOPE   NH313975   4.677  10.341   5.450  0.0686 -0.1754 -0.3144
  929YOPE   PO413976   4.459  10.586   5.596 -0.0172 -0.1334  0.2398
  929YOPE   GL113977   4.673  10.638   5.901  0.0645  0.0281  0.2195
  929YOPE   GL213978   4.973  10.980   5.955  0.0107 -0.0701  0.0063
  929YOPE   C1A13979   4.692  10.467   6.418  0.1925 -0.1762 -0.2242
  929YOPE   D2A13980   4.774  10.476   6.818  0.2092 -0.0014 -0.0992
  929YOPE   C3A13981   5.021  10.682   7.127  0.1160 -0.0197  0.0966
  929YOPE   C4A13982   5.175  10.670   7.507  0.2385 -0.2182  0.0775
  929YOPE   C1B13983   4.847  11.006   6.311  0.2036 -0.1568 -0.4791
  929YOPE   C2B13984   4.769  10.983   6.712  0.2334 -0.1811 -0.0588
  929YOPE   D3B13985   4.635  11.047   7.210 -0.0759  0.0102  0.1026
  929YOPE   C4B13986   4.414  11.008   7.555  0.1170  0.1696  0.0534
  930YOPE   NH313987   3.239   2.707   5.492  0.1941  0.1879  0.0533
  930YOPE   PO413988   2.859   2.478   5.507 -0.1561 -0.0497  0.1476
  930YOPE   GL113989   2.870   2.584   5.856 -0.1348  0.1697  0.1257
  930YOPE   GL213990   2.699   2.306   5.985  0.1244 -0.0115  0.0040
  930YOPE   C1A13991   3.088   2.620   6.216 -0.1523  0.0987  0.1761
  930YOPE   D2A13992   3.236   2.745   6.659 -0.4258  0.0187 -0.0005
  930YOPE   C3A13993   3.014   2.988   7.001  0.1203 -0.1300  0.1097
  930YOPE   C4A13994   2.909   3.262   7.204 -0.1805 -0.4648 -0.3859
  930YOPE   C1B13995   2.615   2.204   6.394 -0.0960  0.1780 -0.0520
  930YOPE   C2B13996   2.544   1.896   6.747  0.1753  0.2468 -0.2275
  930YOPE   D3B13997   2.142   1.694   6.816 -0.1820  0.0500  0.0859
  930YOPE   C4B13998   2.290   1.398   6.828 -0.3156 -0.1341 -0.1554
  931YOPE   NH313999   6.019   4.681   5.825 -0.0880  0.0933 -0.2892
  931YOPE   PO414000   5.674   4.346   5.739  0.3426  0.2740  0.0090
  931YOPE   GL114001   5.697   4.478   6.186 -0.1103 -0.2652  0.2523
  931YOPE   GL214002   5.776   4.735   6.297  0.2915 -0.2498 -0.2656
  931YOPE   C1A14003   5.580   4.300   6.485  0.0020 -0.2809 -0.1071
  931YOPE   D2A14004   5.385   4.112   6.761 -0.0908  0.4354  0.1512
  931YOPE   C3A14005   5.635   3.871   6.892 -0.3465  0.1120 -0.0458
  931YOPE   C4A14006   5.895   3.617   7.087  0.1683 -0.0681  0.3317
  931YOPE   C1B14007   5.961   4.536   6.676  0.1858 -0.1321  0.2367
  931YOPE   C2B14008   5.766   4.404   6.982  0.3011 -0.0821 -0.1302
  931YOPE   D3B14009   5.406   4.406   7.192 -0.2446  0.2940 -0.2856
  931YOPE   C4B14010   5.264   4.585   7.476 -0.2391  0.1363 -0.1279
  932YOPE   NH314011   5.238   2.666   5.658  0.2794  0.1113  0.0608
  932YOPE   PO414012   5.150   2.337   5.757 -0.0469 -0.2145  0.0255
  932YOPE   GL114013   5.331   2.330   6.119  0.1105 -0.2637  0.2359
  932YOPE   GL214014   5.630   2.128   6.162  0.0321  0.1636  0.4520
  932YOPE   C1A14015   5.328   2.374   6.649 -0.0476  0.1038  0.2179
  932YOPE   D2A14016   5.042   2.233   6.953 -0.0337  0.0069 -0.0318
  932YOPE   C3A14017   5.116   2.001   7.312  0.0327 -0.0230 -0.4655
  932YOPE   C4A14018   5.223   1.965   7.673 -0.1507  0.1571  0.0458
  932YOPE   C1B14019   5.865   2.467   6.391  0.0091 -0.1094 -0.2216
  932YOPE   C2B14020   6.084   2.761   6.671  0.2908  0.2205 -0.3179
  932YOPE   D3B14021   6.402   2.946   6.953  0.0832  0.2066  0.2909
  932YOPE   C4B14022   6.807   2.683   6.947  0.0393 -0.1315 -0.2674
  933YOPE   NH314023  18.311   4.851   6.029 -0.2860  0.4005  0.1580
  933YOPE   PO414024  18.214   5.197   6.340 -0.0682  0.2883 -0.3305
  933YOPE   GL114025  18.203   5.453   6.710 -0.1387 -0.0501 -0.1420
  933YOPE   GL214026  18.269   5.775   6.689  0.2590 -0.1391 -0.1463
  933YOPE   C1A14027  17.786   5.465   7.022 -0.0629 -0.1658 -0.0901
  933YOPE   D2A14028  17.541   5.672   7.451  0.1978  0.0621 -0.1177
  933YOPE   C3A14029  17.101   5.662   7.450 -0.2838 -0.2171 -0.0398
  933YOPE   C4A14030  16.781   5.543   7.324 -0.0625 -0.1274 -0.1808
  933YOPE   C1B14031  18.024   5.929   7.031 -0.1942  0.0221  0.2639
  933YOPE   C2B14032  17.747   6.214   7.239 -0.0453 -0.3580 -0.1517
  933YOPE   D3B14033  17.689   6.498   7.540 -0.0584 -0.0579  0.1748
  933YOPE   C4B14034  17.817   6.381   7.986  0.1620 -0.1037 -0.1357
  934YOPE   NH314035  17.098   1.127   5.919 -0.2624  0.1580 -0.1600
  934YOPE   PO414036  16.779   1.459   5.996 -0.1778  0.1317  0.0195
  934YOPE   GL114037  16.964   1.442   6.402 -0.0760  0.0074 -0.1186
  934YOPE   GL214038  16.918   1.107   6.464  0.0852 -0.1196  0.0325
  934YOPE   C1A14039  17.146   1.474   6.847  0.2283 -0.2867 -0.0189
  934YOPE   D2A14040  17.059   1.271   7.188 -0.2091  0.0246  0.0104
  934YOPE   C3A14041  16.923   1.329   7.516  0.2004 -0.2059 -0.2959
  934YOPE   C4A14042  16.897   1.488   7.997  0.0436  0.1095  0.2161
  934YOPE   C1B14043  16.661   1.425   6.742  0.0372 -0.1329  0.2022
  934YOPE   C2B14044  16.181   1.422   6.645 -0.2030 -0.0525  0.2367
  934YOPE   D3B14045  15.802   1.363   6.977  0.1205  0.2459 -0.2645
  934YOPE   C4B14046  15.512   1.622   7.185 -0.4346  0.0037 -0.2858
  935YOPE   NH314047   8.148   9.049   5.501 -0.0392  0.0353 -0.2928
  935YOPE   PO414048   8.338   8.670   5.502  0.1575  0.0220 -0.4604
  935YOPE   GL114049   8.364   8.556   5.844  0.1608 -0.0251  0.1551
  935YOPE   GL214050   8.234   8.744   6.095  0.3397  0.2812 -0.1955
  935YOPE   C1A14051   8.404   8.234   6.164  0.1124 -0.0001 -0.2920
  935YOPE   D2A14052   8.695   8.140   6.509 -0.2183 -0.1794 -0.1060
  935YOPE   C3A14053   8.674   7.742   6.776 -0.1178 -0.1463 -0.2387
  935YOPE   C4A14054   8.422   7.502   7.145 -0.0162 -0.1045 -0.0886
  935YOPE   C1B14055   8.378   9.012   6.554  0.1259 -0.1375  0.0007
  935YOPE   C2B14056   8.642   9.281   6.831  0.0264  0.2320 -0.0853
  935YOPE   D3B14057   8.795   9.688   6.912 -0.3457  0.4922  0.0690
  935YOPE   C4B14058   9.102   9.872   6.622 -0.0866  0.0398  0.1616
  936YOPE   NH314059  14.046   6.970   5.776 -0.1223 -0.1078  0.0182
  936YOPE   PO414060  13.863   7.351   5.699  0.2344 -0.1639 -0.1177
  936YOPE   GL114061  13.827   7.467   6.143 -0.2033  0.1611 -0.3566
  936YOPE   GL214062  13.508   7.455   6.310 -0.0378  0.2143  0.5260
  936YOPE   C1A14063  13.916   7.467   6.572  0.0004  0.3451 -0.1837
  936YOPE   D2A14064  14.145   7.699   6.897 -0.1024  0.1419  0.1115
  936YOPE   C3A14065  14.076   7.835   7.311 -0.0355 -0.0563 -0.3599
  936YOPE   C4A14066  13.959   7.840   7.711  0.1904 -0.3248  0.0521
  936YOPE   C1B14067  13.456   7.515   6.710  0.0641  0.1636 -0.1844
  936YOPE   C2B14068  13.647   7.500   7.121 -0.1606 -0.4450  0.1612
  936YOPE   D3B14069  13.989   7.354   7.357 -0.1165  0.0143  0.2648
  936YOPE   C4B14070  14.360   7.338   7.649 -0.1645  0.2943  0.1177
  937YOPE   NH314071  15.413  10.405   5.876  0.4958  0.2434 -0.0202
  937YOPE   PO414072  15.123  10.651   6.093  0.1953 -0.0699  0.2061
  937YOPE   GL114073  15.318  10.811   6.286  0.0835 -0.0435  0.1030
  937YOPE   GL214074  15.267  10.596   6.573 -0.0208 -0.0392 -0.1325
  937YOPE   C1A14075  15.697  10.778   6.497  0.1553 -0.0118  0.1770
  937YOPE   D2A14076  15.992  11.020   6.648  0.3132  0.1084  0.0247
  937YOPE   C3A14077  16.341  10.871   6.922 -0.1410 -0.1847  0.1671
  937YOPE   C4A14078  16.423  10.533   7.235 -0.2695 -0.2241 -0.0409
  937YOPE   C1B14079  14.980  10.766   6.821  0.0709 -0.0550  0.0131
  937YOPE   C2B14080  14.808  10.966   7.235 -0.1992 -0.2848  0.0999
  937YOPE   D3B14081  14.897  10.856   7.651  0.2576  0.0772  0.3964
  937YOPE   C4B14082  14.882  10.645   8.018  0.0206 -0.1082 -0.3737
  938YOPE   NH314083  13.084   4.236   5.602 -0.2533 -0.3510  0.1236
  938YOPE   PO414084  12.775   4.455   5.723 -0.3814  0.0288 -0.0971
  938YOPE   GL114085  12.911   4.488   6.028 -0.0051  0.0661 -0.2116
  938YOPE   GL214086  13.075   4.239   6.101 -0.1699 -0.0486 -0.1114
  938YOPE   C1A14087  12.700   4.496   6.404 -0.0982  0.0090 -0.0189
  938YOPE   D2A14088  12.376   4.448   6.664  0.0646 -0.4033 -0.2520
  938YOPE   C3A14089  12.075   4.735   6.495 -0.0260 -0.0821  0.3520
  938YOPE   C4A14090  11.624   4.810   6.387 -0.1834 -0.1587  0.2314
  938YOPE   C1B14091  13.092   3.759   6.103 -0.0333  0.1542  0.0196
  938YOPE   C2B14092  12.749   3.452   6.263  0.1265  0.0427 -0.0883
  938YOPE   D3B14093  12.447   3.464   6.535  0.1083 -0.2895  0.0511
  938YOPE   C4B14094  12.048   3.516   6.824 -0.1910  0.1817 -0.5008
  939YOPE   NH314095  14.664  10.535   5.898 -0.0477  0.0998  0.2489
  939YOPE   PO414096  14.605  10.951   6.092 -0.0183  0.2711  0.0209
  939YOPE   GL114097  14.704  11.098   6.385  0.1260  0.1754  0.3286
  939YOPE   GL214098  14.970  11.108   6.439  0.1315 -0.0134  0.2010
  939YOPE   C1A14099  14.412  10.991   6.663  0.4021  0.0292  0.1408
  939YOPE   D2A14100  14.340  10.914   6.959 -0.0319  0.0779  0.0767
  939YOPE   C3A14101  13.988  10.736   6.932  0.3029 -0.2079  0.1007
  939YOPE   C4A14102  13.570  10.644   7.138  0.1289  0.3441  0.0432
  939YOPE   C1B14103  14.816  11.265   6.833  0.0955 -0.0045 -0.0514
  939YOPE   C2B14104  15.060  11.410   7.216  0.0113  0.1266 -0.3236
  939YOPE   D3B14105  15.409  11.453   7.386  0.0305 -0.1540 -0.3029
  939YOPE   C4B14106  15.641  11.682   7.363 -0.2027  0.2123 -0.1563
  940YOPE   NH314107  10.701  10.978   4.936 -0.2108 -0.0833  0.0543
  940YOPE   PO414108  10.976  10.934   5.182  0.4487  0.0983 -0.1207
  940YOPE   GL114109  11.079  11.059   5.647 -0.1480  0.1831  0.0717
  940YOPE   GL214110  10.797  11.002   5.935 -0.2108  0.1322 -0.1595
  940YOPE   C1A14111  11.329  10.937   5.965 -0.2915  0.1237 -0.0953
  940YOPE   D2A14112  11.554  10.575   6.163  0.1216  0.0133 -0.1233
  940YOPE   C3A14113  11.429  10.358   6.445  0.1734 -0.1841 -0.2636
  940YOPE   C4A14114  11.168  10.447   6.782 -0.1999 -0.2863  0.2426
  940YOPE   C1B14115  10.802  11.416   5.995  0.1644 -0.0677 -0.2904
  940YOPE   C2B14116  10.901  11.744   6.290  0.3042  0.3282 -0.1359
  940YOPE   D3B14117  10.999  11.940   6.601  0.0729  0.1464 -0.3017
  940YOPE   C4B14118  11.401  11.797   6.655 -0.2363  0.4119 -0.1828
  941YOPE   NH314119   2.410  10.877   5.357  0.0176  0.0595  0.0397
  941YOPE   PO414120   2.089  10.619   5.516  0.0643  0.4083  0.0116
  941YOPE   GL114121   2.094  10.770   5.974  0.1380 -0.0859  0.2552
  941YOPE   GL214122   2.331  10.901   5.901  0.2727 -0.2054  0.3179
  941YOPE   C1A14123   2.062  10.545   6.402  0.3589 -0.2221 -0.2937
  941YOPE   D2A14124   1.781  10.501   6.742  0.1000  0.1934  0.0115
  941YOPE   C3A14125   1.502  10.896   6.862  0.2234  0.0431 -0.5191
  941YOPE   C4A14126   1.596  11.405   6.879 -0.1505 -0.0799  0.0627
  941YOPE   C1B14127   2.533  10.815   6.348 -0.2085 -0.0981 -0.0548
  941YOPE   C2B14128   2.343  10.560   6.769  0.0415 -0.1815  0.0897
  941YOPE   D3B14129   2.359  10.581   7.250 -0.2781  0.0914  0.0171
  941YOPE   C4B14130   2.674  10.507   7.452 -0.3295  0.1064 -0.1747
  942YOPE   NH314131  18.741   8.780   5.867 -0.0305  0.0901 -0.0739
  942YOPE   PO414132  18.598   9.240   5.772 -0.0586 -0.0999  0.0601
  942YOPE   GL114133  18.895   9.188   6.119 -0.0837  0.1548 -0.0642
  942YOPE   GL214134  18.954   9.421   6.054  0.1798 -0.0768  0.1274
  942YOPE   C1A14135  18.950   9.038   6.578 -0.2620  0.1446  0.0142
  942YOPE   D2A14136  18.792   8.888   6.928  0.1587  0.3167  0.1242
  942YOPE   C3A14137  18.450   8.786   6.875 -0.4177  0.0747  0.0681
  942YOPE   C4A14138  18.165   8.861   6.824 -0.0013  0.0751  0.0633
  942YOPE   C1B14139  18.719   9.451   6.514 -0.2170  0.0856  0.3173
  942YOPE   C2B14140  18.415   9.275   6.766  0.0279  0.3278  0.3581
  942YOPE   D3B14141  18.152   9.229   7.110  0.2085  0.2270  0.1315
  942YOPE   C4B14142  18.011   8.986   7.481  0.0725  0.1981 -0.0789
  943YOPE   NH314143   3.170  13.947   5.516  0.3835 -0.2896  0.2311
  943YOPE   PO414144   2.865  13.684   5.509  0.0848  0.3168 -0.1114
  943YOPE   GL114145   3.041  13.610   5.900 -0.2171  0.1230 -0.2440
  943YOPE   GL214146   3.294  13.448   5.957 -0.1271  0.2168 -0.2625
  943YOPE   C1A14147   2.973  13.982   6.208  0.0352  0.0602 -0.0342
  943YOPE   D2A14148   3.172  14.261   6.217  0.2246 -0.1485 -0.2328
  943YOPE   C3A14149   3.487  14.387   6.452  0.1551  0.0926 -0.4518
  943YOPE   C4A14150   3.750  14.497   6.859  0.0391 -0.1502  0.2410
  943YOPE   C1B14151   3.437  13.363   6.297 -0.1896 -0.1408  0.2282
  943YOPE   C2B14152   3.837  13.542   6.564 -0.0247  0.3251  0.0698
  943YOPE   D3B14153   4.006  13.375   6.920 -0.3474 -0.1756 -0.0536
  943YOPE   C4B14154   4.304  13.148   7.161 -0.2408 -0.1534 -0.4413
  944POPC   NC314155  17.292  10.646   5.732  0.1484  0.1541 -0.1057
  944POPC   PO414156  17.325  10.146   5.567  0.4861  0.1009  0.2524
  944POPC   GL114157  17.123  10.207   6.021  0.2104 -0.2833 -0.1970
  944POPC   GL214158  17.281  10.403   6.157  0.0562 -0.0977  0.1623
  944POPC   C1A14159  16.872   9.886   6.235 -0.1283 -0.1909 -0.1867
  944POPC   D2A14160  16.664   9.630   6.514 -0.0786 -0.0510  0.0823
  944POPC   C3A14161  16.756   9.752   6.955  0.0015 -0.0496  0.1422
  944POPC   C4A14162  16.786   9.345   7.239  0.1995 -0.2723  0.0803
  944POPC   C1B14163  17.332  10.449   6.675  0.0793  0.0497  0.1582
  944POPC   C2B14164  17.188  10.415   7.046  0.2278 -0.1310 -0.2248
  944POPC   C3B14165  16.919  10.209   7.260  0.1392 -0.1776 -0.0466
  944POPC   C4B14166  16.605  10.178   7.528 -0.0173 -0.0301 -0.2067
  945POPC   NC314167   3.271   8.675   5.075  0.0514 -0.0243 -0.0083
  945POPC   PO414168   3.663   8.682   5.221  0.0933 -0.3514  0.3594
  945POPC   GL114169   3.776   8.859   5.665 -0.1355  0.0568 -0.2172
  945POPC   GL214170   3.880   8.640   5.939 -0.2148 -0.1920 -0.1101
  945POPC   C1A14171   3.365   8.814   6.009  0.1410  0.0802  0.0096
  945POPC   D2A14172   3.120   8.457   6.183 -0.0626 -0.1699 -0.2976
  945POPC   C3A14173   2.849   8.629   6.443 -0.0365  0.2658  0.0269
  945POPC   C4A14174   2.795   8.922   6.743  0.4460 -0.0555  0.1013
  945POPC   C1B14175   3.666   8.642   6.321 -0.1514  0.0099 -0.0968
  945POPC   C2B14176   3.318   8.761   6.631  0.1122 -0.2349  0.3207
  945POPC   C3B14177   3.267   8.773   7.043 -0.1701 -0.1405 -0.2832
  945POPC   C4B14178   3.502   8.735   7.386  0.1668 -0.1102  0.2381
  946POPC   NC314179   9.126  17.204   5.468 -0.0218 -0.1819 -0.3332
  946POPC   PO414180   9.537  17.062   5.436 -0.0707  0.0066  0.2359
  946POPC   GL114181   9.438  17.060   5.827  0.4842  0.0917 -0.3802
  946POPC   GL214182   9.473  16.908   6.180 -0.1763  0.3164 -0.2812
  946POPC   C1A14183   9.247  17.375   6.147 -0.0945  0.0555  0.2620
  946POPC   D2A14184   9.301  17.511   6.443  0.3243 -0.2288 -0.2600
  946POPC   C3A14185   9.314  17.391   6.833  0.1548 -0.1374  0.1528
  946POPC   C4A14186   9.539  17.441   7.214 -0.0466  0.0466  0.1251
  946POPC   C1B14187   9.505  16.822   6.614  0.0003 -0.2798 -0.1769
  946POPC   C2B14188   9.674  16.651   7.068  0.0141 -0.0196 -0.2710
  946POPC   C3B14189  10.095  16.456   7.275  0.0861  0.0321  0.2568
  946POPC   C4B14190  10.226  16.302   7.670  0.0647 -0.0909 -0.0516
  947POPC   NC314191  11.086   7.601   5.109  0.1802  0.0767  0.0526
  947POPC   PO414192  11.430   7.697   5.406  0.0025 -0.0748 -0.2065
  947POPC   GL114193  11.569   7.577   5.794 -0.2797 -0.0567 -0.0826
  947POPC   GL214194  11.731   7.401   5.792  0.0108 -0.0936 -0.0508
  947POPC   C1A14195  11.630   7.750   6.309  0.0374  0.0272 -0.0484
  947POPC   D2A14196  11.247   7.983   6.438 -0.3540  0.0306 -0.0946
  947POPC   C3A14197  11.214   8.090   6.825  0.2941 -0.0367  0.2060
  947POPC   C4A14198  10.727   8.274   6.983  0.1679  0.1796 -0.2959
  947POPC   C1B14199  11.346   7.128   5.808  0.1678 -0.0090  0.2985
  947POPC   C2B14200  10.937   7.145   5.966  0.2262  0.2382  0.0333
  947POPC   C3B14201  10.632   7.090   6.344 -0.1211  0.1294  0.0898
  947POPC   C4B14202  10.360   6.761   6.505 -0.3137  0.0385  0.1202
  948POPC   NC314203  18.499  12.890   5.538 -0.2084 -0.1055 -0.2690
  948POPC   PO414204  18.900  12.555   5.412  0.0004  0.2170 -0.1002
  948POPC   GL114205  18.966  12.796   5.775  0.0285 -0.1859 -0.3592
  948POPC   GL214206  19.308  12.633   5.979  0.0147  0.0299 -0.2095
  948POPC   C1A14207  18.876  13.233   5.988  0.2590  0.1495  0.0699
  948POPC   D2A14208  19.106  13.592   6.218 -0.0709 -0.1191 -0.1397
  948POPC   C3A14209  18.938  13.943   6.479  0.1068 -0.2033  0.1556
  948POPC   C4A14210  19.134  14.175   6.725  0.0175 -0.0248  0.2564
  948POPC   C1B14211  19.346  12.991   6.123  0.3622 -0.0450 -0.3199
  948POPC   C2B14212  19.176  13.163   6.582 -0.1198  0.0965 -0.1553
  948POPC   C3B14213  19.003  13.546   6.937 -0.0390 -0.0993 -0.0727
  948POPC   C4B14214  18.733  13.633   7.303 -0.1536  0.2461  0.2309
  949POPC   NC314215  14.768  14.153   5.720 -0.0363 -0.0404  0.2806
  949POPC   PO414216  14.339  13.966   5.951  0.0810  0.0671  0.0957
  949POPC   GL114217  14.100  14.102   6.316 -0.0548 -0.1178  0.0814
  949POPC   GL214218  13.736  14.043   6.181 -0.1527  0.1916  0.0777
  949POPC   C1A14219  13.764  14.014   6.678  0.3654 -0.2448 -0.1281
  949POPC   D2A14220  13.446  14.183   6.833 -0.1110  0.2443 -0.0500
  949POPC   C3A14221  13.257  14.169   7.252  0.1926  0.2399  0.1062
  949POPC   C4A14222  12.827  14.198   7.412  0.0945 -0.1242 -0.1766
  949POPC   C1B14223  13.240  13.802   6.297  0.0926 -0.0182 -0.1323
  949POPC   C2B14224  12.928  13.584   6.344 -0.0411 -0.1106  0.2187
  949POPC   C3B14225  12.486  13.819   6.519 -0.1264 -0.0164 -0.1799
  949POPC   C4B14226  12.292  13.583   6.766 -0.0358  0.2212 -0.2640
  950POPC   NC314227  13.041   8.205   5.441  0.1721  0.1105 -0.0947
  950POPC   PO414228  13.581   8.305   5.433  0.1391 -0.0060  0.3476
  950POPC   GL114229  13.642   8.337   5.957  0.2132  0.1337 -0.1504
  950POPC   GL214230  14.023   8.490   6.123 -0.1511  0.0284  0.0234
  950POPC   C1A14231  13.299   8.269   6.311 -0.1445  0.2917  0.2954
  950POPC   D2A14232  12.945   8.317   6.528  0.1720  0.1329 -0.1633
  950POPC   C3A14233  12.677   7.959   6.522 -0.3333 -0.1356  0.1435
  950POPC   C4A14234  12.482   7.617   6.657 -0.0698  0.2073  0.1570
  950POPC   C1B14235  13.970   8.439   6.595 -0.3720 -0.0283 -0.0736
  950POPC   C2B14236  13.891   8.159   6.897 -0.0440 -0.0118  0.0753
  950POPC   C3B14237  13.517   7.972   7.082 -0.0130 -0.4179 -0.3324
  950POPC   C4B14238  13.212   8.001   7.314  0.0417  0.1525  0.2184
  951POPC   NC314239   0.562   6.010   5.186 -0.0828 -0.3823  0.1768
  951POPC   PO414240   0.451   5.956   5.711  0.0044 -0.0904 -0.1046
  951POPC   GL114241   0.501   5.872   6.201  0.5943 -0.0980  0.0541
  951POPC   GL214242   0.493   5.663   6.404  0.2864  0.0220  0.2428
  951POPC   C1A14243   0.377   6.154   6.613 -0.2139 -0.1029  0.0744
  951POPC   D2A14244   0.181   6.296   6.929  0.0553  0.2392  0.1136
  951POPC   C3A14245  -0.128   6.566   7.036 -0.2945  0.1266 -0.0618
  951POPC   C4A14246  -0.378   6.851   6.799  0.1904  0.1655 -0.0351
  951POPC   C1B14247   0.347   5.672   6.851 -0.0292  0.0191  0.0187
  951POPC   C2B14248   0.367   5.533   7.310  0.0381  0.0393  0.2309
  951POPC   C3B14249   0.337   5.648   7.763  0.0448 -0.1511  0.1865
  951POPC   C4B14250   0.021   5.769   7.926  0.0792  0.2863 -0.2205
  952POPC   NC314251   6.823   4.078   5.736  0.4068  0.0191  0.2441
  952POPC   PO414252   6.777   3.616   5.531 -0.1742  0.2194 -0.3247
  952POPC   GL114253   6.778   3.671   6.096 -0.3206 -0.5983 -0.1227
  952POPC   GL214254   6.586   4.005   6.208 -0.1573  0.2123 -0.0445
  952POPC   C1A14255   6.951   3.678   6.453 -0.1252  0.1580  0.3687
  952POPC   D2A14256   6.953   3.679   6.863 -0.1786  0.2875  0.0995
  952POPC   C3A14257   7.267   3.432   7.048  0.3697 -0.2030  0.0825
  952POPC   C4A14258   7.659   3.194   6.938  0.0761  0.0312 -0.2994
  952POPC   C1B14259   6.706   4.045   6.666  0.2276 -0.1353  0.1089
  952POPC   C2B14260   6.615   3.930   7.089  0.2943 -0.1639 -0.2251
  952POPC   C3B14261   6.795   3.736   7.403  0.1350 -0.5608 -0.2177
  952POPC   C4B14262   7.221   3.544   7.543 -0.2968 -0.1215 -0.0003
  953POPC   NC314263   3.057   0.482   5.030 -0.1663 -0.0880 -0.2268
  953POPC   PO414264   3.282   0.146   5.341  0.1863  0.2563  0.1133
  953POPC   GL114265   3.292   0.221   5.750 -0.2382 -0.3311  0.2906
  953POPC   GL214266   3.167   0.157   5.932 -0.0549  0.0386  0.0371
  953POPC   C1A14267   3.673   0.308   5.965 -0.0268 -0.0449  0.0821
  953POPC   D2A14268   4.086   0.340   5.832 -0.0941 -0.3183 -0.2415
  953POPC   C3A14269   4.412   0.520   6.109  0.1241 -0.2457  0.1645
  953POPC   C4A14270   4.499   0.492   6.615 -0.4820 -0.1208  0.0262
  953POPC   C1B14271   2.943   0.080   6.406 -0.4010  0.1051  0.1027
  953POPC   C2B14272   2.708  -0.163   6.625  0.2946 -0.1173  0.3148
  953POPC   C3B14273   2.325  -0.329   6.717 -0.2133 -0.0739  0.2099
  953POPC   C4B14274   2.190  -0.463   7.015 -0.0852  0.2198  0.2050
  954POPC   NC314275  16.376  17.055   5.513 -0.2611 -0.0516  0.1646
  954POPC   PO414276  16.829  17.018   5.571 -0.1724  0.0787 -0.2193
  954POPC   GL114277  16.793  16.916   6.087  0.0785 -0.1258  0.2568
  954POPC   GL214278  17.033  17.026   6.222  0.2560 -0.1941 -0.2734
  954POPC   C1A14279  16.384  16.829   6.442  0.2383 -0.0811  0.1291
  954POPC   D2A14280  16.220  16.832   6.854  0.3547  0.1543  0.1005
  954POPC   C3A14281  16.320  16.482   7.080  0.0764  0.3574  0.1313
  954POPC   C4A14282  16.446  16.315   7.562  0.0768 -0.0593 -0.0626
  954POPC   C1B14283  16.730  17.266   6.496 -0.3681 -0.1160  0.1676
  954POPC   C2B14284  16.487  17.440   6.781  0.0041 -0.0161 -0.2144
  954POPC   C3B14285  16.119  17.242   7.130  0.0993  0.0342 -0.0960
  954POPC   C4B14286  15.828  17.002   7.324 -0.2706  0.0956  0.1262
  955POPC   NC314287   7.204   5.535   5.355 -0.0911 -0.0658  0.1665
  955POPC   PO414288   7.087   5.655   5.722  0.0135  0.0977 -0.0821
  955POPC   GL114289   7.099   5.311   5.960 -0.0581 -0.3194 -0.1232
  955POPC   GL214290   6.869   5.326   6.127 -0.0340  0.0278 -0.0367
  955POPC   C1A14291   7.261   5.278   6.414 -0.2085  0.0161 -0.0923
  955POPC   D2A14292   7.193   5.234   6.863 -0.1303  0.0331  0.1626
  955POPC   C3A14293   7.526   5.027   7.035 -0.2012 -0.1320 -0.2043
  955POPC   C4A14294   7.614   4.767   7.295  0.1882  0.0314 -0.1967
  955POPC   C1B14295   6.762   5.132   6.510  0.3264  0.0293  0.1704
  955POPC   C2B14296   6.813   4.830   6.907 -0.2547 -0.0321  0.2382
  955POPC   C3B14297   6.604   4.749   7.232  0.1477 -0.2286  0.1071
  955POPC   C4B14298   6.702   4.774   7.709  0.1835 -0.0493 -0.1374
  956POPC   NC314299  14.764   9.575   5.930 -0.1253 -0.1078  0.1133
  956POPC   PO414300  15.161   9.323   5.758 -0.0932 -0.1787 -0.0374
  956POPC   GL114301  15.175   9.300   6.218 -0.1683 -0.2406 -0.0554
  956POPC   GL214302  15.145   8.993   6.268 -0.0084 -0.1254 -0.0892
  956POPC   C1A14303  15.240   9.192   6.752  0.3006 -0.0151 -0.2780
  956POPC   D2A14304  15.394   8.954   7.105  0.0371  0.1641  0.0839
  956POPC   C3A14305  15.781   9.015   7.339 -0.1109 -0.2098 -0.0477
  956POPC   C4A14306  16.230   9.197   7.350  0.0141  0.0992  0.2691
  956POPC   C1B14307  15.193   8.681   6.582 -0.0310 -0.0128  0.0901
  956POPC   C2B14308  15.405   8.364   6.676 -0.0124  0.2666  0.1015
  956POPC   C3B14309  15.407   8.052   6.937 -0.0315 -0.1410  0.1775
  956POPC   C4B14310  15.063   7.703   6.994  0.0957  0.1072 -0.0610
  957POPC   NC314311  17.039   9.091   5.669  0.1072  0.0246 -0.0790
  957POPC   PO414312  16.918   8.782   5.961  0.0317 -0.2466 -0.0095
  957POPC   GL114313  16.937   8.667   6.421  0.2155  0.1289 -0.1110
  957POPC   GL214314  16.803   8.367   6.335 -0.1100  0.0942  0.2842
  957POPC   C1A14315  16.872   8.474   6.856  0.0335  0.1009 -0.0565
  957POPC   D2A14316  16.927   8.501   7.345  0.0332 -0.1998  0.1670
  957POPC   C3A14317  16.577   8.570   7.564  0.0988 -0.1577  0.2337
  957POPC   C4A14318  16.373   8.518   7.942  0.1004  0.1567 -0.0257
  957POPC   C1B14319  16.432   8.660   6.650 -0.1025 -0.1914 -0.0328
  957POPC   C2B14320  16.136   9.053   6.629  0.3447  0.1632  0.0276
  957POPC   C3B14321  15.890   9.191   6.914  0.2707  0.0500  0.1151
  957POPC   C4B14322  15.550   9.411   7.146  0.0294  0.0975 -0.1532
  958POPC   NC314323  16.190   1.438   5.768  0.0964 -0.1341  0.0538
  958POPC   PO414324  15.947   1.131   5.798 -0.2821  0.0422 -0.2769
  958POPC   GL114325  15.913   0.776   6.154  0.0072 -0.3946  0.0783
  958POPC   GL214326  15.612   0.624   6.060 -0.2475  0.0643 -0.0356
  958POPC   C1A14327  15.758   0.807   6.552  0.1845 -0.0057 -0.1879
  958POPC   D2A14328  15.385   1.032   6.821 -0.0397  0.3552 -0.1454
  958POPC   C3A14329  15.473   1.109   7.237 -0.2573  0.0573  0.1545
  958POPC   C4A14330  15.576   1.307   7.570 -0.3141 -0.2586  0.3387
  958POPC   C1B14331  15.457   0.460   6.417 -0.1079 -0.0842 -0.3444
  958POPC   C2B14332  15.463   0.131   6.653  0.1015  0.0689  0.2488
  958POPC   C3B14333  15.645   0.070   7.055 -0.4596  0.1334 -0.0611
  958POPC   C4B14334  15.901   0.035   7.491  0.0640 -0.2476  0.4202
  959POPC   NC314335  14.563   4.475   5.366  0.0305 -0.3411  0.2350
  959POPC   PO414336  14.637   4.172   5.790 -0.0204 -0.0447  0.0691
  959POPC   GL114337  14.693   3.946   6.196  0.2370 -0.0336 -0.1172
  959POPC   GL214338  14.792   3.642   6.281  0.2617 -0.0454 -0.3159
  959POPC   C1A14339  14.304   3.770   6.517  0.1436 -0.1517 -0.3079
  959POPC   D2A14340  13.797   3.787   6.595  0.1232  0.1886 -0.1334
  959POPC   C3A14341  13.628   3.684   7.016  0.2355 -0.0896  0.4169
  959POPC   C4A14342  13.591   3.560   7.433  0.0838  0.0965  0.1180
  959POPC   C1B14343  14.830   3.476   6.693 -0.2273  0.1103 -0.1246
  959POPC   C2B14344  14.874   3.558   7.066  0.1564  0.0439  0.0169
  959POPC   C3B14345  15.234   3.573   7.407 -0.1771 -0.0596  0.1713
  959POPC   C4B14346  15.190   3.223   7.758 -0.2325  0.0788  0.0978
  960POPC   NC314347  17.947  13.512   4.997 -0.0178  0.1582  0.1458
  960POPC   PO414348  18.031  13.707   5.433  0.2361  0.0998  0.0120
  960POPC   GL114349  18.397  13.841   5.713  0.3563 -0.1317  0.2586
  960POPC   GL214350  18.240  14.098   5.994  0.1611 -0.1776 -0.1364
  960POPC   C1A14351  18.631  13.730   6.095  0.1241  0.1374 -0.0676
  960POPC   D2A14352  18.692  13.581   6.542  0.0102 -0.0818  0.2324
  960POPC   C3A14353  18.716  13.168   6.769  0.2224  0.2299  0.0101
  960POPC   C4A14354  18.616  13.182   7.188  0.0104 -0.2857  0.2058
  960POPC   C1B14355  18.501  14.120   6.319  0.2620 -0.3168  0.0372
  960POPC   C2B14356  18.672  14.361   6.662 -0.4103  0.1031 -0.1608
  960POPC   C3B14357  18.828  14.667   6.875  0.1028 -0.3166  0.0246
  960POPC   C4B14358  19.179  14.577   7.079  0.3304  0.0703 -0.2379
  961POPC   NC314359   7.314  12.358   5.468 -0.0316 -0.0635  0.1246
  961POPC   PO414360   7.658  12.033   5.537  0.0679 -0.2814  0.1897
  961POPC   GL114361   7.535  12.175   5.938 -0.3704  0.1299  0.0454
  961POPC   GL214362   7.264  11.938   5.953 -0.2990 -0.3911 -0.5039
  961POPC   C1A14363   7.463  12.393   6.349 -0.0361  0.0382 -0.3706
  961POPC   D2A14364   7.203  12.332   6.626 -0.0322  0.1457 -0.5300
  961POPC   C3A14365   7.371  12.776   6.923 -0.0502  0.3060 -0.0124
  961POPC   C4A14366   7.355  13.093   7.299  0.1506  0.4327 -0.1113
  961POPC   C1B14367   6.912  12.085   6.270  0.4069  0.0739  0.2283
  961POPC   C2B14368   6.749  12.071   6.599 -0.0008 -0.2610  0.2833
  961POPC   C3B14369   6.660  12.124   6.911 -0.0311  0.0864  0.0091
  961POPC   C4B14370   6.517  12.116   7.313  0.2991  0.3995  0.0824
  962POPC   NC314371   3.723  15.077   5.362 -0.0303  0.1433 -0.0766
  962POPC   PO414372   3.997  15.183   4.994 -0.0322  0.0021 -0.2247
  962POPC   GL114373   4.338  15.182   5.177 -0.1658 -0.2531 -0.0189
  962POPC   GL214374   4.177  15.295   5.503 -0.3896  0.1201 -0.1635
  962POPC   C1A14375   4.691  15.233   5.530  0.1083  0.0302  0.2921
  962POPC   D2A14376   4.958  15.507   5.664  0.1095 -0.3085 -0.0602
  962POPC   C3A14377   4.865  15.228   5.987  0.1375  0.1767  0.2758
  962POPC   C4A14378   4.712  15.098   6.373  0.0926  0.0030 -0.4507
  962POPC   C1B14379   4.404  15.333   5.935 -0.0661  0.2415  0.0958
  962POPC   C2B14380   4.276  15.293   6.413 -0.0360 -0.3346  0.4209
  962POPC   C3B14381   3.995  15.495   6.731 -0.1036 -0.0751  0.2555
  962POPC   C4B14382   3.722  15.761   7.002  0.1445  0.2224  0.2040
  963POPC   NC314383   8.718  13.322   5.123 -0.1260  0.0953 -0.1398
  963POPC   PO414384   8.363  13.197   5.274  0.0445  0.1961 -0.3503
  963POPC   GL114385   8.337  13.222   5.794  0.1150 -0.0998  0.1643
  963POPC   GL214386   7.964  12.999   5.856 -0.3750 -0.2047  0.2012
  963POPC   C1A14387   8.148  13.310   6.239  0.2211  0.0531  0.1715
  963POPC   D2A14388   8.190  13.522   6.556  0.2675  0.0996  0.1054
  963POPC   C3A14389   8.594  13.528   6.678  0.0854  0.0188 -0.3484
  963POPC   C4A14390   8.816  13.326   7.189 -0.1535  0.0289 -0.0794
  963POPC   C1B14391   7.983  12.799   6.227 -0.2106 -0.0400  0.1385
  963POPC   C2B14392   7.929  12.462   6.550  0.1884 -0.0389  0.2952
  963POPC   C3B14393   7.935  12.361   6.966 -0.2615  0.0792 -0.1857
  963POPC   C4B14394   7.740  12.283   7.412  0.0457 -0.5073  0.1338
  964POPC   NC314395  17.853  17.100   5.874  0.1602  0.0794  0.0608
  964POPC   PO414396  17.607  17.532   5.524  0.0002 -0.1497  0.0119
  964POPC   GL114397  17.596  17.470   6.026 -0.3466 -0.2484 -0.1039
  964POPC   GL214398  17.906  17.654   6.089  0.2564  0.2667 -0.0660
  964POPC   C1A14399  17.409  17.440   6.383  0.1308 -0.0380 -0.2513
  964POPC   D2A14400  17.255  17.233   6.775 -0.0172  0.1229 -0.1945
  964POPC   C3A14401  16.898  17.476   7.024  0.2061 -0.0667  0.0418
  964POPC   C4A14402  16.549  17.492   7.240  0.0035 -0.0094 -0.1992
  964POPC   C1B14403  17.890  17.476   6.423  0.0945  0.1203 -0.2312
  964POPC   C2B14404  17.688  17.643   6.912  0.1005  0.3335  0.5058
  964POPC   C3B14405  17.434  17.599   7.127 -0.1102  0.0036 -0.4966
  964POPC   C4B14406  17.164  17.593   7.520  0.2341  0.2255  0.3585
  965POPC   NC314407   2.747   1.985   5.560 -0.1164  0.1419 -0.0498
  965POPC   PO414408   3.138   1.703   5.569 -0.0580  0.0103 -0.1492
  965POPC   GL114409   2.951   1.696   5.931 -0.0413  0.0916 -0.3172
  965POPC   GL214410   2.850   1.422   6.019  0.1528  0.0476 -0.0555
  965POPC   C1A14411   3.006   1.710   6.479  0.4262  0.0318  0.2577
  965POPC   D2A14412   3.240   1.733   6.831  0.0733  0.0365  0.3383
  965POPC   C3A14413   3.683   1.749   7.078 -0.2997  0.1062  0.1689
  965POPC   C4A14414   4.129   1.717   7.036 -0.0220 -0.2925 -0.1747
  965POPC   C1B14415   3.290   1.080   6.028 -0.0873  0.2212 -0.0245
  965POPC   C2B14416   3.651   0.780   6.136 -0.0171  0.0836 -0.0745
  965POPC   C3B14417   3.957   0.454   6.359  0.0575 -0.2337 -0.1513
  965POPC   C4B14418   4.176   0.024   6.193  0.2507 -0.1359 -0.0082
  966POPC   NC314419   3.220  10.078   5.194 -0.5110  0.4044  0.0102
  966POPC   PO414420   3.495  10.098   5.558 -0.3454  0.3080 -0.0300
  966POPC   GL114421   3.485  10.165   5.951 -0.0482 -0.1481  0.1052
  966POPC   GL214422   3.794  10.122   6.095  0.4407  0.2073 -0.3686
  966POPC   C1A14423   3.326  10.106   6.242 -0.1093 -0.3863  0.2027
  966POPC   D2A14424   2.999  10.064   6.670  0.0143 -0.2825  0.2690
  966POPC   C3A14425   2.645  10.200   6.465  0.1246 -0.0428  0.0118
  966POPC   C4A14426   2.403  10.355   6.100 -0.0929  0.0189  0.2051
  966POPC   C1B14427   3.829   9.892   6.526  0.5033 -0.1556 -0.3219
  966POPC   C2B14428   3.769   9.481   6.763  0.0024  0.0173 -0.0779
  966POPC   C3B14429   3.973   9.381   7.202  0.2579  0.1477 -0.3479
  966POPC   C4B14430   4.095   8.998   7.400  0.0180  0.0355 -0.2325
  967POPC   NC314431  11.804  12.346   5.382 -0.0587  0.2590 -0.2090
  967POPC   PO414432  11.425  12.190   5.242  0.0913 -0.1037  0.1729
  967POPC   GL114433  11.193  12.419   5.488  0.4003  0.2153 -0.2933
  967POPC   GL214434  11.018  12.716   5.469 -0.1434  0.0900  0.0250
  967POPC   C1A14435  11.281  12.392   5.881 -0.2456  0.0019 -0.1933
  967POPC   D2A14436  10.992  12.276   6.239  0.1892  0.4324 -0.3416
  967POPC   C3A14437  10.588  12.290   6.324  0.1930  0.1252  0.3098
  967POPC   C4A14438  10.430  12.047   6.515 -0.0937 -0.1951  0.1767
  967POPC   C1B14439  10.752  12.703   5.859 -0.1020  0.0563 -0.0916
  967POPC   C2B14440  10.446  13.009   6.085 -0.0826 -0.0624 -0.2251
  967POPC   C3B14441  10.537  13.460   6.186 -0.0347  0.0492 -0.2851
  967POPC   C4B14442  10.842  13.785   6.154 -0.0652  0.2028 -0.0670
  968POPC   NC314443  10.515   0.998   4.935 -0.1489  0.0677  0.1599
  968POPC   PO414444  10.281   0.586   4.927  0.0622  0.0868  0.0168
  968POPC   GL114445  10.235   0.480   5.358 -0.1251  0.2208 -0.1013
  968POPC   GL214446  10.090   0.392   5.661  0.3468  0.0293  0.0681
  968POPC   C1A14447  10.537   0.605   5.758  0.0749  0.0586 -0.1467
  968POPC   D2A14448  10.150   0.784   5.949 -0.2544 -0.0378  0.4142
  968POPC   C3A14449   9.756   0.594   6.093  0.1830 -0.1244 -0.2215
  968POPC   C4A14450   9.319   0.620   6.152 -0.0617  0.0551  0.1983
  968POPC   C1B14451  10.201   0.111   5.982  0.1438 -0.0865 -0.1893
  968POPC   C2B14452  10.213  -0.021   6.425  0.2196 -0.1591  0.2130
  968POPC   C3B14453  10.207   0.182   6.734 -0.0870  0.1867  0.3610
  968POPC   C4B14454  10.184   0.607   6.962 -0.1198  0.4156  0.2948
  969POPC   NC314455   5.187  12.286   5.182  0.0994 -0.3440  0.0051
  969POPC   PO414456   4.932  12.494   5.334  0.0741  0.1168  0.0374
  969POPC   GL114457   4.708  12.471   5.677 -0.1550 -0.0218  0.1420
  969POPC   GL214458   4.617  12.788   5.744 -0.2060 -0.0394  0.0334
  969POPC   C1A14459   4.633  12.436   6.131 -0.3562  0.2966  0.2262
  969POPC   D2A14460   4.817  12.360   6.536 -0.0626 -0.0317  0.2633
  969POPC   C3A14461   4.669  12.286   6.950 -0.3221  0.1666  0.1773
  969POPC   C4A14462   4.960  12.241   7.391  0.0387 -0.2322 -0.2554
  969POPC   C1B14463   4.456  12.934   6.053 -0.0350  0.1505  0.3091
  969POPC   C2B14464   4.225  12.723   6.286 -0.3065 -0.2822  0.0148
  969POPC   C3B14465   4.339  12.545   6.602 -0.2915  0.0452 -0.2359
  969POPC   C4B14466   4.475  12.713   7.015 -0.0069  0.1408  0.0217
  970POPC   NC314467   4.006  14.691   5.107  0.0805  0.3430  0.0482
  970POPC   PO414468   4.052  14.369   5.410 -0.0629  0.0311 -0.0686
  970POPC   GL114469   3.930  14.347   5.773 -0.1568 -0.0050 -0.0507
  970POPC   GL214470   3.560  14.259   5.725 -0.1216  0.0666  0.0939
  970POPC   C1A14471   3.953  14.607   6.202  0.1107  0.0037  0.0836
  970POPC   D2A14472   4.130  14.738   6.476 -0.1692  0.1429  0.1584
  970POPC   C3A14473   4.227  14.573   6.946 -0.0843 -0.1987  0.1191
  970POPC   C4A14474   3.972  14.417   7.310 -0.0433 -0.2576 -0.1056
  970POPC   C1B14475   3.483  14.679   6.003  0.0352 -0.0815 -0.1540
  970POPC   C2B14476   3.596  14.980   6.484 -0.4225  0.1313  0.2277
  970POPC   C3B14477   3.457  15.019   6.809  0.2971  0.0393 -0.1604
  970POPC   C4B14478   3.572  15.280   7.187  0.0553  0.0212 -0.0688
  971POPC   NC314479  18.798  18.682   5.255 -0.2856  0.0828 -0.0618
  971POPC   PO414480  19.023  18.489   5.442 -0.3495  0.0269 -0.1655
  971POPC   GL114481  19.046  18.519   5.826 -0.1110 -0.3442  0.1798
  971POPC   GL214482  19.291  18.539   5.913 -0.1691 -0.2475  0.3109
  971POPC   C1A14483  18.769  18.508   6.161 -0.2811 -0.0517 -0.1917
  971POPC   D2A14484  18.833  18.436   6.549 -0.0762 -0.0538  0.0922
  971POPC   C3A14485  18.647  18.610   6.860  0.1874  0.2885 -0.1714
  971POPC   C4A14486  18.695  18.637   7.259  0.2079  0.0872  0.1804
  971POPC   C1B14487  19.262  18.597   6.326 -0.0246 -0.1340  0.0884
  971POPC   C2B14488  19.423  18.681   6.741 -0.1628 -0.1800 -0.1282
  971POPC   C3B14489  19.516  18.795   7.060  0.0265  0.0866  0.0771
  971POPC   C4B14490  19.429  18.884   7.494 -0.0234 -0.1328  0.0414
  972POPC   NC314491  14.075   2.624   5.563 -0.2311 -0.1604  0.4248
  972POPC   PO414492  14.236   3.005   5.723  0.0656 -0.0181  0.4673
  972POPC   GL114493  14.199   2.994   6.146 -0.3313 -0.2389 -0.1923
  972POPC   GL214494  13.905   2.940   6.218  0.2551 -0.1059 -0.4135
  972POPC   C1A14495  14.312   3.241   6.524 -0.3478 -0.0241  0.0894
  972POPC   D2A14496  14.138   3.484   6.860 -0.0405 -0.0562  0.2666
  972POPC   C3A14497  14.434   3.752   7.012 -0.1495 -0.2888  0.4943
  972POPC   C4A14498  14.732   4.060   6.801 -0.2943 -0.1013 -0.2448
  972POPC   C1B14499  13.622   2.712   6.370 -0.0118 -0.0402 -0.1684
  972POPC   C2B14500  13.512   2.390   6.674 -0.3434  0.2788 -0.0183
  972POPC   C3B14501  13.355   2.133   6.874  0.2831 -0.2458 -0.1720
  972POPC   C4B14502  13.297   2.173   7.310  0.0982 -0.0467 -0.0509
  973POPC   NC314503   6.944   8.087   5.638  0.2663  0.5243  0.2298
  973POPC   PO414504   6.384   8.099   5.752  0.0808  0.1983  0.0143
  973POPC   GL114505   6.500   8.205   6.098  0.0941 -0.0559 -0.2636
  973POPC   GL214506   6.796   8.151   6.135  0.2734 -0.1033 -0.0213
  973POPC   C1A14507   6.539   8.153   6.632 -0.2083 -0.0212 -0.1607
  973POPC   D2A14508   6.559   8.326   7.048  0.0695  0.0093 -0.0129
  973POPC   C3A14509   6.167   8.386   7.364 -0.0568 -0.0015  0.1461
  973POPC   C4A14510   6.110   8.629   7.672  0.1952  0.1524  0.3247
  973POPC   C1B14511   6.975   8.381   6.453  0.2243  0.1657 -0.1247
  973POPC   C2B14512   7.028   8.160   6.797  0.3065  0.1020 -0.0610
  973POPC   C3B14513   7.414   8.087   7.108  0.0046  0.2746 -0.0082
  973POPC   C4B14514   7.589   8.116   7.563 -0.1747  0.1063  0.3787
  974POPC   NC314515   7.818   3.577   5.430  0.2157  0.0245  0.1339
  974POPC   PO414516   7.438   3.234   5.571 -0.2744  0.1273 -0.0258
  974POPC   GL114517   7.870   3.104   5.603 -0.1616  0.0051  0.0702
  974POPC   GL214518   7.940   2.911   5.846  0.0819  0.1542  0.0823
  974POPC   C1A14519   8.247   3.318   5.943  0.0004 -0.1108  0.1133
  974POPC   D2A14520   8.332   3.345   6.455  0.3976  0.2504  0.2450
  974POPC   C3A14521   8.387   3.193   6.831 -0.0825 -0.0024  0.0251
  974POPC   C4A14522   8.562   2.911   7.175 -0.3148 -0.1738  0.0935
  974POPC   C1B14523   8.121   2.893   6.247  0.1162 -0.1852  0.0817
  974POPC   C2B14524   8.049   2.905   6.641 -0.0945 -0.4595  0.1154
  974POPC   C3B14525   7.711   2.699   6.935 -0.1963 -0.2416 -0.1197
  974POPC   C4B14526   7.731   2.443   7.113  0.0973 -0.2377 -0.1066
  975POPC   NC314527  18.296   5.654   6.172 -0.0846  0.3127 -0.0753
  975POPC   PO414528  18.568   5.948   6.006  0.0802 -0.1781 -0.2684
  975POPC   GL114529  18.499   6.138   6.360  0.0861 -0.0102 -0.3701
  975POPC   GL214530  18.740   6.043   6.610  0.0084 -0.1684  0.0269
  975POPC   C1A14531  18.348   6.297   6.781 -0.2976 -0.1524  0.2392
  975POPC   D2A14532  18.177   6.593   7.119  0.3419 -0.1017  0.1507
  975POPC   C3A14533  18.154   6.645   7.562  0.3038  0.0868  0.2422
  975POPC   C4A14534  17.936   6.868   7.913 -0.0811 -0.2362  0.2174
  975POPC   C1B14535  18.644   5.901   7.021 -0.0208 -0.1033  0.2808
  975POPC   C2B14536  18.340   6.141   7.354 -0.1233  0.2004  0.1824
  975POPC   C3B14537  18.413   6.198   7.694  0.1799  0.0092  0.0283
  975POPC   C4B14538  18.709   6.333   7.877 -0.3831 -0.0200 -0.1201
  976POPC   NC314539   9.708   7.920   5.261  0.1126 -0.2817  0.0774
  976POPC   PO414540  10.039   7.618   5.139  0.1626  0.1459 -0.1048
  976POPC   GL114541  10.158   7.490   5.616 -0.0212 -0.0177 -0.1897
  976POPC   GL214542  10.270   7.832   5.773  0.3032 -0.0263 -0.0406
  976POPC   C1A14543  10.113   7.283   6.130  0.1826 -0.0767 -0.1604
  976POPC   D2A14544  10.164   7.266   6.590  0.0198 -0.2168  0.0787
  976POPC   C3A14545   9.970   6.972   6.899 -0.1357 -0.1111 -0.0231
  976POPC   C4A14546   9.751   6.741   7.234  0.0050 -0.1301  0.2504
  976POPC   C1B14547  10.091   7.897   6.153  0.2356  0.0801  0.0550
  976POPC   C2B14548   9.867   7.766   6.508  0.1983  0.1252 -0.0857
  976POPC   C3B14549   9.780   7.817   6.883  0.1703 -0.0716  0.7027
  976POPC   C4B14550   9.832   7.843   7.382 -0.2949 -0.0204  0.0205
  977POPC   NC314551   5.918  18.024   5.105  0.0377  0.1168  0.0402
  977POPC   PO414552   6.114  17.678   5.216 -0.1147  0.0434 -0.0693
  977POPC   GL114553   6.249  17.733   5.558  0.0183  0.2436 -0.2967
  977POPC   GL214554   6.568  17.493   5.697 -0.3236  0.0609  0.1823
  977POPC   C1A14555   6.194  18.118   5.885  0.0271  0.4423 -0.1057
  977POPC   D2A14556   6.092  18.066   6.335  0.1141  0.1679 -0.2091
  977POPC   C3A14557   5.989  17.827   6.716  0.2293 -0.0012  0.2208
  977POPC   C4A14558   6.200  17.622   6.975 -0.2209 -0.2535  0.0465
  977POPC   C1B14559   6.742  17.363   6.070  0.2928 -0.0523 -0.1635
  977POPC   C2B14560   6.813  17.009   6.426  0.0529  0.1813  0.2440
  977POPC   C3B14561   7.128  16.789   6.614 -0.0159 -0.0977 -0.0891
  977POPC   C4B14562   7.136  16.402   6.789  0.2564  0.1589  0.2314
  978POPC   NC314563  12.720   7.238   5.730  0.0606 -0.0251 -0.0293
  978POPC   PO414564  12.917   7.706   5.804  0.2147 -0.3232 -0.1706
  978POPC   GL114565  12.961   7.564   6.223  0.0002  0.0830 -0.1573
  978POPC   GL214566  13.128   7.831   6.342 -0.1767 -0.2572 -0.1349
  978POPC   C1A14567  12.950   7.398   6.655 -0.0953  0.1888  0.1428
  978POPC   D2A14568  12.833   7.280   6.931  0.0764  0.0126  0.1137
  978POPC   C3A14569  13.033   7.367   7.237  0.0192  0.2063  0.0355
  978POPC   C4A14570  12.932   7.711   7.588 -0.0680 -0.1901 -0.1049
  978POPC   C1B14571  13.082   7.830   6.831 -0.1635  0.1489  0.1225
  978POPC   C2B14572  12.736   7.744   7.165 -0.0546  0.2294  0.1463
  978POPC   C3B14573  12.441   7.955   7.321 -0.2415 -0.0874  0.3596
  978POPC   C4B14574  12.320   8.404   7.229 -0.0019  0.3261 -0.2313
  979POPC   NC314575  18.666   2.121   5.657 -0.0798  0.1132  0.1488
  979POPC   PO414576  18.591   2.659   5.710 -0.1601 -0.0108 -0.0097
  979POPC   GL114577  18.930   2.499   5.884  0.4045 -0.0187  0.3402
  979POPC   GL214578  19.115   2.828   5.923 -0.1169  0.0280  0.0772
  979POPC   C1A14579  19.239   2.351   6.250 -0.2186  0.0721 -0.1501
  979POPC   D2A14580  19.538   2.175   6.514  0.0285 -0.1390 -0.1373
  979POPC   C3A14581  19.356   2.260   7.005 -0.2338  0.0284  0.1424
  979POPC   C4A14582  19.226   2.435   7.244  0.2063 -0.4740  0.0158
  979POPC   C1B14583  18.956   2.862   6.267  0.1420  0.4930  0.1087
  979POPC   C2B14584  18.726   2.907   6.546 -0.1079 -0.1575  0.3276
  979POPC   C3B14585  18.776   2.760   7.030  0.0705 -0.1427 -0.5284
  979POPC   C4B14586  18.917   2.816   7.453  0.3832  0.1222  0.1874
  980POPC   NC314587   9.477  16.464   5.237  0.2291  0.2861  0.3873
  980POPC   PO414588   9.238  16.165   5.435 -0.4347 -0.2341 -0.2138
  980POPC   GL114589   9.359  16.204   5.834  0.0111 -0.1390  0.2148
  980POPC   GL214590   9.561  16.496   5.837 -0.0328  0.1940  0.1604
  980POPC   C1A14591   9.338  16.081   6.265  0.3704  0.2600 -0.1284
  980POPC   D2A14592   9.510  15.896   6.579  0.1305 -0.1709  0.0654
  980POPC   C3A14593   9.579  15.505   6.508 -0.0026  0.1296  0.1082
  980POPC   C4A14594   9.773  15.161   6.483  0.1714 -0.3977  0.1940
  980POPC   C1B14595   9.661  16.454   6.234  0.0726  0.0445 -0.4735
  980POPC   C2B14596   9.828  16.370   6.600 -0.0854  0.2262 -0.0689
  980POPC   C3B14597   9.799  16.182   6.898  0.0602 -0.0980 -0.1340
  980POPC   C4B14598   9.441  16.185   7.058 -0.0290  0.2143 -0.3586
  981POPC   NC314599   4.502  12.746   5.185  0.1280  0.0988  0.1014
  981POPC   PO414600   4.205  12.507   5.530  0.0766  0.0652 -0.4222
  981POPC   GL114601   4.202  12.320   5.873 -0.0056 -0.0175 -0.0126
  981POPC   GL214602   4.354  11.996   5.778 -0.2607 -0.0570 -0.0133
  981POPC   C1A14603   4.217  12.201   6.306  0.0478 -0.1279 -0.0346
  981POPC   D2A14604   4.295  11.944   6.706 -0.2520 -0.0946 -0.1825
  981POPC   C3A14605   4.691  11.804   6.950  0.1092 -0.2225 -0.1586
  981POPC   C4A14606   4.808  11.457   6.930 -0.4887 -0.1614 -0.1003
  981POPC   C1B14607   4.626  11.944   6.221 -0.1929 -0.0515 -0.0693
  981POPC   C2B14608   4.767  11.606   6.411 -0.1022 -0.0455  0.0981
  981POPC   C3B14609   5.109  11.377   6.560  0.0142  0.4026  0.3872
  981POPC   C4B14610   5.229  11.112   6.965 -0.3622 -0.2173 -0.1075
  982POPC   NC314611   1.290   7.465   5.893 -0.0387  0.2917  0.3387
  982POPC   PO414612   1.761   7.295   5.855 -0.1666  0.1917 -0.0674
  982POPC   GL114613   1.748   7.574   6.182 -0.3709 -0.3882 -0.0041
  982POPC   GL214614   1.792   7.889   6.298 -0.1842  0.0326 -0.1545
  982POPC   C1A14615   1.887   7.477   6.657 -0.1271 -0.1053 -0.0378
  982POPC   D2A14616   2.136   7.648   6.885  0.0553  0.0174 -0.1757
  982POPC   C3A14617   2.395   7.877   7.129 -0.2247 -0.0431 -0.0075
  982POPC   C4A14618   2.572   8.267   7.242  0.0781 -0.2202 -0.0787
  982POPC   C1B14619   1.778   7.933   6.761  0.2634  0.0414  0.0298
  982POPC   C2B14620   1.563   8.217   6.932 -0.4512  0.2283  0.2021
  982POPC   C3B14621   1.224   8.560   7.071 -0.1201 -0.0418  0.0096
  982POPC   C4B14622   0.850   8.788   7.034 -0.1468 -0.0085  0.0132
  983POPC   NC314623  15.786   4.270   6.201 -0.0377 -0.2089  0.0563
  983POPC   PO414624  15.848   4.776   6.122  0.0679  0.0577 -0.0758
  983POPC   GL114625  15.566   5.104   6.219 -0.0379  0.0242  0.0608
  983POPC   GL214626  15.636   5.524   6.264 -0.1076 -0.0301  0.0399
  983POPC   C1A14627  15.327   5.216   6.612  0.2248 -0.1964 -0.2953
  983POPC   D2A14628  15.248   4.802   6.970  0.0062  0.2361  0.1423
  983POPC   C3A14629  15.194   4.829   7.278 -0.2009 -0.0444  0.0130
  983POPC   C4A14630  14.821   4.797   7.444  0.0119 -0.1507 -0.2864
  983POPC   C1B14631  15.500   5.725   6.593 -0.0533  0.0888 -0.1471
  983POPC   C2B14632  15.630   5.612   6.878  0.0149  0.1646  0.1987
  983POPC   C3B14633  15.790   5.776   7.278 -0.1586 -0.2057 -0.2692
  983POPC   C4B14634  15.689   5.908   7.734 -0.0753 -0.1178 -0.1795
  984YOPC   NC314635   9.083   1.555   4.824 -0.1028  0.1044  0.0267
  984YOPC   PO414636   8.698   1.488   5.199 -0.1973 -0.1041 -0.1124
  984YOPC   GL114637   8.969   1.316   5.552 -0.0956  0.0785  0.0609
  984YOPC   GL214638   8.877   1.509   5.867  0.0548  0.4666 -0.1318
  984YOPC   C1A14639   9.082   1.072   5.936  0.3713 -0.0190  0.2575
  984YOPC   D2A14640   9.077   1.036   6.373 -0.0460  0.2289  0.0581
  984YOPC   C3A14641   8.816   0.669   6.477  0.5185 -0.1648 -0.3111
  984YOPC   C4A14642   8.727   0.317   6.681  0.0018  0.2032  0.4346
  984YOPC   C1B14643   8.856   1.519   6.245  0.0252  0.0082  0.1969
  984YOPC   C2B14644   8.934   1.528   6.783 -0.3413  0.0537 -0.3404
  984YOPC   D3B14645   8.823   1.838   7.122 -0.2828  0.3007 -0.1838
  984YOPC   C4B14646   8.664   2.191   7.121  0.2278  0.0155 -0.4828
  985YOPC   NC314647   6.153  12.600   5.414 -0.1115 -0.1490  0.3648
  985YOPC   PO414648   5.710  12.384   5.449  0.0823 -0.1455  0.0592
  985YOPC   GL114649   5.744  12.623   5.769  0.0782  0.2742  0.0298
  985YOPC   GL214650   6.106  12.758   5.917  0.1950  0.1104  0.1741
  985YOPC   C1A14651   5.516  12.765   6.079  0.1896 -0.2638 -0.2869
  985YOPC   D2A14652   5.377  12.972   6.534 -0.3676  0.2398  0.0618
  985YOPC   C3A14653   5.315  13.412   6.646  0.3110 -0.0600  0.1190
  985YOPC   C4A14654   5.345  13.851   6.731 -0.0412 -0.0061 -0.1506
  985YOPC   C1B14655   5.987  12.617   6.300 -0.4357  0.2207  0.1057
  985YOPC   C2B14656   5.797  12.440   6.630  0.0001  0.0385  0.1957
  985YOPC   D3B14657   5.331  12.482   6.649  0.4306 -0.1122  0.1083
  985YOPC   C4B14658   4.987  12.702   6.808  0.1703 -0.0892 -0.1090
  986YOPC   NC314659  18.009  12.050   5.330 -0.1648  0.1206 -0.2736
  986YOPC   PO414660  17.926  12.271   5.731  0.1726 -0.0705 -0.1986
  986YOPC   GL114661  18.047  12.036   5.968 -0.0894  0.0758 -0.2103
  986YOPC   GL214662  18.406  12.000   5.827 -0.0669 -0.0957 -0.1212
  986YOPC   C1A14663  18.220  11.957   6.408  0.0908  0.0764 -0.0143
  986YOPC   D2A14664  18.426  11.848   6.823 -0.2256  0.2281  0.1495
  986YOPC   C3A14665  18.530  11.544   7.190 -0.1508 -0.1212 -0.2947
  986YOPC   C4A14666  18.366  11.234   7.508 -0.2675 -0.0708  0.2126
  986YOPC   C1B14667  18.696  12.043   6.155  0.1304 -0.0008 -0.2020
  986YOPC   C2B14668  18.851  11.916   6.522  0.0084  0.0909  0.0203
  986YOPC   D3B14669  18.879  12.116   6.808  0.0695 -0.0247  0.4052
  986YOPC   C4B14670  18.721  12.026   7.123 -0.0616  0.0532 -0.2094
  987YOPC   NC314671   3.794  17.004   5.107  0.3204 -0.0902 -0.0871
  987YOPC   PO414672   3.775  16.511   5.225  0.1906 -0.1211 -0.1829
  987YOPC   GL114673   3.466  16.484   5.575 -0.1149  0.1258  0.0866
  987YOPC   GL214674   3.071  16.475   5.538  0.2991  0.2022 -0.2487
  987YOPC   C1A14675   3.641  16.517   6.025 -0.1211  0.2546  0.0049
  987YOPC   D2A14676   3.932  16.251   6.375 -0.0622  0.1321 -0.1386
  987YOPC   C3A14677   3.910  16.224   6.738  0.1240 -0.2177 -0.0113
  987YOPC   C4A14678   4.179  16.006   7.024  0.2734  0.4239 -0.0228
  987YOPC   C1B14679   3.058  16.406   6.060  0.1854 -0.1498  0.1384
  987YOPC   C2B14680   3.012  16.271   6.538  0.0358 -0.1620 -0.1686
  987YOPC   D3B14681   2.683  15.962   6.713 -0.1571 -0.1823 -0.0578
  987YOPC   C4B14682   2.286  15.910   6.886 -0.2492 -0.0569  0.2115
  988YOPC   NC314683   3.492   9.181   5.424 -0.2343 -0.2080 -0.3103
  988YOPC   PO414684   3.211   9.560   5.349  0.0777 -0.0938  0.1080
  988YOPC   GL114685   3.517   9.635   5.825  0.0678 -0.2107 -0.1417
  988YOPC   GL214686   3.678   9.258   5.970 -0.3942  0.0858  0.1801
  988YOPC   C1A14687   3.472   9.634   6.236 -0.0156 -0.1254  0.3086
  988YOPC   D2A14688   3.319   9.674   6.629  0.0379 -0.2904  0.1780
  988YOPC   C3A14689   2.967   9.608   6.854  0.2516  0.2897 -0.0550
  988YOPC   C4A14690   2.692   9.282   7.050 -0.1642 -0.3848 -0.2197
  988YOPC   C1B14691   3.952   9.439   6.313  0.1824 -0.1318 -0.2213
  988YOPC   C2B14692   4.198   9.601   6.727 -0.2811  0.2068  0.0468
  988YOPC   D3B14693   4.451   9.388   7.023 -0.1820 -0.1433  0.0356
  988YOPC   C4B14694   4.557   9.154   7.339 -0.0859 -0.0059  0.0201
  989YOPC   NC314695  13.863   1.253   5.236  0.0569 -0.1615  0.0930
  989YOPC   PO414696  13.934   1.294   5.633 -0.2339 -0.0179 -0.2994
  989YOPC   GL114697  13.569   1.286   5.869  0.1990 -0.0173  0.2881
  989YOPC   GL214698  13.663   1.076   6.109  0.2849 -0.4228  0.0222
  989YOPC   C1A14699  13.594   1.655   6.197  0.0401  0.1394  0.0251
  989YOPC   D2A14700  13.338   1.987   6.411  0.2628  0.2155 -0.1903
  989YOPC   C3A14701  13.379   2.368   6.124 -0.1665 -0.0610 -0.2773
  989YOPC   C4A14702  13.109   2.661   5.982  0.1938 -0.3391  0.2278
  989YOPC   C1B14703  13.642   1.202   6.591 -0.1072 -0.0717 -0.0346
  989YOPC   C2B14704  13.598   1.164   7.009  0.0660 -0.0573 -0.1136
  989YOPC   D3B14705  13.542   1.625   7.162  0.1432 -0.0870  0.1383
  989YOPC   C4B14706  13.597   1.746   6.795 -0.0392  0.1892 -0.2483
  990YOPC   NC314707   2.597   6.939   5.772  0.2253  0.3058  0.0420
  990YOPC   PO414708   2.889   6.640   5.794 -0.3764 -0.0771 -0.0136
  990YOPC   GL114709   3.156   7.010   5.953  0.3827 -0.0564  0.1453
  990YOPC   GL214710   3.518   7.031   5.920 -0.0174  0.0578  0.1140
  990YOPC   C1A14711   3.123   7.129   6.391 -0.1346 -0.1817 -0.0649
  990YOPC   D2A14712   3.054   7.424   6.774 -0.1722 -0.2412  0.1411
  990YOPC   C3A14713   3.402   7.647   6.923 -0.0438  0.0407 -0.2111
  990YOPC   C4A14714   3.710   7.569   7.273  0.0058 -0.2336 -0.1663
  990YOPC   C1B14715   3.753   6.918   6.236  0.1112 -0.4421 -0.2954
  990YOPC   C2B14716   4.099   7.091   6.503 -0.1833 -0.2385  0.1526
  990YOPC   D3B14717   3.939   7.138   6.946  0.0680 -0.1539 -0.2294
  990YOPC   C4B14718   3.745   7.020   7.330  0.0034  0.1172 -0.1164
  991YOPC   NC314719  11.238  16.110   5.436 -0.2257  0.1015 -0.4080
  991YOPC   PO414720  11.520  16.369   5.619  0.2257  0.0394 -0.2747
  991YOPC   GL114721  11.748  16.207   5.921 -0.1372  0.0149  0.2077
  991YOPC   GL214722  11.577  16.446   6.145  0.0485  0.0824  0.2833
  991YOPC   C1A14723  11.700  15.949   6.339  0.0880 -0.3774  0.1379
  991YOPC   D2A14724  11.807  15.689   6.695  0.0811  0.0226  0.0742
  991YOPC   C3A14725  11.715  15.856   7.043 -0.1871  0.1670  0.0591
  991YOPC   C4A14726  11.575  15.556   7.389 -0.0709  0.1737 -0.2468
  991YOPC   C1B14727  11.365  16.832   6.369 -0.1768 -0.4226 -0.2454
  991YOPC   C2B14728  11.364  17.005   6.836  0.0279  0.1886  0.0010
  991YOPC   D3B14729  11.684  16.903   7.204 -0.1446  0.2430  0.0296
  991YOPC   C4B14730  11.677  16.473   7.303 -0.1608 -0.0216 -0.2145
  992YOPC   NC314731  11.730   1.941   5.496 -0.0351 -0.0383  0.0217
  992YOPC   PO414732  11.468   1.672   5.508  0.2403  0.1553  0.1386
  992YOPC   GL114733  11.085   1.803   5.773 -0.0449 -0.1316  0.1389
  992YOPC   GL214734  10.964   1.485   5.890 -0.2229 -0.1497  0.2169
  992YOPC   C1A14735  11.074   2.002   6.122 -0.3241 -0.1736 -0.2659
  992YOPC   D2A14736  10.912   2.343   6.207  0.2044  0.0039  0.1793
  992YOPC   C3A14737  11.200   2.772   6.110  0.0892 -0.0816  0.1361
  992YOPC   C4A14738  11.605   2.834   6.304  0.2702 -0.2008  0.0589
  992YOPC   C1B14739  10.928   1.434   6.400 -0.2152  0.3000 -0.2648
  992YOPC   C2B14740  10.709   1.330   6.887 -0.2364 -0.2456 -0.2985
  992YOPC   D3B14741  10.426   1.501   7.146  0.1593  0.1503  0.2527
  992YOPC   C4B14742  10.175   1.339   7.540  0.1001 -0.0063  0.3119
  993YOPC   NC314743  14.107  13.039   5.882  0.0971 -0.1696 -0.0642
  993YOPC   PO414744  14.368  12.685   5.689  0.2714 -0.3313  0.0125
  993YOPC   GL114745  14.212  12.748   6.207 -0.1475  0.0269 -0.1361
  993YOPC   GL214746  14.161  13.032   6.425  0.2338  0.2731 -0.2851
  993YOPC   C1A14747  14.308  12.506   6.541 -0.1037 -0.2489 -0.1066
  993YOPC   D2A14748  14.439  12.412   6.980  0.2186  0.0478  0.3167
  993YOPC   C3A14749  14.414  12.659   7.264  0.0275  0.1726  0.1755
  993YOPC   C4A14750  14.611  12.984   7.438 -0.2786  0.0577 -0.0950
  993YOPC   C1B14751  14.217  12.904   6.804 -0.3712  0.0048  0.0720
  993YOPC   C2B14752  14.002  13.038   7.202 -0.0678  0.0193 -0.3062
  993YOPC   D3B14753  13.815  12.754   7.429 -0.5205 -0.1540 -0.0967
  993YOPC   C4B14754  13.424  12.620   7.513  0.1135  0.1433  0.1568
  994YOPC   NC314755   6.299  15.199   5.220 -0.2215 -0.3171 -0.0209
  994YOPC   PO414756   6.104  15.677   5.182  0.4008  0.2430 -0.3120
  994YOPC   GL114757   6.012  15.525   5.576  0.1422 -0.3689  0.1246
  994YOPC   GL214758   6.241  15.313   5.713 -0.2012  0.1238 -0.0662
  994YOPC   C1A14759   5.956  15.670   5.968  0.1360 -0.0178  0.0540
  994YOPC   D2A14760   5.754  15.515   6.248 -0.0328  0.0454  0.1496
  994YOPC   C3A14761   5.796  15.157   6.545 -0.1266 -0.0530 -0.0871
  994YOPC   C4A14762   5.834  14.963   6.907 -0.0127  0.1777  0.0397
  994YOPC   C1B14763   5.972  15.115   6.081 -0.2482  0.0674  0.0001
  994YOPC   C2B14764   5.623  14.859   6.109  0.0818  0.3465  0.0026
  994YOPC   D3B14765   5.409  14.796   6.584 -0.4511 -0.0664  0.0141
  994YOPC   C4B14766   5.390  14.451   6.828  0.2131 -0.2364 -0.2230
  995YOPC   NC314767   2.141  15.258   5.195  0.3221  0.1249  0.0814
  995YOPC   PO414768   2.392  14.767   5.262 -0.0784  0.2975 -0.0502
  995YOPC   GL114769   2.697  14.737   5.703  0.1682  0.3065  0.2728
  995YOPC   GL214770   2.738  15.044   5.787  0.1018 -0.0738 -0.0346
  995YOPC   C1A14771   2.993  14.725   6.098  0.2117  0.0151  0.2931
  995YOPC   D2A14772   3.145  14.727   6.483 -0.0211 -0.3379  0.0768
  995YOPC   C3A14773   3.253  14.588   6.798 -0.1168 -0.1051 -0.1366
  995YOPC   C4A14774   3.387  14.283   7.172  0.4906  0.0246  0.0457
  995YOPC   C1B14775   2.761  15.474   5.898 -0.0336 -0.1772 -0.0982
  995YOPC   C2B14776   2.820  15.881   5.995  0.0519  0.1125 -0.3586
  995YOPC   D3B14777   2.608  16.174   6.166 -0.0272  0.0440  0.2111
  995YOPC   C4B14778   2.220  16.304   6.380  0.0987 -0.1255 -0.5381
  996YOPC   NC314779  16.639   6.391   5.618  0.0034 -0.1038  0.1106
  996YOPC   PO414780  16.255   6.509   5.725  0.2267  0.1660 -0.0742
  996YOPC   GL114781  16.331   6.607   6.277 -0.3134 -0.1675  0.0261
  996YOPC   GL214782  16.032   6.449   6.501  0.1509 -0.0302 -0.1133
  996YOPC   C1A14783  16.468   6.641   6.770 -0.2021 -0.4171 -0.1286
  996YOPC   D2A14784  16.836   6.949   6.890 -0.2374 -0.4767 -0.2744
  996YOPC   C3A14785  17.213   6.883   6.997  0.0596 -0.3578  0.0041
  996YOPC   C4A14786  17.723   6.821   7.067  0.0819  0.2145  0.1916
  996YOPC   C1B14787  15.618   6.410   6.737  0.0407 -0.0775 -0.2652
  996YOPC   C2B14788  15.494   6.099   6.964 -0.0804 -0.1579  0.1501
  996YOPC   D3B14789  15.398   6.051   7.392  0.0252 -0.1138 -0.0419
  996YOPC   C4B14790  15.017   6.221   7.589  0.0907 -0.2100 -0.1956
  997YOPC   NC314791  18.670  16.302   5.429  0.0216  0.1469  0.4924
  997YOPC   PO414792  18.402  16.287   5.799 -0.1442  0.3311  0.0108
  997YOPC   GL114793  18.741  16.171   5.949  0.1032 -0.1049  0.0499
  997YOPC   GL214794  18.995  16.238   5.875 -0.1163 -0.0396  0.2462
  997YOPC   C1A14795  19.028  15.893   6.268  0.3418  0.1505  0.0039
  997YOPC   D2A14796  19.002  15.675   6.666  0.1179 -0.3716  0.1476
  997YOPC   C3A14797  19.248  15.684   6.944 -0.1793 -0.1778 -0.0569
  997YOPC   C4A14798  19.372  15.542   7.311  0.4135  0.0695 -0.3294
  997YOPC   C1B14799  19.072  16.613   6.096  0.3448  0.2695 -0.0175
  997YOPC   C2B14800  18.853  16.929   6.219 -0.1022  0.0903  0.0623
  997YOPC   D3B14801  18.741  17.154   6.694 -0.0500 -0.1992 -0.1034
  997YOPC   C4B14802  18.579  17.026   7.087 -0.3759  0.1171 -0.1475
  998YOPC   NC314803  18.118  18.307   5.587 -0.3472 -0.1698 -0.1540
  998YOPC   PO414804  18.591  18.201   5.419  0.1255 -0.1955  0.2094
  998YOPC   GL114805  18.402  17.961   5.838  0.0809  0.1386  0.2920
  998YOPC   GL214806  18.693  17.665   5.897 -0.2419  0.2084  0.3509
  998YOPC   C1A14807  18.521  18.063   6.193  0.0925 -0.0833  0.0613
  998YOPC   D2A14808  18.410  18.239   6.491 -0.2609 -0.2149  0.1939
  998YOPC   C3A14809  18.139  18.313   6.809  0.1705 -0.0236  0.0160
  998YOPC   C4A14810  18.091  18.530   7.237  0.0485  0.0173 -0.2571
  998YOPC   C1B14811  18.889  17.470   6.275 -0.0247 -0.1891  0.0431
  998YOPC   C2B14812  19.204  17.431   6.544  0.1690 -0.4146  0.0006
  998YOPC   D3B14813  19.454  17.710   6.470  0.0534 -0.0721 -0.0509
  998YOPC   C4B14814  19.815  17.737   6.261  0.1915 -0.2943  0.0164
  999YOPC   NC314815  15.470   2.776   5.830 -0.1730  0.0221 -0.0374
  999YOPC   PO414816  15.890   2.463   6.045 -0.0739 -0.1023 -0.1133
  999YOPC   GL114817  15.868   2.358   6.433  0.1587  0.0713 -0.3003
  999YOPC   GL214818  16.011   2.081   6.552  0.2348  0.2310  0.2205
  999YOPC   C1A14819  15.547   2.592   6.717 -0.1752  0.3004 -0.0178
  999YOPC   D2A14820  15.300   2.711   7.023  0.1800  0.0136  0.0655
  999YOPC   C3A14821  15.256   2.495   7.437  0.0223 -0.1770 -0.1416
  999YOPC   C4A14822  15.369   2.267   7.861  0.1814 -0.1881 -0.0207
  999YOPC   C1B14823  16.448   2.026   6.672  0.0362 -0.0877 -0.0217
  999YOPC   C2B14824  16.997   1.979   6.737 -0.1266 -0.0840  0.0035
  999YOPC   D3B14825  17.257   2.165   7.074  0.0204 -0.4880  0.4404
  999YOPC   C4B14826  17.481   2.129   7.337 -0.0697  0.1657  0.0208
 1000YOPC   NC314827   0.357   7.180   5.871  0.1906 -0.1478  0.0274
 1000YOPC   PO414828   0.136   7.570   5.662 -0.0454 -0.2486  0.1357
 1000YOPC   GL114829   0.256   7.714   6.020  0.1922 -0.0761 -0.1214
 1000YOPC   GL214830   0.313   8.049   6.201 -0.1732  0.2374 -0.1441
 1000YOPC   C1A14831   0.060   7.499   6.459  0.0300  0.0828  0.1211
 1000YOPC   D2A14832  -0.368   7.364   6.661 -0.0444  0.1337 -0.1661
 1000YOPC   C3A14833  -0.436   7.419   6.996 -0.0509 -0.0325  0.0340
 1000YOPC   C4A14834  -0.769   7.612   7.187 -0.3012  0.1222  0.1736
 1000YOPC   C1B14835   0.257   8.005   6.669 -0.0465 -0.0693  0.0435
 1000YOPC   C2B14836   0.128   7.971   7.100 -0.1848 -0.1567  0.1267
 1000YOPC   D3B14837   0.071   7.491   7.095  0.1350 -0.0475 -0.0633
 1000YOPC   C4B14838  -0.077   7.059   7.123  0.1493 -0.0719  0.3048
 1001YOPC   NC314839  15.552  15.617   5.703 -0.0822 -0.2677  0.1152
 1001YOPC   PO414840  15.242  15.538   5.976 -0.0804  0.1570  0.2021
 1001YOPC   GL114841  15.321  15.396   6.330  0.0592 -0.2908 -0.1807
 1001YOPC   GL214842  15.370  15.039   6.447  0.1848  0.0663 -0.2802
 1001YOPC   C1A14843  15.342  15.445   6.796  0.3894 -0.1449  0.0919
 1001YOPC   D2A14844  15.128  15.702   7.106 -0.0191  0.0799 -0.0488
 1001YOPC   C3A14845  14.925  16.021   7.191 -0.3226  0.1193 -0.1357
 1001YOPC   C4A14846  15.068  16.396   7.171  0.0930  0.3467  0.0794
 1001YOPC   C1B14847  15.399  14.616   6.743  0.2682 -0.1359 -0.1369
 1001YOPC   C2B14848  15.018  14.402   7.019 -0.1294  0.0874 -0.3034
 1001YOPC   D3B14849  14.897  14.365   7.454  0.0133  0.2531  0.0621
 1001YOPC   C4B14850  14.515  14.513   7.565 -0.1311  0.1624  0.0200
 1002YOPC   NC314851   0.219   8.069   5.682 -0.0022 -0.1227  0.0454
 1002YOPC   PO414852   0.558   8.188   5.511  0.1719  0.0614  0.0718
 1002YOPC   GL114853   0.796   8.168   5.922 -0.0682  0.0902 -0.2910
 1002YOPC   GL214854   0.731   7.827   6.040  0.2331  0.0589  0.0443
 1002YOPC   C1A14855   0.918   8.367   6.294  0.1762  0.4368  0.2913
 1002YOPC   D2A14856   1.011   8.776   6.375 -0.2468  0.1182  0.2431
 1002YOPC   C3A14857   1.257   8.897   6.670 -0.1962 -0.0472  0.1198
 1002YOPC   C4A14858   1.261   9.043   7.115 -0.1036 -0.0140  0.0070
 1002YOPC   C1B14859   0.741   7.786   6.502  0.0932 -0.0942 -0.1530
 1002YOPC   C2B14860   0.509   7.685   6.939 -0.2128  0.1192 -0.2370
 1002YOPC   D3B14861   0.589   7.848   7.290 -0.3423  0.0651  0.2956
 1002YOPC   C4B14862   0.478   7.946   7.592 -0.1151  0.0977  0.0420
 1003YOPC   NC314863   1.160  17.572   5.487  0.0289  0.1439  0.0269
 1003YOPC   PO414864   1.153  17.050   5.305 -0.0544  0.4458 -0.3222
 1003YOPC   GL114865   1.107  17.095   5.806  0.0056  0.0612  0.0397
 1003YOPC   GL214866   1.080  17.390   5.951  0.0336  0.0178 -0.0620
 1003YOPC   C1A14867   0.995  16.773   6.223  0.0404  0.2794 -0.1957
 1003YOPC   D2A14868   1.164  16.575   6.535  0.0362 -0.0128  0.0469
 1003YOPC   C3A14869   0.955  16.476   6.886  0.1603 -0.0100  0.0662
 1003YOPC   C4A14870   0.623  16.626   7.064 -0.1984 -0.1864 -0.0450
 1003YOPC   C1B14871   0.799  17.228   6.422 -0.0469 -0.0836 -0.1573
 1003YOPC   C2B14872   0.725  17.200   6.862  0.0444 -0.0124 -0.0424
 1003YOPC   D3B14873   0.347  17.130   6.963  0.0805 -0.1088  0.0748
 1003YOPC   C4B14874   0.205  16.748   7.305  0.0790 -0.1143 -0.4672
 1004YOPC   NC314875  11.767   1.272   5.579 -0.0310 -0.2139 -0.0310
 1004YOPC   PO414876  12.050   1.644   5.650 -0.1808 -0.0741  0.1685
 1004YOPC   GL114877  12.247   1.705   5.993  0.0459 -0.1237  0.4431
 1004YOPC   GL214878  11.977   1.696   6.139  0.1653 -0.1737 -0.0759
 1004YOPC   C1A14879  12.308   1.967   6.353  0.0007 -0.0924  0.2736
 1004YOPC   D2A14880  12.274   1.836   6.769  0.0423 -0.1211 -0.1092
 1004YOPC   C3A14881  12.405   1.884   7.248 -0.0211  0.1206  0.1390
 1004YOPC   C4A14882  12.556   1.691   7.680 -0.2951 -0.1924 -0.0236
 1004YOPC   C1B14883  11.893   1.413   6.525 -0.1863  0.1385  0.0868
 1004YOPC   C2B14884  12.185   1.233   6.681 -0.0588  0.2021  0.0029
 1004YOPC   D3B14885  11.984   1.154   7.062  0.1054  0.2977 -0.2012
 1004YOPC   C4B14886  11.828   1.272   7.398  0.2266 -0.0529  0.1247
 1005YOPC   NC314887  12.763  16.959   5.296 -0.2740 -0.1270  0.3004
 1005YOPC   PO414888  12.378  17.113   5.460  0.1311  0.2152  0.1007
 1005YOPC   GL114889  12.450  16.898   5.874  0.2478 -0.4195 -0.1384
 1005YOPC   GL214890  12.502  17.173   6.022 -0.1651 -0.0069  0.1618
 1005YOPC   C1A14891  12.146  16.638   6.026  0.3131 -0.0772  0.1125
 1005YOPC   D2A14892  12.024  16.394   6.366 -0.0210  0.0962  0.1457
 1005YOPC   C3A14893  12.140  16.146   6.810 -0.0599  0.1295 -0.4241
 1005YOPC   C4A14894  12.183  15.719   7.080  0.1038 -0.0886 -0.2242
 1005YOPC   C1B14895  12.336  17.016   6.331  0.3134  0.0305 -0.0270
 1005YOPC   C2B14896  11.878  16.845   6.473  0.3677  0.1536  0.0274
 1005YOPC   D3B14897  11.786  16.634   6.744 -0.1307  0.0753 -0.0442
 1005YOPC   C4B14898  11.546  16.212   6.792  0.3498  0.1315  0.0264
 1006YOPC   NC314899   4.857   4.145   5.535 -0.1632 -0.1914  0.2932
 1006YOPC   PO414900   4.915   3.827   5.867  0.0541 -0.0672 -0.1573
 1006YOPC   GL114901   4.944   3.596   6.141 -0.4166  0.2124  0.0792
 1006YOPC   GL214902   5.237   3.777   6.473 -0.0632 -0.0074  0.2099
 1006YOPC   C1A14903   4.899   3.423   6.564  0.0008  0.0595 -0.1427
 1006YOPC   D2A14904   4.685   3.406   6.910  0.1508 -0.3071  0.3840
 1006YOPC   C3A14905   4.480   3.039   7.029 -0.1401  0.0452 -0.0692
 1006YOPC   C4A14906   4.356   2.897   7.491  0.0996 -0.2941 -0.0480
 1006YOPC   C1B14907   5.106   3.672   6.953 -0.4107 -0.1672  0.1598
 1006YOPC   C2B14908   5.382   3.579   7.183  0.0804  0.3885 -0.2147
 1006YOPC   D3B14909   5.312   3.748   7.615 -0.0674  0.1323  0.0701
 1006YOPC   C4B14910   5.259   3.589   7.997  0.2463 -0.0056 -0.0143
 1007YOPC   NC314911  11.463  16.946   4.861  0.1139  0.3132  0.0725
 1007YOPC   PO414912  11.296  17.106   5.284 -0.2912  0.1414 -0.0309
 1007YOPC   GL114913  11.246  17.221   5.732 -0.4390 -0.3563  0.1566
 1007YOPC   GL214914  11.389  16.969   5.779  0.1383  0.3837 -0.1327
 1007YOPC   C1A14915  11.045  17.169   6.216  0.2093  0.0703  0.1416
 1007YOPC   D2A14916  11.177  17.510   6.347 -0.3198 -0.1426 -0.3458
 1007YOPC   C3A14917  11.602  17.511   6.420 -0.0749 -0.4697  0.0495
 1007YOPC   C4A14918  11.677  17.471   6.858 -0.1718  0.0439 -0.0090
 1007YOPC   C1B14919  11.718  17.122   6.089 -0.5120 -0.2555 -0.0202
 1007YOPC   C2B14920  12.042  17.388   6.039  0.0787 -0.0301 -0.0189
 1007YOPC   D3B14921  12.415  17.672   6.223 -0.1310 -0.2617  0.3485
 1007YOPC   C4B14922  12.747  17.845   6.519 -0.0121 -0.1783  0.0096
 1008YOPC   NC314923  12.143   9.125   5.494 -0.0663  0.0547  0.0496
 1008YOPC   PO414924  12.103   9.648   5.572 -0.0118 -0.0441 -0.1189
 1008YOPC   GL114925  12.265   9.827   6.007 -0.3124 -0.1025 -0.0140
 1008YOPC   GL214926  12.599  10.003   6.098 -0.0798  0.2148 -0.0184
 1008YOPC   C1A14927  12.253   9.825   6.551 -0.0741  0.4295 -0.2680
 1008YOPC   D2A14928  12.583   9.718   6.814  0.1641 -0.1981  0.2008
 1008YOPC   C3A14929  12.998   9.560   6.833  0.0302  0.4008 -0.1548
 1008YOPC   C4A14930  13.311   9.490   7.174 -0.0549  0.2406 -0.1781
 1008YOPC   C1B14931  12.818   9.809   6.422 -0.1747 -0.1631  0.0082
 1008YOPC   C2B14932  13.104  10.045   6.774  0.0406  0.0187 -0.0575
 1008YOPC   D3B14933  12.793  10.188   7.047 -0.1402 -0.1367 -0.0907
 1008YOPC   C4B14934  12.471  10.345   7.261  0.0718 -0.0724 -0.3460
 1009YOPC   NC314935  11.024   8.820   5.291 -0.2868 -0.2733  0.3866
 1009YOPC   PO414936  10.731   8.496   5.369  0.1469 -0.0280 -0.0303
 1009YOPC   GL114937  10.516   8.280   5.673 -0.1173  0.0816  0.1520
 1009YOPC   GL214938  10.743   8.000   5.831  0.3830 -0.0273  0.0488
 1009YOPC   C1A14939  10.316   8.375   6.034 -0.1783  0.1266 -0.0777
 1009YOPC   D2A14940  10.543   8.229   6.487 -0.0735  0.0630  0.2190
 1009YOPC   C3A14941  10.766   7.788   6.646 -0.2890  0.0098  0.2862
 1009YOPC   C4A14942  10.684   7.426   6.755 -0.3562 -0.1534  0.1611
 1009YOPC   C1B14943  10.970   8.252   6.124  0.3272 -0.3526  0.0251
 1009YOPC   C2B14944  11.396   8.395   6.244 -0.0051 -0.0556 -0.1270
 1009YOPC   D3B14945  11.512   8.596   6.644  0.0546  0.0594 -0.1626
 1009YOPC   C4B14946  11.934   8.665   6.865  0.4777  0.2746  0.1053
 1010YOPC   NC314947   9.742  14.245   4.784  0.5085 -0.2046 -0.2457
 1010YOPC   PO414948   9.488  13.879   4.872 -0.2824  0.2739  0.1186
 1010YOPC   GL114949   9.656  13.800   5.294 -0.0888  0.0425  0.0144
 1010YOPC   GL214950   9.904  14.053   5.266  0.0294 -0.0775  0.0103
 1010YOPC   C1A14951   9.718  13.941   5.764 -0.1381 -0.1584  0.0054
 1010YOPC   D2A14952   9.728  14.221   6.281  0.2927  0.0716  0.1368
 1010YOPC   C3A14953  10.039  14.242   6.556  0.1861 -0.3654 -0.1907
 1010YOPC   C4A14954  10.022  14.474   6.897 -0.0155 -0.3429 -0.0110
 1010YOPC   C1B14955  10.161  14.021   5.680  0.1797 -0.1514  0.0719
 1010YOPC   C2B14956  10.301  13.890   6.113  0.1999 -0.0000  0.0058
 1010YOPC   D3B14957   9.960  13.755   6.502 -0.3331  0.1408 -0.1983
 1010YOPC   C4B14958   9.545  13.825   6.578 -0.2095 -0.2945 -0.0793
 1011YOPC   NC314959   9.606   3.752   5.493 -0.1306  0.0271 -0.2777
 1011YOPC   PO414960   9.661   3.654   5.898  0.0508 -0.0220  0.0331
 1011YOPC   GL114961   9.394   3.875   6.167  0.0376 -0.1443  0.3528
 1011YOPC   GL214962   9.256   4.087   5.982 -0.1868  0.0021  0.1409
 1011YOPC   C1A14963   9.178   3.957   6.502 -0.5398  0.2980  0.3643
 1011YOPC   D2A14964   9.303   3.997   6.886  0.1707  0.2075 -0.2292
 1011YOPC   C3A14965   9.638   4.287   7.033  0.0079 -0.0576  0.1727
 1011YOPC   C4A14966   9.776   4.688   7.118  0.0448  0.0812  0.1309
 1011YOPC   C1B14967   8.874   3.775   6.076  0.0123  0.0366  0.2953
 1011YOPC   C2B14968   8.723   3.406   6.108 -0.3213 -0.0217 -0.1510
 1011YOPC   D3B14969   8.741   3.084   6.327  0.1147 -0.0031 -0.1220
 1011YOPC   C4B14970   8.531   2.811   6.627 -0.0311 -0.1969  0.1718
 1012YOPC   NC314971   4.087   8.419   5.571  0.3001  0.0561  0.1071
 1012YOPC   PO414972   4.286   8.819   5.498  0.0455 -0.1918  0.0216
 1012YOPC   GL114973   4.205   9.013   5.903  0.1322  0.2577 -0.2341
 1012YOPC   GL214974   4.296   9.281   5.972  0.1105 -0.0332  0.1890
 1012YOPC   C1A14975   4.084   8.910   6.286  0.4509  0.0730  0.0395
 1012YOPC   D2A14976   4.275   9.100   6.631  0.1090 -0.2108 -0.1748
 1012YOPC   C3A14977   4.376   8.867   6.889  0.2410 -0.0274  0.0850
 1012YOPC   C4A14978   4.555   8.596   7.268  0.1634 -0.1412 -0.1747
 1012YOPC   C1B14979   4.598   9.271   6.225 -0.0989 -0.1094 -0.0090
 1012YOPC   C2B14980   4.742   9.372   6.563  0.1249  0.3352 -0.2764
 1012YOPC   D3B14981   5.013   9.613   6.299  0.0725 -0.1354 -0.2573
 1012YOPC   C4B14982   5.214   9.449   6.011  0.0176 -0.2551 -0.0990
 1013YOPC   NC314983   4.927   1.015   5.079 -0.0982  0.1714 -0.1471
 1013YOPC   PO414984   5.344   0.869   5.100 -0.0680 -0.1110  0.3324
 1013YOPC   GL114985   5.108   0.846   5.550  0.3036 -0.0554 -0.0072
 1013YOPC   GL214986   4.809   0.956   5.644  0.0617  0.1426 -0.0996
 1013YOPC   C1A14987   4.909   0.623   5.944 -0.3269 -0.0513 -0.2039
 1013YOPC   D2A14988   4.882   0.653   6.389  0.0880  0.0944  0.1320
 1013YOPC   C3A14989   5.209   0.794   6.665  0.1383 -0.0607  0.1127
 1013YOPC   C4A14990   5.325   0.833   7.064  0.2093 -0.1817 -0.0462
 1013YOPC   C1B14991   4.642   1.000   6.096 -0.0447 -0.5335  0.0702
 1013YOPC   C2B14992   4.547   1.007   6.569  0.3099  0.3899 -0.0560
 1013YOPC   D3B14993   4.082   0.831   6.638 -0.0426 -0.0564 -0.0897
 1013YOPC   C4B14994   3.640   0.824   6.676 -0.0475 -0.1185 -0.0190
 1014YOPC   NC314995  18.625   7.866   5.749  0.2365 -0.0330 -0.0003
 1014YOPC   PO414996  18.798   8.305   6.045  0.0021 -0.1632 -0.0558
 1014YOPC   GL114997  18.776   8.449   6.490 -0.0238 -0.1169  0.1756
 1014YOPC   GL214998  18.447   8.355   6.586  0.0302  0.1623  0.1393
 1014YOPC   C1A14999  18.709   8.376   7.001  0.0192 -0.0319 -0.0823
 1014YOPC   D2A15000  18.860   8.323   7.444  0.1869 -0.0213  0.0043
 1014YOPC   C3A15001  18.866   7.802   7.605  0.1200  0.2023 -0.3712
 1014YOPC   C4A15002  18.570   7.445   7.549  0.2042 -0.1481 -0.1377
 1014YOPC   C1B15003  18.171   8.260   6.870 -0.2772  0.0305 -0.5219
 1014YOPC   C2B15004  17.732   8.048   7.075  0.0806  0.3824  0.2470
 1014YOPC   D3B15005  17.600   7.778   7.382  0.0896 -0.0437  0.0180
 1014YOPC   C4B15006  17.391   7.411   7.642 -0.0457  0.0579  0.1265
 1015YOPC   NC315007   6.914   8.974   5.582  0.0107 -0.0363 -0.0007
 1015YOPC   PO415008   6.810   8.555   5.647  0.0835  0.1921 -0.0608
 1015YOPC   GL115009   6.831   8.724   6.055  0.2142  0.1514 -0.2883
 1015YOPC   GL215010   6.447   8.815   6.098  0.1285  0.1014  0.2536
 1015YOPC   C1A15011   6.754   9.016   6.395 -0.0320 -0.1797 -0.1766
 1015YOPC   D2A15012   6.556   9.302   6.643 -0.2095  0.1103 -0.0904
 1015YOPC   C3A15013   6.624   9.528   7.009 -0.1260  0.1201  0.1407
 1015YOPC   C4A15014   6.488   9.632   7.414 -0.0600  0.1009  0.2183
 1015YOPC   C1B15015   6.533   8.611   6.458  0.0911 -0.1753  0.5272
 1015YOPC   C2B15016   6.783   8.704   6.816  0.4372  0.3234  0.0346
 1015YOPC   D3B15017   7.132   8.863   6.692  0.1296 -0.1695 -0.3339
 1015YOPC   C4B15018   7.489   9.034   6.640  0.0976 -0.2872  0.2185
 1016YOPC   NC315019   5.414  10.607   5.211  0.0426  0.0449 -0.0393
 1016YOPC   PO415020   5.904  10.601   5.103 -0.1612  0.0250 -0.1279
 1016YOPC   GL115021   5.794  10.674   5.500  0.0080  0.3920  0.0844
 1016YOPC   GL215022   5.736  10.912   5.705 -0.1248 -0.1545  0.1181
 1016YOPC   C1A15023   5.614  10.458   5.898 -0.2198  0.0197  0.1119
 1016YOPC   D2A15024   5.651  10.399   6.229  0.1002  0.0798  0.1471
 1016YOPC   C3A15025   5.980  10.450   6.511 -0.1651  0.1433  0.1497
 1016YOPC   C4A15026   6.410  10.592   6.473  0.1753  0.1852  0.4247
 1016YOPC   C1B15027   5.894  11.264   5.912 -0.2501 -0.1372 -0.1165
 1016YOPC   C2B15028   5.730  11.618   6.116 -0.2759 -0.2383  0.1631
 1016YOPC   D3B15029   5.642  11.570   6.574 -0.0655  0.1137 -0.2401
 1016YOPC   C4B15030   5.732  11.344   6.929 -0.1839  0.3135 -0.3206
 1017YOPC   NC315031  18.755  12.089   5.385  0.1720  0.2653 -0.2661
 1017YOPC   PO415032  18.396  12.407   5.540 -0.2268 -0.0471  0.1384
 1017YOPC   GL115033  18.481  12.588   5.920  0.1513  0.1876  0.3411
 1017YOPC   GL215034  18.353  12.409   6.205  0.1587 -0.0121  0.1902
 1017YOPC   C1A15035  18.640  12.816   6.140  0.0404 -0.0161 -0.1144
 1017YOPC   D2A15036  18.402  13.251   6.202  0.1007  0.0171  0.0878
 1017YOPC   C3A15037  18.209  13.268   6.619  0.3547 -0.0941 -0.3672
 1017YOPC   C4A15038  18.193  13.528   7.048  0.1895 -0.1101  0.1433
 1017YOPC   C1B15039  18.415  12.374   6.670 -0.0869  0.2280  0.0972
 1017YOPC   C2B15040  18.309  12.304   7.090 -0.0483  0.0998 -0.0975
 1017YOPC   D3B15041  18.556  12.597   7.378 -0.3007  0.3610  0.0597
 1017YOPC   C4B15042  18.851  12.682   7.733 -0.0607  0.5325  0.0424
 1018YOPC   NC315043   0.155   4.668   5.601 -0.0516  0.1293  0.2078
 1018YOPC   PO415044   0.362   4.505   6.023 -0.0745 -0.0202 -0.2148
 1018YOPC   GL115045   0.203   4.543   6.373 -0.2173  0.4476  0.2788
 1018YOPC   GL215046   0.432   4.323   6.495 -0.4072 -0.1452  0.0474
 1018YOPC   C1A15047   0.273   4.731   6.767  0.0354  0.0097  0.1664
 1018YOPC   D2A15048   0.213   5.104   7.068 -0.3822  0.1305  0.0771
 1018YOPC   C3A15049  -0.146   5.138   7.331 -0.0932  0.1122 -0.2022
 1018YOPC   C4A15050  -0.559   5.172   7.482 -0.0382 -0.4919 -0.2091
 1018YOPC   C1B15051   0.520   4.089   6.721 -0.3035  0.0305 -0.3750
 1018YOPC   C2B15052   0.878   3.869   6.859  0.2583  0.3296 -0.2563
 1018YOPC   D3B15053   1.153   3.717   7.232  0.2833  0.0082 -0.1169
 1018YOPC   C4B15054   1.500   3.840   7.535  0.0534  0.3185  0.0520
 1019YOPC   NC315055  18.133  17.638   5.531  0.1913  0.0756  0.1659
 1019YOPC   PO415056  18.317  17.349   5.868  0.3869  0.2668  0.2341
 1019YOPC   GL115057  18.241  17.182   6.263  0.1537  0.0824  0.1429
 1019YOPC   GL215058  18.413  17.424   6.466 -0.1950 -0.1546  0.2093
 1019YOPC   C1A15059  18.424  16.930   6.484  0.2699  0.0673 -0.2638
 1019YOPC   D2A15060  18.552  16.502   6.309  0.0465 -0.1305  0.1325
 1019YOPC   C3A15061  18.843  16.185   6.578  0.2369 -0.4533 -0.2058
 1019YOPC   C4A15062  18.974  16.322   7.043  0.0373 -0.1315 -0.0259
 1019YOPC   C1B15063  18.205  17.329   6.919  0.0395 -0.0239  0.0497
 1019YOPC   C2B15064  17.981  17.555   7.314 -0.3069  0.0901 -0.0207
 1019YOPC   D3B15065  18.134  17.978   7.567 -0.1652  0.3502 -0.1629
 1019YOPC   C4B15066  18.211  18.436   7.752 -0.2387 -0.0281  0.1829
 1020YOPC   NC315067   3.990  16.631   4.738  0.0161 -0.0252  0.4512
 1020YOPC   PO415068   4.233  16.706   5.109  0.1366  0.0861 -0.1098
 1020YOPC   GL115069   4.139  16.540   5.548  0.0357 -0.3081  0.0011
 1020YOPC   GL215070   3.988  16.236   5.570 -0.2543 -0.0285  0.0640
 1020YOPC   C1A15071   4.162  16.796   5.901 -0.0005  0.2319  0.3330
 1020YOPC   D2A15072   3.945  17.118   6.057  0.1220  0.1523 -0.3473
 1020YOPC   C3A15073   3.482  17.062   6.249  0.2599  0.2399  0.2389
 1020YOPC   C4A15074   3.104  16.920   6.228 -0.0968 -0.0241  0.0851
 1020YOPC   C1B15075   3.760  16.094   5.929 -0.3578 -0.5341  0.0555
 1020YOPC   C2B15076   3.431  15.991   6.014 -0.0578  0.2429 -0.0667
 1020YOPC   D3B15077   3.373  15.546   5.985 -0.1046 -0.5236 -0.1605
 1020YOPC   C4B15078   3.179  15.190   6.214  0.1115  0.1199  0.0357
 1021YOPC   NC315079  17.790  14.630   5.021 -0.3353  0.3320  0.1070
 1021YOPC   PO415080  18.133  14.612   5.390 -0.0789 -0.0768  0.6063
 1021YOPC   GL115081  18.386  14.669   5.880  0.0198  0.0681  0.0410
 1021YOPC   GL215082  18.269  14.588   6.165 -0.1056  0.2724  0.2841
 1021YOPC   C1A15083  18.855  14.459   6.013 -0.0514  0.0370 -0.0770
 1021YOPC   D2A15084  19.055  14.504   6.370 -0.0558  0.0786  0.0208
 1021YOPC   C3A15085  19.194  14.910   6.497  0.0395  0.0875  0.1706
 1021YOPC   C4A15086  19.218  15.206   6.822 -0.2434 -0.0711 -0.0865
 1021YOPC   C1B15087  17.903  14.775   6.396  0.1672  0.0108 -0.3561
 1021YOPC   C2B15088  17.722  14.722   6.803 -0.0324 -0.0983 -0.2109
 1021YOPC   D3B15089  18.049  14.742   7.108  0.2329 -0.0488  0.1088
 1021YOPC   C4B15090  18.003  14.903   7.459 -0.0936 -0.0775  0.0744
 1022YOPC   NC315091   2.013  14.052   5.276  0.1552 -0.1232 -0.0699
 1022YOPC   PO415092   1.972  13.526   5.312  0.1783  0.0498 -0.3154
 1022YOPC   GL115093   1.979  13.681   5.699 -0.0127 -0.1467  0.0023
 1022YOPC   GL215094   2.312  13.818   5.665 -0.1690  0.2164 -0.0997
 1022YOPC   C1A15095   1.701  13.547   6.058  0.3086 -0.1694 -0.3313
 1022YOPC   D2A15096   1.273  13.456   6.015  0.1221 -0.0111 -0.1201
 1022YOPC   C3A15097   1.110  13.590   6.464 -0.2793 -0.1263  0.0125
 1022YOPC   C4A15098   0.740  13.549   6.614  0.2824  0.1930 -0.2937
 1022YOPC   C1B15099   2.487  13.839   6.053 -0.0456  0.2447 -0.0692
 1022YOPC   C2B15100   2.596  14.073   6.474 -0.1037 -0.0559  0.0035
 1022YOPC   D3B15101   2.711  14.480   6.494  0.2835  0.1115  0.1502
 1022YOPC   C4B15102   2.671  14.675   6.827 -0.0928  0.1357 -0.1165
 1023YOPC   NC315103  10.373   5.649   5.555 -0.0523  0.5081 -0.2722
 1023YOPC   PO415104  10.422   5.202   5.631 -0.0317 -0.0119 -0.1249
 1023YOPC   GL115105  10.295   5.421   6.020  0.0980  0.4016 -0.1234
 1023YOPC   GL215106  10.383   5.319   6.251 -0.2362 -0.0161  0.0949
 1023YOPC   C1A15107  10.236   5.741   6.405 -0.1102 -0.1278  0.3471
 1023YOPC   D2A15108  10.252   5.794   6.816 -0.1009  0.1319  0.1071
 1023YOPC   C3A15109  10.520   5.603   7.051  0.0488 -0.3321  0.1518
 1023YOPC   C4A15110  10.472   5.470   7.455 -0.2976  0.3283  0.1934
 1023YOPC   C1B15111  10.300   5.311   6.679 -0.0291 -0.2333  0.1805
 1023YOPC   C2B15112  10.384   5.154   7.023  0.2345 -0.2946 -0.1383
 1023YOPC   D3B15113  10.025   5.127   7.272  0.1906  0.0003  0.1718
 1023YOPC   C4B15114   9.690   4.975   7.491  0.1041  0.3843  0.0034
 1024YOPC   NC315115   8.946   8.872   5.570  0.2158 -0.3004 -0.1675
 1024YOPC   PO415116   9.068   8.475   5.406 -0.0162  0.2319 -0.2740
 1024YOPC   GL115117   9.137   8.545   5.840 -0.1166  0.1038 -0.1985
 1024YOPC   GL215118   8.860   8.601   6.056  0.0718 -0.3015 -0.1344
 1024YOPC   C1A15119   9.429   8.763   6.114  0.0330 -0.2526  0.3036
 1024YOPC   D2A15120   9.801   8.830   6.382  0.0083  0.3040  0.0401
 1024YOPC   C3A15121  10.208   8.668   6.472  0.1005  0.1296 -0.1629
 1024YOPC   C4A15122  10.545   8.810   6.744  0.3478 -0.0310 -0.2841
 1024YOPC   C1B15123   8.630   8.614   6.484 -0.1937 -0.1500 -0.1398
 1024YOPC   C2B15124   8.631   8.528   6.796  0.0612 -0.0333  0.0756
 1024YOPC   D3B15125   8.592   8.810   7.184 -0.0302  0.0719  0.2820
 1024YOPC   C4B15126   8.866   9.222   7.254 -0.0394 -0.1648 -0.1187
 1025YOPC   NC315127  18.084  15.873   5.770 -0.0369  0.4904  0.5213
 1025YOPC   PO415128  17.819  16.248   5.839  0.1772  0.0961 -0.1262
 1025YOPC   GL115129  17.476  16.336   6.203  0.0282 -0.2652 -0.0467
 1025YOPC   GL215130  17.245  16.111   6.051 -0.2032  0.0907 -0.0593
 1025YOPC   C1A15131  17.596  16.270   6.602 -0.0209  0.0396 -0.0417
 1025YOPC   D2A15132  17.541  16.290   7.017 -0.0835 -0.0448 -0.1753
 1025YOPC   C3A15133  17.220  16.408   7.226  0.0838 -0.1808  0.1866
 1025YOPC   C4A15134  16.869  16.320   7.079  0.3134  0.1523 -0.0071
 1025YOPC   C1B15135  17.462  15.838   6.358  0.1648  0.2265 -0.0581
 1025YOPC   C2B15136  17.646  15.829   6.842  0.1738  0.0235 -0.2340
 1025YOPC   D3B15137  17.781  15.660   7.305 -0.0411 -0.2278  0.0174
 1025YOPC   C4B15138  17.933  15.781   7.632 -0.1817  0.0936 -0.0229
 1026YOPC   NC315139  17.015  15.789   5.711  0.1813 -0.3410 -0.1164
 1026YOPC   PO415140  16.844  16.211   5.657  0.0675  0.0254  0.2798
 1026YOPC   GL115141  16.578  16.390   6.060  0.4055 -0.0275 -0.1789
 1026YOPC   GL215142  16.284  16.241   6.207 -0.0387  0.2139  0.2938
 1026YOPC   C1A15143  16.533  16.328   6.608 -0.0775 -0.0222 -0.1400
 1026YOPC   D2A15144  16.473  16.090   6.952  0.0116 -0.0416  0.0333
 1026YOPC   C3A15145  16.778  15.869   7.183 -0.1669  0.2495  0.1226
 1026YOPC   C4A15146  16.953  15.901   7.553  0.1876 -0.2539 -0.5034
 1026YOPC   C1B15147  16.270  15.841   6.445  0.0474  0.1178 -0.1481
 1026YOPC   C2B15148  16.423  15.610   6.925  0.1259  0.1082 -0.1631
 1026YOPC   D3B15149  16.296  15.765   7.307 -0.2757  0.0175 -0.0218
 1026YOPC   C4B15150  16.096  15.960   7.661 -0.1291 -0.3630  0.1824
 1027YOPC   NC315151  17.654   6.768   5.770  0.0935 -0.3354 -0.3629
 1027YOPC   PO415152  17.849   6.981   6.041 -0.0011  0.2129  0.1356
 1027YOPC   GL115153  17.897   6.880   6.518 -0.0091 -0.1267 -0.0493
 1027YOPC   GL215154  17.926   6.577   6.631  0.3249 -0.3190 -0.3765
 1027YOPC   C1A15155  18.012   7.198   6.845 -0.1563  0.0064  0.1786
 1027YOPC   D2A15156  18.139   7.104   7.297  0.0370  0.0666 -0.1990
 1027YOPC   C3A15157  17.717   7.077   7.448 -0.0654  0.2150  0.1201
 1027YOPC   C4A15158  17.593   7.315   7.164 -0.0782 -0.1486 -0.2553
 1027YOPC   C1B15159  17.700   6.172   6.667 -0.2360 -0.0262 -0.1193
 1027YOPC   C2B15160  17.512   5.879   6.985 -0.0989 -0.2198  0.0721
 1027YOPC   D3B15161  17.312   5.432   7.066 -0.0131 -0.1138  0.1146
 1027YOPC   C4B15162  17.438   5.024   6.850  0.0017  0.1847 -0.0845
 1028YOPC   NC315163   3.565   6.158   5.430 -0.1142  0.3360 -0.0040
 1028YOPC   PO415164   4.005   6.271   5.669 -0.0888  0.2560 -0.1037
 1028YOPC   GL115165   3.950   6.545   6.063  0.1574  0.2111  0.0857
 1028YOPC   GL215166   3.987   6.141   6.179  0.0844 -0.4371 -0.0561
 1028YOPC   C1A15167   4.042   6.572   6.436  0.0330  0.1657  0.1703
 1028YOPC   D2A15168   4.131   6.672   6.823  0.1630 -0.0613  0.3012
 1028YOPC   C3A15169   4.102   6.620   7.189  0.1892 -0.2744  0.0995
 1028YOPC   C4A15170   4.094   6.641   7.600  0.0884 -0.2911  0.1341
 1028YOPC   C1B15171   3.962   6.121   6.565  0.0612 -0.0419  0.2902
 1028YOPC   C2B15172   4.104   6.033   7.002  0.4122 -0.0747  0.1666
 1028YOPC   D3B15173   4.150   6.150   7.496  0.1656 -0.0784 -0.0278
 1028YOPC   C4B15174   4.533   6.238   7.701  0.5468  0.2388 -0.2391
 1029YOPC   NC315175   4.549   9.289   5.472 -0.2657  0.0707  0.1151
 1029YOPC   PO415176   4.461   9.755   5.652 -0.0072  0.1014 -0.5506
 1029YOPC   GL115177   4.564  10.079   5.830  0.0899  0.3741 -0.2313
 1029YOPC   GL215178   4.350  10.245   5.928 -0.1095  0.0084  0.0777
 1029YOPC   C1A15179   4.966  10.216   5.995  0.1257  0.2049  0.3277
 1029YOPC   D2A15180   5.153  10.587   6.164 -0.1624  0.1020  0.1916
 1029YOPC   C3A15181   5.159  10.565   6.581 -0.1435  0.0370  0.1225
 1029YOPC   C4A15182   5.318  10.246   6.885 -0.0095  0.2103  0.1178
 1029YOPC   C1B15183   4.216  10.252   6.353  0.0024 -0.0887 -0.0660
 1029YOPC   C2B15184   4.303  10.283   6.829 -0.1726 -0.1846  0.1709
 1029YOPC   D3B15185   4.407   9.933   7.089 -0.0099  0.1044  0.1690
 1029YOPC   C4B15186   4.185   9.775   7.466  0.0424 -0.1453 -0.0855
 1030YOPC   NC315187  11.948  14.150   5.363  0.0497  0.4454  0.4398
 1030YOPC   PO415188  12.023  14.497   5.631 -0.0901  0.1853 -0.1004
 1030YOPC   GL115189  11.746  14.566   5.983  0.2404 -0.0574 -0.0401
 1030YOPC   GL215190  11.426  14.478   6.022  0.2010  0.0220  0.0060
 1030YOPC   C1A15191  11.742  14.363   6.440  0.0062  0.0086 -0.1264
 1030YOPC   D2A15192  11.723  14.119   6.865 -0.3134  0.0616 -0.1656
 1030YOPC   C3A15193  11.415  14.297   7.236  0.1187  0.4902 -0.0494
 1030YOPC   C4A15194  11.011  14.114   7.372 -0.1722 -0.0627  0.0036
 1030YOPC   C1B15195  11.125  14.256   6.141 -0.0756 -0.1191  0.0742
 1030YOPC   C2B15196  10.802  14.299   6.423 -0.1316  0.1993 -0.1697
 1030YOPC   D3B15197  10.495  14.028   6.537 -0.2081 -0.2187  0.0304
 1030YOPC   C4B15198  10.177  13.912   6.915 -0.1734  0.0800 -0.2516
 1031YOPC   NC315199  13.497  12.864   5.460  0.0269 -0.2336 -0.0463
 1031YOPC   PO415200  13.682  13.279   5.792  0.0612 -0.2098  0.4274
 1031YOPC   GL115201  13.675  13.469   6.116 -0.0639  0.2306  0.4404
 1031YOPC   GL215202  13.683  13.185   6.332 -0.2601 -0.2016 -0.1593
 1031YOPC   C1A15203  13.862  13.606   6.457  0.3026  0.0050  0.1494
 1031YOPC   D2A15204  13.965  13.351   6.831 -0.0223  0.1902  0.0404
 1031YOPC   C3A15205  13.834  13.526   7.399  0.0790 -0.2042 -0.2215
 1031YOPC   C4A15206  13.594  13.360   7.675 -0.0111  0.1141  0.2032
 1031YOPC   C1B15207  13.414  13.399   6.713 -0.0650  0.0134  0.2122
 1031YOPC   C2B15208  13.295  13.757   6.998  0.1132  0.0037  0.1777
 1031YOPC   D3B15209  13.298  13.686   7.437  0.2670  0.1090  0.0221
 1031YOPC   C4B15210  13.637  13.798   7.838  0.3513 -0.2077  0.0189
 1032YOPC   NC315211   2.988  11.311   5.275 -0.1859  0.3152 -0.1626
 1032YOPC   PO415212   2.529  11.292   5.557  0.0609  0.3205 -0.0441
 1032YOPC   GL115213   2.481  11.389   5.991 -0.2033 -0.0361  0.2221
 1032YOPC   GL215214   2.572  11.607   6.240 -0.1719  0.0020 -0.1541
 1032YOPC   C1A15215   2.277  11.263   6.480 -0.0113 -0.0306 -0.0898
 1032YOPC   D2A15216   1.971  11.012   6.739 -0.0457  0.1451  0.0525
 1032YOPC   C3A15217   1.939  10.850   7.110 -0.0261 -0.3081  0.3179
 1032YOPC   C4A15218   1.851  10.810   7.616  0.0078 -0.0302 -0.2975
 1032YOPC   C1B15219   2.600  11.579   6.725 -0.0910 -0.0653  0.0762
 1032YOPC   C2B15220   2.354  11.443   6.965  0.0786 -0.1212 -0.1947
 1032YOPC   D3B15221   2.487  11.476   7.377  0.1869 -0.0231 -0.2266
 1032YOPC   C4B15222   2.505  11.461   7.840 -0.0266 -0.0811 -0.1321
 1033YOPC   NC315223   0.700  10.100   5.530 -0.0182 -0.0028  0.1635
 1033YOPC   PO415224   1.077  10.074   5.720 -0.1969 -0.2131 -0.2887
 1033YOPC   GL115225   1.092  10.049   6.135 -0.2765 -0.0881  0.0938
 1033YOPC   GL215226   1.054   9.743   6.114 -0.0553 -0.2514 -0.3076
 1033YOPC   C1A15227   1.264  10.276   6.594  0.3101  0.0188  0.2318
 1033YOPC   D2A15228   1.136  10.400   6.998 -0.1961  0.1268 -0.0238
 1033YOPC   C3A15229   1.162  10.848   7.204  0.5763  0.0957  0.0951
 1033YOPC   C4A15230   1.562  11.102   7.387 -0.0346  0.1566 -0.3943
 1033YOPC   C1B15231   1.192   9.790   6.558 -0.1207 -0.0642 -0.1369
 1033YOPC   C2B15232   1.229   9.900   7.011 -0.3541  0.1094  0.0965
 1033YOPC   D3B15233   1.505   9.630   7.258 -0.2073 -0.0561  0.2727
 1033YOPC   C4B15234   1.600   9.284   7.400 -0.1038  0.0162  0.4847
 1034YOPC   NC315235  11.904   6.497   5.504 -0.2666  0.1814  0.1007
 1034YOPC   PO415236  12.276   6.391   5.391 -0.2517 -0.2570 -0.3123
 1034YOPC   GL115237  12.246   6.263   5.841 -0.1943 -0.0553  0.2403
 1034YOPC   GL215238  12.544   6.424   5.880  0.0179  0.0515  0.0295
 1034YOPC   C1A15239  12.091   6.098   6.316  0.1308 -0.1265 -0.0938
 1034YOPC   D2A15240  12.264   6.186   6.740  0.2760  0.3641  0.1137
 1034YOPC   C3A15241  12.029   6.448   7.059  0.1116  0.2172 -0.1930
 1034YOPC   C4A15242  11.658   6.595   7.262 -0.0833 -0.2988  0.2120
 1034YOPC   C1B15243  12.466   6.438   6.360  0.0262 -0.0893 -0.1243
 1034YOPC   C2B15244  12.217   6.678   6.655 -0.0345  0.3005  0.1742
 1034YOPC   D3B15245  11.810   6.419   6.577  0.0078 -0.1030 -0.1166
 1034YOPC   C4B15246  11.523   6.086   6.451  0.2059 -0.0130  0.0233
 1035YOPC   NC315247   8.154   8.805   5.037  0.0366  0.3994  0.0258
 1035YOPC   PO415248   7.785   8.793   5.241 -0.0640 -0.0527  0.3695
 1035YOPC   GL115249   7.814   8.703   5.743  0.0094  0.0954 -0.1294
 1035YOPC   GL215250   7.802   8.985   5.952 -0.2956  0.3689 -0.2368
 1035YOPC   C1A15251   7.763   8.470   6.075 -0.1840  0.1302 -0.0087
 1035YOPC   D2A15252   7.981   8.070   6.129  0.1878  0.0347 -0.1549
 1035YOPC   C3A15253   7.826   7.708   6.304 -0.0518 -0.1962  0.1300
 1035YOPC   C4A15254   8.076   7.384   6.515  0.0534 -0.1271  0.1236
 1035YOPC   C1B15255   7.818   9.002   6.249 -0.0243 -0.0614 -0.1254
 1035YOPC   C2B15256   7.959   8.708   6.532  0.2140  0.1758 -0.0151
 1035YOPC   D3B15257   8.155   8.799   6.970 -0.0859  0.1970  0.1378
 1035YOPC   C4B15258   8.086   8.779   7.456  0.0506 -0.2942 -0.0426
 1036YOPC   NC315259  10.518   8.963   5.202  0.2868  0.2439 -0.0732
 1036YOPC   PO415260  10.145   9.260   5.316  0.0187  0.2112 -0.0226
 1036YOPC   GL115261  10.107   9.265   5.736  0.1102  0.4062  0.2805
 1036YOPC   GL215262  10.443   9.364   5.789 -0.1548 -0.2982 -0.2007
 1036YOPC   C1A15263   9.742   9.220   6.007 -0.1689  0.1568 -0.1810
 1036YOPC   D2A15264   9.458   9.305   6.367  0.0023 -0.1340  0.3012
 1036YOPC   C3A15265   9.689   9.549   6.690  0.2477  0.4726 -0.2733
 1036YOPC   C4A15266  10.002   9.774   7.009  0.1119  0.0218  0.3747
 1036YOPC   C1B15267  10.644   9.217   6.012  0.2608  0.1442 -0.3031
 1036YOPC   C2B15268  10.658   9.199   6.377 -0.0623  0.2247 -0.2963
 1036YOPC   D3B15269  10.599   9.429   6.684  0.2932  0.0306 -0.1241
 1036YOPC   C4B15270  10.434   9.560   7.129  0.2822  0.3144 -0.2200
 1037YOPC   NC315271  13.227  11.286   5.704 -0.0351  0.1115  0.1279
 1037YOPC   PO415272  13.206  10.844   5.680  0.4161  0.3154  0.0619
 1037YOPC   GL115273  13.066  10.830   6.033 -0.0053 -0.2589 -0.0000
 1037YOPC   GL215274  12.892  11.157   6.098 -0.0983  0.0484  0.1599
 1037YOPC   C1A15275  13.211  10.893   6.517  0.0228  0.0437 -0.2330
 1037YOPC   D2A15276  13.556  10.906   6.725  0.1140 -0.0420 -0.2861
 1037YOPC   C3A15277  13.536  11.190   6.929 -0.2083  0.0520 -0.0869
 1037YOPC   C4A15278  13.492  11.459   7.181 -0.1992 -0.1618 -0.3485
 1037YOPC   C1B15279  12.785  11.197   6.556 -0.3295  0.1304 -0.5596
 1037YOPC   C2B15280  12.991  11.243   7.008  0.2342  0.1264 -0.0737
 1037YOPC   D3B15281  13.129  10.989   7.213  0.1537  0.0185 -0.1242
 1037YOPC   C4B15282  13.301  10.847   7.571 -0.0633  0.1690 -0.0440
 1038YOPC   NC315283  15.598   3.831   5.587  0.2674 -0.0875 -0.0467
 1038YOPC   PO415284  15.799   3.771   6.010 -0.1015  0.1648 -0.0751
 1038YOPC   GL115285  15.873   3.563   6.350  0.2894  0.0840 -0.0570
 1038YOPC   GL215286  16.226   3.601   6.518 -0.0141  0.0380 -0.2317
 1038YOPC   C1A15287  15.732   3.259   6.555  0.2552  0.0240 -0.1304
 1038YOPC   D2A15288  15.619   3.107   6.921 -0.1549 -0.0245 -0.0446
 1038YOPC   C3A15289  15.740   2.707   7.218 -0.0579 -0.0242 -0.0063
 1038YOPC   C4A15290  16.119   2.619   7.422 -0.1902 -0.2117 -0.0160
 1038YOPC   C1B15291  16.236   3.854   6.959  0.2085 -0.1669  0.1558
 1038YOPC   C2B15292  15.817   4.048   7.174 -0.0465  0.2440  0.0116
 1038YOPC   D3B15293  15.729   3.638   7.444  0.1986 -0.0590 -0.3005
 1038YOPC   C4B15294  15.585   3.195   7.402  0.0583  0.0920  0.1863
 1039YOPC   NC315295   1.495  11.815   5.476  0.0184 -0.2566  0.2767
 1039YOPC   PO415296   1.461  11.310   5.406  0.1910 -0.1444  0.0077
 1039YOPC   GL115297   1.312  11.241   5.902 -0.0024 -0.0698 -0.1111
 1039YOPC   GL215298   1.657  11.005   5.818  0.0333  0.1308 -0.3806
 1039YOPC   C1A15299   1.015  11.300   6.283 -0.3378 -0.1424 -0.0320
 1039YOPC   D2A15300   0.961  11.581   6.646  0.2661  0.4338 -0.0796
 1039YOPC   C3A15301   1.270  11.780   6.855 -0.1592 -0.1870 -0.2558
 1039YOPC   C4A15302   1.345  12.178   7.219 -0.0226 -0.0736 -0.2665
 1039YOPC   C1B15303   1.880  11.326   6.036 -0.0249 -0.1260  0.0139
 1039YOPC   C2B15304   1.997  11.647   6.266  0.2551  0.2229 -0.2171
 1039YOPC   D3B15305   2.053  11.715   6.629  0.0648 -0.1299  0.1647
 1039YOPC   C4B15306   1.767  11.901   7.028 -0.0163  0.2421  0.0798
 1040YOPC   NC315307  13.526  15.994   5.947  0.2424 -0.0652  0.2968
 1040YOPC   PO415308  13.874  15.881   5.915  0.0779 -0.0414 -0.2888
 1040YOPC   GL115309  13.830  16.151   6.309  0.2745 -0.0456  0.0597
 1040YOPC   GL215310  13.531  16.146   6.487  0.4553  0.3205  0.1177
 1040YOPC   C1A15311  13.932  16.323   6.702 -0.1427  0.1886 -0.1459
 1040YOPC   D2A15312  14.301  16.651   6.904 -0.0662  0.0086  0.4176
 1040YOPC   C3A15313  14.710  16.517   6.899 -0.1695 -0.2009 -0.0740
 1040YOPC   C4A15314  14.908  16.291   6.561 -0.1640  0.3612 -0.1793
 1040YOPC   C1B15315  13.464  16.203   6.928 -0.1720  0.0964 -0.0618
 1040YOPC   C2B15316  13.705  16.034   7.207 -0.2632  0.0091  0.0883
 1040YOPC   D3B15317  13.575  15.430   7.329 -0.1278  0.0391  0.0313
 1040YOPC   C4B15318  13.141  15.357   7.435 -0.0210 -0.1370  0.2357
 1041YOPC   NC315319   0.736  13.701   5.408 -0.0814 -0.0402 -0.1835
 1041YOPC   PO415320   1.182  13.489   5.552 -0.4813  0.1951 -0.4498
 1041YOPC   GL115321   1.417  13.900   5.709  0.1133  0.0072  0.2135
 1041YOPC   GL215322   1.315  13.968   6.153 -0.1156 -0.0157 -0.4067
 1041YOPC   C1A15323   1.723  14.027   5.883  0.0029  0.1584 -0.2992
 1041YOPC   D2A15324   1.973  13.935   6.239  0.2231  0.3668  0.0469
 1041YOPC   C3A15325   1.620  13.748   6.518 -0.1374  0.0092  0.0884
 1041YOPC   C4A15326   1.565  13.806   6.978 -0.1779 -0.2615  0.1934
 1041YOPC   C1B15327   1.344  14.101   6.579  0.0300 -0.2020 -0.1031
 1041YOPC   C2B15328   1.159  14.198   7.006  0.0241  0.1263  0.0263
 1041YOPC   D3B15329   1.417  14.584   7.104  0.1800 -0.1992  0.0888
 1041YOPC   C4B15330   1.656  14.741   7.488  0.0619  0.1189 -0.0748
 1042YOPC   NC315331  14.463  11.832   5.983 -0.0136 -0.1141  0.4240
 1042YOPC   PO415332  14.089  11.806   5.868  0.1399  0.2190 -0.0114
 1042YOPC   GL115333  13.983  11.847   6.271 -0.2118 -0.2650 -0.0953
 1042YOPC   GL215334  13.665  11.874   6.224  0.0003 -0.2019 -0.1096
 1042YOPC   C1A15335  13.969  11.649   6.618  0.0290 -0.2752 -0.0733
 1042YOPC   D2A15336  14.035  11.356   6.999  0.1597  0.2442 -0.3984
 1042YOPC   C3A15337  14.478  11.382   7.234  0.0870 -0.0071  0.1739
 1042YOPC   C4A15338  14.698  11.384   7.577  0.4035 -0.0594  0.1113
 1042YOPC   C1B15339  13.606  11.507   6.293  0.0611 -0.0688  0.1865
 1042YOPC   C2B15340  13.356  11.345   6.481 -0.1988 -0.2666  0.0087
 1042YOPC   D3B15341  13.394  11.716   6.677 -0.3124  0.0784  0.0358
 1042YOPC   C4B15342  13.717  11.887   6.992 -0.1948  0.0764  0.0853
 1043YOPC   NC315343   6.295   9.551   5.663  0.0704 -0.3237  0.2003
 1043YOPC   PO415344   6.436   9.065   5.665  0.0054 -0.3874  0.0064
 1043YOPC   GL115345   6.602   9.261   5.947  0.2222 -0.0926 -0.1979
 1043YOPC   GL215346   6.416   9.416   6.225  0.2216 -0.1417  0.0761
 1043YOPC   C1A15347   6.877   9.449   6.274  0.0213 -0.0051  0.3055
 1043YOPC   D2A15348   7.084   9.423   6.704  0.0620 -0.0042 -0.1968
 1043YOPC   C3A15349   7.433   9.610   6.782 -0.0005  0.1458 -0.1361
 1043YOPC   C4A15350   7.761   9.660   7.125 -0.2236 -0.1009  0.0370
 1043YOPC   C1B15351   6.078   9.567   6.553  0.0539  0.3005 -0.3330
 1043YOPC   C2B15352   6.117   9.560   6.840 -0.0844  0.3654 -0.1598
 1043YOPC   D3B15353   5.696   9.400   6.937 -0.2382  0.0524  0.0471
 1043YOPC   C4B15354   5.402   9.301   7.283  0.0602  0.2715 -0.0055
 1044YOPC   NC315355  11.688  14.832   5.499 -0.0949 -0.1280  0.0897
 1044YOPC   PO415356  11.266  15.143   5.329  0.0523  0.1141  0.0709
 1044YOPC   GL115357  11.453  15.203   5.828  0.2024 -0.4361 -0.1722
 1044YOPC   GL215358  11.134  15.427   5.994 -0.1550 -0.2354 -0.2365
 1044YOPC   C1A15359  11.290  14.942   6.064  0.3203 -0.0161  0.1883
 1044YOPC   D2A15360  11.079  14.708   6.359  0.0152 -0.1324  0.1600
 1044YOPC   C3A15361  10.948  14.797   6.791 -0.1042  0.3424 -0.0212
 1044YOPC   C4A15362  10.968  14.568   7.202 -0.0515 -0.0256  0.2356
 1044YOPC   C1B15363  11.309  15.551   6.356 -0.1360 -0.0479  0.1413
 1044YOPC   C2B15364  11.239  15.771   6.805  0.1909 -0.1594 -0.1608
 1044YOPC   D3B15365  11.302  16.104   7.196  0.0410 -0.2002 -0.1054
 1044YOPC   C4B15366  11.242  16.627   7.175 -0.0146 -0.1450 -0.0540
 1045YOPC   NC315367   4.704   5.093   5.560  0.0627  0.0576 -0.0211
 1045YOPC   PO415368   4.453   5.240   5.854 -0.2857 -0.1240 -0.1109
 1045YOPC   GL115369   4.519   5.159   6.282  0.1967  0.1887 -0.0118
 1045YOPC   GL215370   4.611   4.826   6.142 -0.1957 -0.0672  0.0587
 1045YOPC   C1A15371   4.378   4.902   6.583  0.0433 -0.1845  0.1925
 1045YOPC   D2A15372   4.734   4.820   6.871  0.3167 -0.1506  0.0005
 1045YOPC   C3A15373   4.845   5.233   7.118  0.0829  0.0027  0.1044
 1045YOPC   C4A15374   4.992   5.434   7.442 -0.0165  0.2138  0.2399
 1045YOPC   C1B15375   4.692   4.513   6.441  0.0154  0.1745  0.0851
 1045YOPC   C2B15376   4.708   4.037   6.608  0.0347 -0.0621 -0.2917
 1045YOPC   D3B15377   4.451   3.670   6.524 -0.6592  0.0001 -0.1092
 1045YOPC   C4B15378   4.061   3.522   6.315 -0.2169 -0.2492  0.1266
 1046YOPC   NC315379   1.251   6.642   5.863  0.3221  0.3455 -0.2086
 1046YOPC   PO415380   1.697   6.685   5.992  0.4344  0.0126 -0.1365
 1046YOPC   GL115381   1.533   6.469   6.280  0.0398 -0.0785  0.1220
 1046YOPC   GL215382   1.697   6.546   6.553  0.4174 -0.1598 -0.3097
 1046YOPC   C1A15383   1.151   6.580   6.506  0.2308 -0.2748 -0.2624
 1046YOPC   D2A15384   1.316   6.467   6.961 -0.0691  0.0564  0.0875
 1046YOPC   C3A15385   1.205   6.349   7.400  0.0049  0.1839 -0.1541
 1046YOPC   C4A15386   1.261   6.022   7.614 -0.3653  0.1489  0.1313
 1046YOPC   C1B15387   1.943   6.388   6.881  0.0102  0.1139  0.2030
 1046YOPC   C2B15388   2.193   6.138   7.129 -0.1198  0.0711 -0.0860
 1046YOPC   D3B15389   2.196   6.238   7.522 -0.5124  0.1231  0.1020
 1046YOPC   C4B15390   2.014   6.255   7.983 -0.0259  0.3530 -0.1964
 1047YOPC   NC315391  11.111   9.667   5.560  0.0152 -0.0330  0.2198
 1047YOPC   PO415392  10.725   9.711   5.524 -0.0384 -0.0206  0.2515
 1047YOPC   GL115393  10.721   9.864   5.924 -0.0381  0.0982  0.0387
 1047YOPC   GL215394  10.386  10.218   5.989 -0.2061  0.0696  0.0097
 1047YOPC   C1A15395  10.612   9.695   6.287 -0.0049 -0.2430 -0.2080
 1047YOPC   D2A15396  10.382   9.860   6.715 -0.0002  0.0617  0.2443
 1047YOPC   C3A15397  10.223  10.271   6.751  0.2642  0.1031 -0.0316
 1047YOPC   C4A15398   9.947  10.634   6.793  0.0606 -0.2865 -0.0196
 1047YOPC   C1B15399  10.162  10.125   6.294  0.2588  0.0907 -0.1936
 1047YOPC   C2B15400   9.827  10.031   6.601  0.3523 -0.0657  0.0063
 1047YOPC   D3B15401   9.504  10.285   6.813 -0.2005  0.1741 -0.1105
 1047YOPC   C4B15402   9.463  10.546   7.201  0.0148  0.1328  0.0561
 1048YOPC   NC315403  15.903  11.439   5.445 -0.1320 -0.1431  0.2341
 1048YOPC   PO415404  15.981  10.986   5.710 -0.0256 -0.4285  0.0742
 1048YOPC   GL115405  16.186  10.909   6.155  0.2943  0.0526 -0.0432
 1048YOPC   GL215406  16.323  11.194   6.219 -0.1892  0.3486 -0.1295
 1048YOPC   C1A15407  16.216  10.624   6.463  0.0097 -0.1221  0.1787
 1048YOPC   D2A15408  16.106  10.432   6.745  0.2444 -0.0606  0.0173
 1048YOPC   C3A15409  15.932  10.630   7.010 -0.1859 -0.2304  0.1805
 1048YOPC   C4A15410  15.966  10.906   7.345  0.0020 -0.2420  0.0569
 1048YOPC   C1B15411  16.594  11.120   6.453 -0.4354 -0.0848 -0.1553
 1048YOPC   C2B15412  16.922  11.259   6.720  0.0424 -0.0622  0.2274
 1048YOPC   D3B15413  16.909  11.102   7.147  0.0926  0.0742  0.1171
 1048YOPC   C4B15414  16.987  11.099   7.587 -0.1230  0.1569  0.0452
 1049YOPC   NC315415  13.246  16.276   5.552 -0.2450  0.4339  0.0822
 1049YOPC   PO415416  12.979  16.615   5.469 -0.1392  0.2856  0.2483
 1049YOPC   GL115417  12.831  16.503   5.958  0.0700 -0.0077  0.0925
 1049YOPC   GL215418  13.081  16.266   5.986  0.3831 -0.1278  0.2009
 1049YOPC   C1A15419  12.527  16.438   6.350  0.2095 -0.4682  0.1478
 1049YOPC   D2A15420  12.347  16.613   6.666 -0.0193  0.4076 -0.0330
 1049YOPC   C3A15421  12.167  16.634   7.130  0.3118  0.0278 -0.3316
 1049YOPC   C4A15422  12.144  16.893   7.490  0.4470  0.1285  0.1371
 1049YOPC   C1B15423  12.839  16.025   6.212 -0.0741  0.0050 -0.0588
 1049YOPC   C2B15424  12.460  15.972   6.523 -0.1238  0.0629 -0.0610
 1049YOPC   D3B15425  12.521  15.548   6.782  0.0952 -0.1183  0.0629
 1049YOPC   C4B15426  12.917  15.400   6.947 -0.1773 -0.1486 -0.3330
 1050YOPC   NC315427   1.064  13.468   5.084 -0.1784 -0.0480  0.1458
 1050YOPC   PO415428   0.994  13.066   5.390 -0.4823  0.0620  0.3812
 1050YOPC   GL115429   1.138  13.003   5.839 -0.2745 -0.1048  0.0811
 1050YOPC   GL215430   1.287  12.869   5.942  0.2594  0.0546  0.0867
 1050YOPC   C1A15431   0.977  13.090   6.223 -0.0512 -0.3326 -0.1208
 1050YOPC   D2A15432   1.119  13.030   6.588 -0.3748  0.3815  0.0112
 1050YOPC   C3A15433   0.791  13.076   6.831  0.1299  0.0737  0.1945
 1050YOPC   C4A15434   0.622  13.360   7.088 -0.3398 -0.2641 -0.1724
 1050YOPC   C1B15435   1.499  12.492   6.269  0.1872  0.5210 -0.0285
 1050YOPC   C2B15436   1.658  12.143   6.492  0.0993 -0.3278 -0.2739
 1050YOPC   D3B15437   2.013  12.221   6.704  0.1945 -0.0278  0.1654
 1050YOPC   C4B15438   2.471  12.118   6.673  0.0114  0.0145  0.2422
 1051YOPC   NC315439   9.626   3.263   5.495 -0.3189 -0.1482 -0.0865
 1051YOPC   PO415440   9.801   3.029   5.755 -0.0049 -0.1714 -0.1880
 1051YOPC   GL115441   9.648   3.214   6.101 -0.1917 -0.2875 -0.0990
 1051YOPC   GL215442   9.317   3.202   6.064 -0.2730  0.0740  0.3794
 1051YOPC   C1A15443   9.563   3.095   6.609  0.2397 -0.0603 -0.3591
 1051YOPC   D2A15444   9.403   2.961   6.940 -0.0345 -0.4367 -0.1271
 1051YOPC   C3A15445   9.103   3.019   7.230 -0.0460  0.1307 -0.2156
 1051YOPC   C4A15446   8.888   2.713   7.477  0.0137  0.1882 -0.2565
 1051YOPC   C1B15447   9.176   3.439   6.466  0.2702 -0.0191  0.2075
 1051YOPC   C2B15448   8.830   3.611   6.593 -0.0800 -0.0189  0.0610
 1051YOPC   D3B15449   8.778   3.439   7.045  0.0088 -0.0701  0.0390
 1051YOPC   C4B15450   8.891   3.287   7.579 -0.0596  0.1756 -0.1814
 1052YOPC   NC315451   7.342   1.435   5.405  0.2723  0.1748  0.1744
 1052YOPC   PO415452   7.340   0.985   5.467 -0.0118  0.1846 -0.0459
 1052YOPC   GL115453   7.315   1.126   5.793 -0.2461  0.1785  0.1059
 1052YOPC   GL215454   7.595   0.995   6.010 -0.1179  0.0784  0.1569
 1052YOPC   C1A15455   7.145   1.230   6.278  0.0197  0.0301 -0.0900
 1052YOPC   D2A15456   7.039   1.284   6.650 -0.0245  0.2653 -0.0864
 1052YOPC   C3A15457   6.741   1.577   6.749  0.1723  0.4213 -0.1508
 1052YOPC   C4A15458   6.400   1.771   7.104  0.0197 -0.1377 -0.0099
 1052YOPC   C1B15459   7.509   0.647   6.001 -0.1306  0.1329  0.3378
 1052YOPC   C2B15460   7.801   0.356   6.151  0.0676 -0.1324 -0.3166
 1052YOPC   D3B15461   7.851   0.501   6.550 -0.1585 -0.3508  0.1327
 1052YOPC   C4B15462   7.748   0.831   6.949 -0.1321 -0.2369  0.0440
 1053YOPC   NC315463  16.267   3.394   6.025 -0.0425  0.0544 -0.0430
 1053YOPC   PO415464  16.614   3.111   5.988  0.1048 -0.1690  0.0549
 1053YOPC   GL115465  16.533   3.009   6.386 -0.1074 -0.0987  0.1173
 1053YOPC   GL215466  16.214   3.065   6.509  0.4924 -0.0227  0.1566
 1053YOPC   C1A15467  16.536   2.866   6.840 -0.1015  0.0514 -0.0775
 1053YOPC   D2A15468  16.694   2.729   7.209 -0.2268  0.0512 -0.1098
 1053YOPC   C3A15469  16.898   3.179   7.182  0.0780 -0.0472 -0.2490
 1053YOPC   C4A15470  16.978   3.628   7.219 -0.1092 -0.0973  0.1425
 1053YOPC   C1B15471  16.022   2.807   6.726  0.2071 -0.2063 -0.0886
 1053YOPC   C2B15472  16.207   2.368   6.908 -0.0006 -0.0860 -0.0131
 1053YOPC   D3B15473  16.188   2.099   7.374 -0.0782  0.1360 -0.0166
 1053YOPC   C4B15474  16.052   1.954   7.758  0.1612 -0.2402 -0.2278
 1054YOPC   NC315475  16.527  10.997   5.762 -0.0550  0.0016 -0.0189
 1054YOPC   PO415476  16.776  10.702   5.944  0.1223 -0.3006  0.0217
 1054YOPC   GL115477  16.904  10.684   6.383  0.0207 -0.2985 -0.0165
 1054YOPC   GL215478  16.677  10.462   6.357  0.1795 -0.1286  0.2314
 1054YOPC   C1A15479  16.933  10.719   6.821  0.1019 -0.0791  0.0551
 1054YOPC   D2A15480  16.883  10.685   7.342  0.1481  0.0416 -0.0517
 1054YOPC   C3A15481  16.960  10.579   7.767 -0.0189 -0.1876 -0.3357
 1054YOPC   C4A15482  16.870  10.816   8.075 -0.4211 -0.0760  0.4215
 1054YOPC   C1B15483  16.594  10.316   6.800 -0.0178  0.1799 -0.1512
 1054YOPC   C2B15484  16.387  10.050   7.153  0.0854  0.1594  0.0700
 1054YOPC   D3B15485  16.580   9.715   7.508  0.1227  0.1718  0.0497
 1054YOPC   C4B15486  16.322   9.492   7.760  0.1019 -0.1448 -0.1826
 1055YOPC   NC315487  10.002   1.590   4.830  0.0096  0.3441 -0.1957
 1055YOPC   PO415488   9.861   1.321   5.218  0.3038 -0.0767 -0.1422
 1055YOPC   GL115489   9.851   1.264   5.624 -0.0635  0.2348 -0.1833
 1055YOPC   GL215490   9.524   1.148   5.715 -0.2927 -0.0531  0.0324
 1055YOPC   C1A15491   9.986   1.235   6.080 -0.0316 -0.2440  0.1978
 1055YOPC   D2A15492  10.039   1.041   6.473  0.0161  0.2367  0.0139
 1055YOPC   C3A15493  10.154   0.613   6.423 -0.2690  0.1128 -0.3078
 1055YOPC   C4A15494  10.480   0.409   6.213  0.0359 -0.0678  0.2627
 1055YOPC   C1B15495   9.543   1.065   6.159 -0.0508  0.1359 -0.2451
 1055YOPC   C2B15496   9.595   0.816   6.580 -0.2688 -0.5017  0.0311
 1055YOPC   D3B15497   9.255   0.744   6.789  0.5366  0.0199  0.1322
 1055YOPC   C4B15498   8.957   0.516   7.018 -0.0530 -0.3311 -0.2214
 1056YOPC   NC315499   2.151  10.232   5.265  0.2515  0.0601  0.0728
 1056YOPC   PO415500   1.903   9.843   5.335  0.0677  0.3153 -0.2448
 1056YOPC   GL115501   1.904  10.140   5.739 -0.4899  0.1924  0.2407
 1056YOPC   GL215502   1.982  10.025   6.018  0.1525 -0.2939 -0.0464
 1056YOPC   C1A15503   1.664  10.494   5.918  0.4489  0.1192  0.0972
 1056YOPC   D2A15504   1.526  10.709   6.315 -0.0879 -0.1293  0.0891
 1056YOPC   C3A15505   1.495  11.160   6.385 -0.0244 -0.0115 -0.0772
 1056YOPC   C4A15506   1.418  11.543   6.390 -0.2028 -0.4590 -0.0733
 1056YOPC   C1B15507   1.668  10.067   6.403  0.1839 -0.0792 -0.0219
 1056YOPC   C2B15508   1.679   9.877   6.773 -0.3318  0.1754  0.0130
 1056YOPC   D3B15509   1.669  10.120   7.169 -0.0446 -0.1138  0.1372
 1056YOPC   C4B15510   1.622  10.479   7.347 -0.0276  0.3788  0.2504
 1057YOPC   NC315511   5.502  16.892   5.205 -0.5600  0.1142 -0.0216
 1057YOPC   PO415512   5.361  17.385   5.131  0.0983 -0.4195 -0.0010
 1057YOPC   GL115513   5.518  17.614   5.562 -0.1751 -0.3361 -0.3283
 1057YOPC   GL215514   5.713  17.922   5.567  0.1853  0.0913  0.2142
 1057YOPC   C1A15515   5.441  17.488   6.002  0.0459  0.0095 -0.1823
 1057YOPC   D2A15516   5.171  17.112   6.203 -0.0649 -0.2117 -0.2338
 1057YOPC   C3A15517   4.924  17.129   6.558  0.1138 -0.0774 -0.0612
 1057YOPC   C4A15518   4.782  17.376   6.832  0.0137  0.1671 -0.1447
 1057YOPC   C1B15519   5.884  17.685   5.934 -0.0482  0.1943 -0.0993
 1057YOPC   C2B15520   6.040  17.333   6.115  0.2051  0.0973 -0.1065
 1057YOPC   D3B15521   5.776  17.036   6.136 -0.1176  0.3197  0.0026
 1057YOPC   C4B15522   5.899  16.689   6.129  0.2114 -0.0419  0.2610
 1058YOPC   NC315523   1.249   5.042   6.084  0.0461 -0.0301 -0.1880
 1058YOPC   PO415524   1.518   5.311   6.157 -0.0147 -0.1873  0.0092
 1058YOPC   GL115525   1.604   5.310   6.524 -0.0404  0.0391  0.1654
 1058YOPC   GL215526   1.476   5.486   6.785  0.0623  0.2845  0.2868
 1058YOPC   C1A15527   1.681   4.998   6.771  0.2765  0.0827  0.0813
 1058YOPC   D2A15528   2.060   4.809   7.043  0.1561 -0.0615 -0.3767
 1058YOPC   C3A15529   2.054   4.395   7.309 -0.2512 -0.0911 -0.1815
 1058YOPC   C4A15530   2.034   3.871   7.411  0.0850 -0.2181 -0.0178
 1058YOPC   C1B15531   1.627   5.352   7.183  0.2164 -0.0622 -0.0033
 1058YOPC   C2B15532   2.095   5.294   7.283 -0.4301  0.0762 -0.5372
 1058YOPC   D3B15533   2.219   5.034   7.499  0.1950 -0.0603 -0.1130
 1058YOPC   C4B15534   2.463   4.693   7.461  0.1192  0.1527 -0.1618
 1059YOPC   NC315535   7.605   0.759   5.104  0.0154 -0.0635  0.3937
 1059YOPC   PO415536   7.998   0.945   4.964  0.0825  0.0090 -0.1982
 1059YOPC   GL115537   8.100   0.833   5.469  0.0162 -0.0150  0.0999
 1059YOPC   GL215538   8.042   0.963   5.776 -0.1058  0.2784 -0.2051
 1059YOPC   C1A15539   8.032   0.438   5.729 -0.0936 -0.2425  0.1579
 1059YOPC   D2A15540   8.104   0.026   5.864  0.5358 -0.1872  0.1224
 1059YOPC   C3A15541   8.193  -0.013   6.381  0.0894  0.0085  0.1202
 1059YOPC   C4A15542   8.286   0.003   6.834  0.1136 -0.1099  0.1068
 1059YOPC   C1B15543   8.011   0.828   6.146 -0.2151 -0.2729 -0.1612
 1059YOPC   C2B15544   8.025   0.994   6.541  0.1179 -0.0689  0.0677
 1059YOPC   D3B15545   7.952   1.301   6.916 -0.0815 -0.2456 -0.2884
 1059YOPC   C4B15546   7.643   1.345   7.225 -0.2719 -0.0975 -0.1586
 1060YOPC   NC315547  17.535   1.170   5.638  0.0998 -0.0093 -0.0663
 1060YOPC   PO415548  17.540   1.113   6.109 -0.0480  0.1497  0.3362
 1060YOPC   GL115549  17.431   1.036   6.457  0.0452  0.2410 -0.0478
 1060YOPC   GL215550  17.594   0.688   6.459 -0.1287  0.0306 -0.0088
 1060YOPC   C1A15551  17.550   0.952   6.959 -0.2024 -0.0194 -0.1412
 1060YOPC   D2A15552  17.639   0.987   7.390  0.0827 -0.0687 -0.1446
 1060YOPC   C3A15553  18.082   0.909   7.494  0.0762  0.0201  0.0249
 1060YOPC   C4A15554  18.329   0.636   7.745 -0.3979  0.0180 -0.5327
 1060YOPC   C1B15555  17.867   0.486   6.776 -0.1031  0.1732  0.1886
 1060YOPC   C2B15556  18.040   0.561   7.200  0.3976  0.0592 -0.2219
 1060YOPC   D3B15557  17.729   0.525   7.607 -0.2025  0.2801  0.1556
 1060YOPC   C4B15558  17.353   0.498   7.709  0.1675 -0.2084 -0.1411
 1061YOPC   NC315559  14.476   7.227   5.674  0.0882  0.4286 -0.0199
 1061YOPC   PO415560  14.373   7.296   5.989 -0.0358 -0.1487 -0.4048
 1061YOPC   GL115561  14.149   7.045   6.279  0.1513  0.0394 -0.0268
 1061YOPC   GL215562  14.130   6.772   6.216 -0.0583  0.4985 -0.1185
 1061YOPC   C1A15563  13.716   7.004   6.430 -0.3161  0.2598  0.0782
 1061YOPC   D2A15564  13.642   7.002   6.819 -0.2664 -0.1127  0.2493
 1061YOPC   C3A15565  13.306   7.032   6.903  0.5427  0.2911 -0.6226
 1061YOPC   C4A15566  13.089   6.880   7.313  0.0227  0.0590 -0.1837
 1061YOPC   C1B15567  14.150   6.638   6.612 -0.1313 -0.1521 -0.0786
 1061YOPC   C2B15568  14.263   6.542   7.016  0.1359  0.3829 -0.1268
 1061YOPC   D3B15569  14.188   6.407   7.455 -0.0158 -0.0126 -0.2664
 1061YOPC   C4B15570  14.415   6.191   7.788  0.1240  0.1014 -0.1275
 1062YOPC   NC315571   4.826   2.226   5.457  0.3206 -0.2536  0.3596
 1062YOPC   PO415572   4.530   1.943   5.218 -0.1501 -0.0003  0.1754
 1062YOPC   GL115573   4.251   1.736   5.574 -0.0294 -0.1280  0.0661
 1062YOPC   GL215574   4.034   1.969   5.797 -0.2502  0.0058 -0.0024
 1062YOPC   C1A15575   4.139   1.462   6.022  0.1317 -0.1130  0.0830
 1062YOPC   D2A15576   4.384   1.449   6.405 -0.4850  0.3980  0.0902
 1062YOPC   C3A15577   4.157   1.297   6.781  0.0992 -0.1048  0.0591
 1062YOPC   C4A15578   3.886   1.172   7.087  0.1685 -0.1836 -0.0548
 1062YOPC   C1B15579   3.709   2.028   6.204 -0.1354  0.1825 -0.1374
 1062YOPC   C2B15580   3.625   1.998   6.506  0.1790  0.1934 -0.3302
 1062YOPC   D3B15581   3.783   1.577   6.571 -0.0741 -0.0039  0.1838
 1062YOPC   C4B15582   3.823   1.231   6.370  0.3092 -0.2128  0.0320
 1063YOPC   NC315583   6.157   2.432   5.399 -0.1103  0.1375 -0.1492
 1063YOPC   PO415584   6.063   1.856   5.486  0.2868 -0.0896 -0.2568
 1063YOPC   GL115585   5.746   1.719   5.804  0.0615  0.0178 -0.0634
 1063YOPC   GL215586   5.897   1.401   5.799 -0.1219  0.3065  0.3088
 1063YOPC   C1A15587   5.529   1.645   6.173  0.0804  0.4580  0.2348
 1063YOPC   D2A15588   5.462   1.854   6.519 -0.1722  0.1462  0.2356
 1063YOPC   C3A15589   5.508   1.885   6.997  0.0513 -0.0851  0.1586
 1063YOPC   C4A15590   5.526   1.734   7.282  0.4401  0.0942  0.0188
 1063YOPC   C1B15591   5.852   1.209   6.227  0.2002 -0.1325  0.2500
 1063YOPC   C2B15592   5.659   0.854   6.385  0.3240 -0.1378  0.0453
 1063YOPC   D3B15593   5.737   1.031   6.725 -0.0863 -0.2102 -0.0718
 1063YOPC   C4B15594   5.600   1.381   6.702  0.0446  0.3066  0.0900
 1064YOPC   NC315595   7.501  18.480   5.124  0.1395  0.1528 -0.1556
 1064YOPC   PO415596   7.194  18.155   5.311  0.0622 -0.0220 -0.3594
 1064YOPC   GL115597   6.974  18.156   5.742  0.0418  0.1020  0.1318
 1064YOPC   GL215598   6.832  17.943   5.727  0.2148 -0.1586 -0.0721
 1064YOPC   C1A15599   7.110  18.347   6.199  0.0226  0.0306  0.2922
 1064YOPC   D2A15600   7.187  18.747   6.465 -0.0511  0.0641  0.2311
 1064YOPC   C3A15601   7.026  18.765   6.877  0.0713  0.1285  0.1079
 1064YOPC   C4A15602   7.166  18.866   7.299 -0.0011 -0.2298 -0.1496
 1064YOPC   C1B15603   6.490  17.777   6.114  0.2071 -0.1148 -0.1374
 1064YOPC   C2B15604   6.433  17.366   6.428 -0.0276 -0.1070 -0.2190
 1064YOPC   D3B15605   6.032  17.225   6.552  0.1936  0.1718 -0.2601
 1064YOPC   C4B15606   5.854  16.883   6.685  0.0114 -0.1563 -0.1869
 1065YOPC   NC315607  15.064   6.710   5.861  0.1534  0.1442  0.0465
 1065YOPC   PO415608  14.554   6.719   5.835  0.3202  0.1832 -0.0010
 1065YOPC   GL115609  14.729   6.947   6.207  0.1797  0.1802  0.1277
 1065YOPC   GL215610  14.851   7.253   6.254  0.0742  0.1836  0.1824
 1065YOPC   C1A15611  14.507   7.014   6.576  0.1388  0.3980 -0.5424
 1065YOPC   D2A15612  14.148   7.081   6.861 -0.0376  0.2546  0.0244
 1065YOPC   C3A15613  13.976   6.870   7.318  0.0189 -0.1881  0.2196
 1065YOPC   C4A15614  13.604   7.020   7.340  0.1138  0.0759 -0.1928
 1065YOPC   C1B15615  14.968   7.254   6.699  0.0063 -0.1081  0.2371
 1065YOPC   C2B15616  15.137   7.205   7.063 -0.1163 -0.3623 -0.1283
 1065YOPC   D3B15617  15.086   6.933   7.349  0.3414  0.0801 -0.0018
 1065YOPC   C4B15618  15.197   6.792   7.789  0.2219 -0.0729  0.0380
 1066YOPC   NC315619   4.726  11.198   5.588  0.2484 -0.0750  0.0683
 1066YOPC   PO415620   4.248  11.060   5.624  0.4799  0.1887  0.1423
 1066YOPC   GL115621   3.971  11.257   5.955  0.0076  0.1770 -0.0486
 1066YOPC   GL215622   4.140  11.573   6.023 -0.1532  0.0767  0.0725
 1066YOPC   C1A15623   3.779  11.220   6.316 -0.2126 -0.2058 -0.2136
 1066YOPC   D2A15624   3.842  11.243   6.691  0.2563  0.2153  0.0142
 1066YOPC   C3A15625   3.797  10.873   6.924  0.2659 -0.1385  0.3817
 1066YOPC   C4A15626   3.687  10.602   7.148 -0.0573 -0.1316 -0.0476
 1066YOPC   C1B15627   4.283  11.447   6.430 -0.0077  0.4323  0.1085
 1066YOPC   C2B15628   4.309  11.461   6.851  0.3553  0.3311  0.2394
 1066YOPC   D3B15629   3.892  11.291   7.206 -0.1356 -0.2767 -0.2074
 1066YOPC   C4B15630   3.810  11.512   7.475  0.5153  0.0512  0.4723
 1067YOPC   NC315631  10.785   6.338   5.497  0.3262  0.3568  0.1978
 1067YOPC   PO415632  10.490   6.128   5.523  0.1444 -0.0571  0.0618
 1067YOPC   GL115633  10.528   6.122   6.021  0.2082 -0.2394 -0.2263
 1067YOPC   GL215634  10.773   5.872   5.965 -0.3125 -0.1590  0.3213
 1067YOPC   C1A15635  10.364   6.259   6.339 -0.1643 -0.0535  0.1430
 1067YOPC   D2A15636  10.025   6.227   6.594  0.0922  0.0390  0.3263
 1067YOPC   C3A15637  10.144   6.508   6.884 -0.0146  0.0749 -0.1327
 1067YOPC   C4A15638  10.242   6.738   7.256 -0.1373  0.0880  0.2034
 1067YOPC   C1B15639  10.765   5.697   6.264  0.2850  0.1157  0.1239
 1067YOPC   C2B15640  10.730   5.540   6.597  0.0444 -0.2564 -0.0382
 1067YOPC   D3B15641  10.911   5.144   6.573  0.1085  0.1245  0.2070
 1067YOPC   C4B15642  11.091   4.666   6.576  0.0998  0.0837 -0.1398
 1068YOPC   NC315643   8.001   6.561   5.061  0.2988  0.0689 -0.0832
 1068YOPC   PO415644   8.061   6.891   5.393  0.0619 -0.2388  0.1080
 1068YOPC   GL115645   7.999   6.869   5.711 -0.1633 -0.1299  0.1193
 1068YOPC   GL215646   8.242   6.939   5.824  0.3579  0.0578 -0.1831
 1068YOPC   C1A15647   7.805   7.006   6.121 -0.0986  0.1154  0.0800
 1068YOPC   D2A15648   7.669   7.161   6.501  0.2482 -0.0668 -0.1839
 1068YOPC   C3A15649   7.426   7.531   6.501  0.1070  0.1377  0.0691
 1068YOPC   C4A15650   7.405   7.712   6.037 -0.0890 -0.3387  0.0417
 1068YOPC   C1B15651   8.463   7.157   6.251  0.1657  0.1521  0.0299
 1068YOPC   C2B15652   8.444   7.619   6.296 -0.1549 -0.0352  0.3957
 1068YOPC   D3B15653   8.232   7.882   6.578  0.0151 -0.1607 -0.3489
 1068YOPC   C4B15654   8.106   8.269   6.673  0.0705 -0.1746  0.0859
 1069YOPC   NC315655   5.944   3.986   6.011 -0.1082 -0.0022 -0.2510
 1069YOPC   PO415656   6.351   4.198   5.791  0.2559  0.1078 -0.2752
 1069YOPC   GL115657   6.267   4.356   6.264 -0.1434  0.5004 -0.1307
 1069YOPC   GL215658   6.144   4.044   6.595 -0.3985 -0.0491  0.1925
 1069YOPC   C1A15659   6.491   4.490   6.702  0.2283  0.1541  0.1855
 1069YOPC   D2A15660   6.846   4.353   7.151  0.0099  0.1043  0.2477
 1069YOPC   C3A15661   7.093   4.615   7.367  0.0511 -0.0974 -0.1770
 1069YOPC   C4A15662   7.163   5.075   7.386 -0.2862 -0.0234  0.1264
 1069YOPC   C1B15663   6.113   4.033   7.010  0.0591  0.1768  0.0079
 1069YOPC   C2B15664   6.177   4.380   7.383  0.0519  0.1137 -0.0590
 1069YOPC   D3B15665   5.822   4.547   7.458 -0.1858  0.0451  0.1342
 1069YOPC   C4B15666   5.671   4.705   7.814 -0.1466 -0.2579  0.0140
 1070YOPC   NC315667  10.785  14.953   5.148  0.0351 -0.0539  0.0098
 1070YOPC   PO415668  10.759  14.456   5.124 -0.0330 -0.0919  0.1430
 1070YOPC   GL115669  10.690  14.510   5.496  0.0251  0.1378 -0.1709
 1070YOPC   GL215670  10.334  14.576   5.497 -0.2391 -0.3473 -0.4275
 1070YOPC   C1A15671  10.819  14.634   5.881  0.2721  0.1725 -0.1156
 1070YOPC   D2A15672  10.575  14.746   6.233  0.0323 -0.0720  0.0330
 1070YOPC   C3A15673  10.477  14.708   6.641  0.1000  0.0230 -0.2071
 1070YOPC   C4A15674  10.558  14.395   6.977  0.0996  0.0802 -0.0225
 1070YOPC   C1B15675  10.360  14.855   5.774  0.0291 -0.0750 -0.2575
 1070YOPC   C2B15676  10.076  14.993   5.968  0.1986  0.1648  0.3836
 1070YOPC   D3B15677  10.104  14.852   6.342  0.1366  0.1798 -0.1626
 1070YOPC   C4B15678  10.086  14.972   6.749  0.3082 -0.0638 -0.5371
 1071YOPC   NC315679  10.306   7.195   5.258  0.1450  0.1679  0.2968
 1071YOPC   PO415680  10.604   7.517   5.494  0.0934 -0.0778  0.2168
 1071YOPC   GL115681  10.628   7.519   5.956 -0.2924  0.1505  0.2521
 1071YOPC   GL215682  10.890   7.706   6.145  0.1832 -0.1156 -0.0904
 1071YOPC   C1A15683  10.433   7.607   6.353  0.0362  0.4654  0.5037
 1071YOPC   D2A15684  10.301   7.862   6.692  0.0942 -0.0533  0.1491
 1071YOPC   C3A15685  10.268   7.817   7.042  0.0123  0.0175  0.0822
 1071YOPC   C4A15686  10.663   7.772   7.190  0.0951  0.0437  0.3214
 1071YOPC   C1B15687  11.171   7.412   6.408  0.0961 -0.2486  0.1271
 1071YOPC   C2B15688  11.486   7.279   6.638 -0.1401 -0.0641  0.1774
 1071YOPC   D3B15689  11.407   7.059   7.015  0.2431 -0.1113  0.1271
 1071YOPC   C4B15690  11.142   6.745   7.158  0.0618  0.2471 -0.2782
 1072YOPC   NC315691  16.353   5.072   5.998 -0.1876  0.0950 -0.1798
 1072YOPC   PO415692  16.780   4.958   6.019  0.2048 -0.1172  0.0089
 1072YOPC   GL115693  16.610   4.830   6.380 -0.0964  0.0625 -0.0336
 1072YOPC   GL215694  16.626   4.564   6.713 -0.1471 -0.1527  0.2917
 1072YOPC   C1A15695  16.914   4.953   6.692  0.2629  0.1376  0.2100
 1072YOPC   D2A15696  16.934   5.065   7.106 -0.0456  0.2079 -0.1232
 1072YOPC   C3A15697  16.646   5.027   7.372  0.1935 -0.4020  0.1945
 1072YOPC   C4A15698  16.200   5.173   7.451 -0.3816 -0.5474  0.0211
 1072YOPC   C1B15699  16.838   4.542   7.082 -0.2690 -0.1415 -0.0505
 1072YOPC   C2B15700  16.901   4.633   7.526  0.1658  0.0211  0.1838
 1072YOPC   D3B15701  16.830   4.985   7.790  0.2054 -0.0045 -0.0469
 1072YOPC   C4B15702  16.489   5.175   7.841 -0.1758 -0.0214  0.3801
 1073YOPC   NC315703   4.251   2.919   4.947 -0.1765  0.0517  0.3140
 1073YOPC   PO415704   4.530   2.747   5.349  0.3322  0.2331 -0.2580
 1073YOPC   GL115705   4.706   2.633   5.763  0.2922 -0.1468  0.3125
 1073YOPC   GL215706   4.649   2.310   5.987 -0.0975 -0.4268  0.2878
 1073YOPC   C1A15707   4.603   2.904   6.154 -0.2356  0.1272  0.1305
 1073YOPC   D2A15708   4.489   3.147   6.535 -0.1408  0.0593 -0.1046
 1073YOPC   C3A15709   4.013   3.192   6.671 -0.0603 -0.0493 -0.0168
 1073YOPC   C4A15710   3.692   3.014   6.346 -0.0190 -0.0628  0.2518
 1073YOPC   C1B15711   4.596   2.451   6.406 -0.4693 -0.0455 -0.0173
 1073YOPC   C2B15712   4.590   2.483   6.796  0.1829 -0.0801  0.3948
 1073YOPC   D3B15713   4.744   2.599   7.105  0.0684 -0.1524 -0.2279
 1073YOPC   C4B15714   5.065   2.581   7.383  0.0242 -0.3487  0.1158
 1074YOPC   NC315715   5.276   3.542   5.782 -0.0123  0.0007 -0.2117
 1074YOPC   PO415716   5.703   3.506   5.997 -0.2143 -0.2835 -0.3434
 1074YOPC   GL115717   5.864   3.276   6.340 -0.1058  0.0882  0.0464
 1074YOPC   GL215718   6.019   2.962   6.243  0.0490  0.0648  0.2062
 1074YOPC   C1A15719   6.073   3.310   6.753 -0.1414 -0.1507 -0.1239
 1074YOPC   D2A15720   6.375   3.592   6.834  0.1299 -0.0517  0.0051
 1074YOPC   C3A15721   6.714   3.290   7.103 -0.0574 -0.0463 -0.0094
 1074YOPC   C4A15722   6.990   3.032   7.352 -0.0572 -0.0424  0.1600
 1074YOPC   C1B15723   6.373   2.696   6.329  0.0664 -0.1269  0.0522
 1074YOPC   C2B15724   6.744   2.771   6.171  0.2705  0.1967 -0.0668
 1074YOPC   D3B15725   7.078   2.668   6.517  0.0147 -0.3072  0.0817
 1074YOPC   C4B15726   7.397   2.464   6.452 -0.0387  0.1070  0.1965
 1075YOPC   NC315727   4.902   6.049   5.664  0.1320  0.0223 -0.0766
 1075YOPC   PO415728   5.113   5.628   5.678  0.0822 -0.3354  0.2966
 1075YOPC   GL115729   5.226   5.882   5.971  0.1010  0.1741  0.1273
 1075YOPC   GL215730   5.625   5.972   6.094  0.2994  0.0606  0.0590
 1075YOPC   C1A15731   5.179   5.758   6.388 -0.0449 -0.0349  0.2320
 1075YOPC   D2A15732   5.415   5.901   6.620  0.1192  0.1146  0.0967
 1075YOPC   C3A15733   5.533   5.880   7.074 -0.2753 -0.0360  0.1129
 1075YOPC   C4A15734   5.670   6.036   7.439  0.3692  0.1639  0.1036
 1075YOPC   C1B15735   5.816   6.177   6.480  0.0359  0.0505 -0.2596
 1075YOPC   C2B15736   6.007   6.029   6.875 -0.3470  0.1072  0.3626
 1075YOPC   D3B15737   6.091   6.330   7.184  0.0184 -0.0251  0.0936
 1075YOPC   C4B15738   6.372   6.765   7.233 -0.1302  0.3196  0.1958
 1076YOPC   NC315739  17.821   3.136   5.928  0.0076  0.0679 -0.1231
 1076YOPC   PO415740  18.066   3.451   5.913 -0.3530 -0.2489  0.2356
 1076YOPC   GL115741  17.926   3.446   6.332 -0.1949  0.1526 -0.0230
 1076YOPC   GL215742  17.696   3.599   6.327 -0.1460  0.1479  0.0592
 1076YOPC   C1A15743  18.048   3.491   6.773  0.0086 -0.1729 -0.1145
 1076YOPC   D2A15744  18.043   3.174   7.066  0.0626 -0.1056 -0.0318
 1076YOPC   C3A15745  17.914   3.080   7.433 -0.2201 -0.3812 -0.0296
 1076YOPC   C4A15746  17.675   3.207   7.749  0.0204  0.0257  0.2138
 1076YOPC   C1B15747  17.505   3.189   6.508 -0.2224  0.2536  0.0444
 1076YOPC   C2B15748  17.567   2.979   6.872  0.1094  0.3102 -0.0527
 1076YOPC   D3B15749  17.435   3.089   7.214 -0.0112 -0.2834 -0.1138
 1076YOPC   C4B15750  17.196   3.290   7.535 -0.1372 -0.5587  0.1695
 1077YOPC   NC315751   9.354  11.660   4.577 -0.0373  0.1511  0.1387
 1077YOPC   PO415752   9.520  11.365   4.782 -0.1192 -0.0647 -0.0177
 1077YOPC   GL115753   9.497  11.372   5.325 -0.2841  0.1701 -0.0689
 1077YOPC   GL215754   9.768  11.366   5.544  0.1915 -0.1835  0.1055
 1077YOPC   C1A15755   9.410  11.119   5.764  0.0845  0.2968 -0.1420
 1077YOPC   D2A15756   9.402  11.026   6.215 -0.0064 -0.3561  0.1435
 1077YOPC   C3A15757   9.258  11.420   6.482  0.0446 -0.1318 -0.2791
 1077YOPC   C4A15758   9.384  11.581   6.885 -0.0823 -0.1274  0.1652
 1077YOPC   C1B15759   9.825  11.388   6.003 -0.2512 -0.1674 -0.2516
 1077YOPC   C2B15760   9.892  11.119   6.346 -0.2668  0.2197 -0.2219
 1077YOPC   D3B15761   9.875  10.770   6.289  0.0481 -0.0317 -0.0240
 1077YOPC   C4B15762  10.049  10.590   6.009  0.0188  0.0407 -0.2095
 1078YOPC   NC315763   2.931   4.132   5.210  0.0154 -0.0175 -0.1342
 1078YOPC   PO415764   3.192   4.174   5.652 -0.3774 -0.1174 -0.1180
 1078YOPC   GL115765   2.889   4.338   6.077  0.0637  0.0480  0.1101
 1078YOPC   GL215766   3.234   4.538   6.034 -0.0627  0.1651  0.2169
 1078YOPC   C1A15767   2.737   4.763   6.298 -0.2276  0.0683 -0.1004
 1078YOPC   D2A15768   2.792   4.726   6.757  0.1009  0.2560  0.0397
 1078YOPC   C3A15769   2.841   4.372   7.122  0.1945  0.1291  0.0783
 1078YOPC   C4A15770   2.885   3.847   6.977 -0.1004 -0.1965  0.1988
 1078YOPC   C1B15771   3.185   4.608   6.466  0.2896 -0.0075  0.1456
 1078YOPC   C2B15772   3.312   4.543   6.886  0.0171 -0.0099 -0.0937
 1078YOPC   D3B15773   3.267   4.601   7.323  0.0488 -0.1263  0.2169
 1078YOPC   C4B15774   3.344   4.441   7.679 -0.2433  0.1010 -0.2656
 1079YOPC   NC315775  16.446   7.455   6.032  0.4138  0.0066 -0.2967
 1079YOPC   PO415776  16.273   7.058   6.141  0.2388 -0.1527  0.0884
 1079YOPC   GL115777  16.127   7.245   6.554 -0.1387 -0.3013 -0.0222
 1079YOPC   GL215778  15.934   7.387   6.611 -0.1048  0.0734  0.0316
 1079YOPC   C1A15779  16.349   7.095   6.930 -0.3434  0.3950  0.0946
 1079YOPC   D2A15780  16.562   7.140   7.252  0.0565  0.1120 -0.2481
 1079YOPC   C3A15781  16.560   7.606   7.492 -0.0659  0.2408  0.2580
 1079YOPC   C4A15782  16.651   7.862   7.821 -0.0521  0.0584 -0.2181
 1079YOPC   C1B15783  16.025   7.426   7.014 -0.1783  0.1276 -0.4210
 1079YOPC   C2B15784  16.091   7.420   7.315  0.0188 -0.1598  0.1157
 1079YOPC   D3B15785  16.100   7.660   7.722  0.0663  0.2014  0.0151
 1079YOPC   C4B15786  15.758   7.923   7.994  0.0242  0.0352  0.1288
 1080YOPC   NC315787  13.411  16.693   5.658 -0.4965 -0.0607  0.1252
 1080YOPC   PO415788  13.638  16.504   6.038 -0.0598 -0.0653  0.0909
 1080YOPC   GL115789  13.570  16.708   6.505 -0.0714  0.1819  0.1021
 1080YOPC   GL215790  13.352  16.863   6.647 -0.1481 -0.2902 -0.1748
 1080YOPC   C1A15791  13.738  16.741   6.928 -0.0022  0.1968  0.0495
 1080YOPC   D2A15792  13.591  16.505   7.321  0.0404 -0.0446 -0.2773
 1080YOPC   C3A15793  13.726  16.480   7.743 -0.3102 -0.2510  0.1074
 1080YOPC   C4A15794  13.759  16.172   7.971 -0.1614  0.0324  0.5155
 1080YOPC   C1B15795  13.172  16.479   6.730 -0.3762 -0.1229 -0.1083
 1080YOPC   C2B15796  13.024  16.027   6.770 -0.1996 -0.0617  0.1817
 1080YOPC   D3B15797  12.790  15.951   7.114  0.0548  0.5400  0.1548
 1080YOPC   C4B15798  12.545  15.851   7.411 -0.2037 -0.0707  0.1996
 1081YOPC   NC315799   3.918   3.160   5.612  0.3191  0.1874  0.1548
 1081YOPC   PO415800   4.039   2.758   5.377 -0.0376  0.0542 -0.0091
 1081YOPC   GL115801   3.908   2.664   5.813 -0.1230  0.2657  0.0356
 1081YOPC   GL215802   3.640   2.395   5.874  0.0183 -0.3107 -0.1462
 1081YOPC   C1A15803   4.200   2.609   6.133  0.3479  0.0069 -0.0076
 1081YOPC   D2A15804   4.234   2.756   6.530  0.1032 -0.0959  0.1646
 1081YOPC   C3A15805   4.145   2.656   7.036  0.0322  0.2157  0.1837
 1081YOPC   C4A15806   4.044   2.482   7.449 -0.0296  0.0995 -0.3973
 1081YOPC   C1B15807   3.713   2.532   6.284  0.2565  0.1989  0.2978
 1081YOPC   C2B15808   3.760   2.725   6.780 -0.0905  0.1611 -0.3524
 1081YOPC   D3B15809   3.481   3.156   6.873 -0.4135 -0.1206 -0.0381
 1081YOPC   C4B15810   3.199   3.445   6.900  0.2534  0.1393  0.2768
 1082YOPC   NC315811   0.737   0.911   5.315  0.1067 -0.1513 -0.0421
 1082YOPC   PO415812   1.037   1.274   5.406  0.3948 -0.2996 -0.0777
 1082YOPC   GL115813   0.704   1.221   5.744 -0.5244 -0.7313 -0.0893
 1082YOPC   GL215814   0.764   1.454   5.863  0.2008 -0.3455 -0.2847
 1082YOPC   C1A15815   0.451   1.025   5.974 -0.1269 -0.1052  0.1342
 1082YOPC   D2A15816  -0.022   0.913   6.038  0.0291 -0.2833 -0.3119
 1082YOPC   C3A15817  -0.151   0.553   6.270  0.0453  0.0580 -0.3454
 1082YOPC   C4A15818  -0.365   0.295   5.978 -0.1810 -0.0045 -0.1476
 1082YOPC   C1B15819   0.913   1.197   6.229  0.1086  0.0234 -0.0788
 1082YOPC   C2B15820   1.054   1.182   6.644  0.0514  0.3570  0.3716
 1082YOPC   D3B15821   1.319   0.915   6.752  0.0287  0.3477 -0.1895
 1082YOPC   C4B15822   1.411   0.908   7.162  0.2405  0.2286 -0.0921
 1083YOPC   NC315823   2.362   5.509   6.044 -0.0423  0.0105 -0.1569
 1083YOPC   PO415824   2.776   5.316   5.874 -0.0662  0.2790 -0.1072
 1083YOPC   GL115825   2.832   5.322   6.277  0.3124  0.0075 -0.2737
 1083YOPC   GL215826   2.785   5.630   6.283  0.0320 -0.1284  0.1361
 1083YOPC   C1A15827   2.860   5.363   6.699 -0.2332 -0.0228  0.0551
 1083YOPC   D2A15828   3.042   5.595   7.044 -0.1195  0.2641  0.2438
 1083YOPC   C3A15829   2.910   5.893   7.221 -0.0267  0.0782 -0.0149
 1083YOPC   C4A15830   2.691   6.184   7.424 -0.0010 -0.1950  0.3299
 1083YOPC   C1B15831   3.061   5.828   6.549  0.4854 -0.0158  0.1208
 1083YOPC   C2B15832   3.272   5.989   6.867 -0.2451 -0.1941 -0.0389
 1083YOPC   D3B15833   3.599   5.920   6.970 -0.3366  0.2672  0.0735
 1083YOPC   C4B15834   3.830   5.576   7.123 -0.1658 -0.1732 -0.0686
 1084YOPC   NC315835  17.883  10.065   5.572 -0.1337  0.1139  0.1883
 1084YOPC   PO415836  17.683  10.251   5.854  0.0229 -0.3465 -0.0392
 1084YOPC   GL115837  17.743  10.133   6.248  0.4057  0.0218  0.1915
 1084YOPC   GL215838  17.447   9.912   6.339 -0.1748 -0.0404  0.1258
 1084YOPC   C1A15839  17.829  10.164   6.684 -0.3388  0.1364  0.1542
 1084YOPC   D2A15840  17.853  10.080   7.111 -0.2102 -0.1457 -0.4310
 1084YOPC   C3A15841  17.498   9.979   7.373 -0.0799 -0.0746 -0.2324
 1084YOPC   C4A15842  17.065   9.717   7.400 -0.0262 -0.1150 -0.2406
 1084YOPC   C1B15843  17.229   9.599   6.484 -0.0570 -0.0281 -0.1186
 1084YOPC   C2B15844  17.198   9.373   6.891 -0.0681 -0.0482 -0.0664
 1084YOPC   D3B15845  17.447   9.431   7.279 -0.1326 -0.0235  0.4283
 1084YOPC   C4B15846  17.865   9.558   7.396 -0.0675  0.1298  0.3720
 1085YOPC   NC315847  16.914   2.690   5.907  0.1895 -0.2150 -0.1633
 1085YOPC   PO415848  17.278   2.389   5.977  0.1110  0.1648 -0.1296
 1085YOPC   GL115849  17.611   2.476   6.037  0.1706  0.2071 -0.0043
 1085YOPC   GL215850  17.626   2.747   6.220 -0.1255  0.1273 -0.0943
 1085YOPC   C1A15851  18.045   2.377   6.367  0.3188 -0.0686  0.1463
 1085YOPC   D2A15852  18.121   2.120   6.706  0.0724  0.0044 -0.0128
 1085YOPC   C3A15853  17.860   1.904   7.067  0.1339 -0.1359  0.1634
 1085YOPC   C4A15854  17.957   2.172   7.503 -0.1035 -0.2403 -0.2197
 1085YOPC   C1B15855  17.888   2.882   6.505  0.2208 -0.0292  0.3124
 1085YOPC   C2B15856  18.250   2.727   6.771  0.0410  0.1550  0.2328
 1085YOPC   D3B15857  18.486   2.359   6.893 -0.1893 -0.1001 -0.1596
 1085YOPC   C4B15858  18.787   2.235   7.120 -0.1693  0.0193  0.3964
 1086YOPC   NC315859  14.780   5.283   5.354 -0.2568  0.1230  0.5206
 1086YOPC   PO415860  14.625   5.318   5.752  0.0057 -0.0733  0.0442
 1086YOPC   GL115861  14.416   5.076   6.057 -0.5122  0.1011 -0.0519
 1086YOPC   GL215862  14.094   5.048   6.011  0.0759  0.1746 -0.0609
 1086YOPC   C1A15863  14.176   5.338   6.401  0.5061  0.0369  0.1933
 1086YOPC   D2A15864  14.285   5.571   6.678  0.3264 -0.2596  0.0451
 1086YOPC   C3A15865  14.088   5.525   7.093 -0.3855  0.1268 -0.5000
 1086YOPC   C4A15866  13.770   5.626   7.297 -0.0858  0.4118 -0.0107
 1086YOPC   C1B15867  14.170   4.804   6.470  0.1386  0.1332 -0.0297
 1086YOPC   C2B15868  14.149   4.665   6.860 -0.0561 -0.0460  0.2309
 1086YOPC   D3B15869  14.349   4.643   7.309 -0.2591 -0.1275  0.2579
 1086YOPC   C4B15870  14.288   4.778   7.725 -0.2897  0.0227 -0.2069
 1087YOPC   NC315871   5.452  13.169   4.918 -0.0196  0.0173  0.1299
 1087YOPC   PO415872   5.233  13.270   5.251  0.0238 -0.2559  0.1847
 1087YOPC   GL115873   5.521  13.391   5.546 -0.1668 -0.0664 -0.0760
 1087YOPC   GL215874   5.716  13.131   5.569 -0.3107  0.1768 -0.1415
 1087YOPC   C1A15875   5.495  13.292   6.018 -0.0829 -0.0741  0.0694
 1087YOPC   D2A15876   5.795  13.372   6.321 -0.0083  0.0370 -0.1247
 1087YOPC   C3A15877   5.839  13.060   6.733 -0.0930  0.0441 -0.1292
 1087YOPC   C4A15878   6.032  12.936   7.163 -0.1573  0.2336  0.2265
 1087YOPC   C1B15879   6.057  13.357   5.853  0.4713  0.0489 -0.2060
 1087YOPC   C2B15880   6.514  13.416   5.974  0.3441 -0.0837  0.4674
 1087YOPC   D3B15881   6.585  13.414   6.411  0.0759  0.0963  0.1742
 1087YOPC   C4B15882   6.317  13.521   6.869  0.3026 -0.0924  0.0742
 1088YOPC   NC315883  11.767   9.435   5.280 -0.1404  0.1017 -0.1075
 1088YOPC   PO415884  11.346   9.173   5.435  0.1384  0.0624 -0.0617
 1088YOPC   GL115885  11.233   9.160   5.890 -0.0313  0.1019  0.1369
 1088YOPC   GL215886  11.135   9.399   6.078  0.1145  0.1240 -0.3166
 1088YOPC   C1A15887  11.207   8.914   6.369  0.2945 -0.1183  0.2828
 1088YOPC   D2A15888  11.201   8.955   6.807 -0.1077  0.1030 -0.1038
 1088YOPC   C3A15889  10.877   8.736   7.158 -0.2186 -0.0196  0.1216
 1088YOPC   C4A15890  10.914   8.673   7.521  0.0996 -0.3341 -0.0385
 1088YOPC   C1B15891  11.511   9.290   6.339 -0.2903  0.1495  0.1193
 1088YOPC   C2B15892  11.679   9.067   6.659  0.0246  0.0051 -0.1196
 1088YOPC   D3B15893  11.794   9.153   7.054  0.0970 -0.3639 -0.2352
 1088YOPC   C4B15894  12.038   9.353   7.428  0.0673 -0.1969 -0.2881
 1089YOPC   NC315895  12.872  11.468   5.054 -0.0311  0.0908  0.0272
 1089YOPC   PO415896  13.157  11.637   5.367  0.1076  0.0486 -0.2812
 1089YOPC   GL115897  12.932  11.684   5.856  0.1079 -0.0413  0.1698
 1089YOPC   GL215898  13.157  11.652   6.064  0.1694 -0.1156  0.0383
 1089YOPC   C1A15899  12.600  11.605   6.086  0.2293 -0.0975 -0.0857
 1089YOPC   D2A15900  12.470  11.640   6.501  0.3435  0.1026 -0.0821
 1089YOPC   C3A15901  12.478  11.878   6.853  0.2495 -0.2730 -0.2324
 1089YOPC   C4A15902  12.497  11.792   7.338  0.1578 -0.1480  0.3540
 1089YOPC   C1B15903  12.956  11.632   6.386  0.2220  0.3423 -0.1383
 1089YOPC   C2B15904  12.948  11.692   6.818  0.0226 -0.2367 -0.4951
 1089YOPC   D3B15905  12.938  12.183   7.032  0.1396  0.2916 -0.0045
 1089YOPC   C4B15906  13.081  12.555   7.153 -0.0412 -0.0976 -0.1017
 1090YOPC   NC315907   2.888  13.800   4.576 -0.1629 -0.0621  0.0512
 1090YOPC   PO415908   2.899  13.949   5.044  0.2789  0.0671  0.1931
 1090YOPC   GL115909   2.675  14.120   5.468  0.2769  0.0800  0.1404
 1090YOPC   GL215910   2.368  14.303   5.482 -0.1545  0.2704 -0.0351
 1090YOPC   C1A15911   2.670  14.298   5.907  0.0213  0.0487 -0.0768
 1090YOPC   D2A15912   2.419  14.702   6.092  0.1599  0.4321 -0.0151
 1090YOPC   C3A15913   2.630  15.060   6.383 -0.2736 -0.0877  0.0628
 1090YOPC   C4A15914   2.907  15.185   6.627 -0.0536 -0.1377 -0.0812
 1090YOPC   C1B15915   2.186  14.238   5.922  0.0373  0.3978 -0.0211
 1090YOPC   C2B15916   2.216  14.329   6.393 -0.0710 -0.2021  0.2663
 1090YOPC   D3B15917   2.124  14.096   6.659 -0.2679  0.1722  0.3012
 1090YOPC   C4B15918   2.047  13.993   7.060  0.0695  0.2547  0.0699
 1091YOPC   NC315919  14.049  11.533   5.424  0.0194 -0.2671 -0.0059
 1091YOPC   PO415920  14.314  11.353   5.755 -0.0560 -0.1211 -0.3544
 1091YOPC   GL115921  14.198  11.288   6.159 -0.0438 -0.4242 -0.3079
 1091YOPC   GL215922  14.350  11.463   6.333  0.5801  0.2139  0.0432
 1091YOPC   C1A15923  13.930  11.013   6.327  0.0983 -0.1564  0.1319
 1091YOPC   D2A15924  13.717  10.605   6.281 -0.2584 -0.0406 -0.0799
 1091YOPC   C3A15925  13.568  10.412   6.639  0.0692  0.2281  0.1473
 1091YOPC   C4A15926  13.182  10.517   6.825 -0.1358  0.0277  0.2745
 1091YOPC   C1B15927  14.424  11.503   6.760 -0.0342  0.1669  0.1621
 1091YOPC   C2B15928  14.269  11.938   7.095  0.1557 -0.0550  0.1805
 1091YOPC   D3B15929  14.381  12.208   7.486 -0.1999 -0.0752  0.0613
 1091YOPC   C4B15930  14.499  12.550   7.793 -0.1270  0.3314  0.1433
 1092YOPC   NC315931  17.023   2.003   6.269  0.1596 -0.2889 -0.2290
 1092YOPC   PO415932  16.877   2.402   6.348  0.1284 -0.1971 -0.1401
 1092YOPC   GL115933  16.936   2.517   6.787 -0.2749  0.0635 -0.4272
 1092YOPC   GL215934  17.101   2.798   6.906  0.2592  0.0097  0.0751
 1092YOPC   C1A15935  16.682   2.223   7.084  0.0729 -0.2725  0.2105
 1092YOPC   D2A15936  16.745   2.200   7.443 -0.1953 -0.2921 -0.4883
 1092YOPC   C3A15937  16.520   2.348   7.776  0.2258 -0.0534 -0.2906
 1092YOPC   C4A15938  16.380   2.767   7.995 -0.1326  0.2199 -0.0100
 1092YOPC   C1B15939  17.271   2.608   7.264 -0.1031  0.0799  0.0530
 1092YOPC   C2B15940  17.655   2.578   7.574  0.0744 -0.0099 -0.1502
 1092YOPC   D3B15941  17.560   2.681   7.995 -0.1538  0.1189 -0.0590
 1092YOPC   C4B15942  17.437   2.660   8.379  0.0249 -0.0154 -0.1481
 1093YOPC   NC315943  12.560   9.889   5.620  0.1070 -0.0593 -0.1905
 1093YOPC   PO415944  12.557   9.370   5.715  0.0722  0.1149 -0.0274
 1093YOPC   GL115945  12.381   9.329   6.029  0.0295  0.0189 -0.1233
 1093YOPC   GL215946  12.051   9.299   5.954  0.0984 -0.0844  0.1718
 1093YOPC   C1A15947  12.478   9.318   6.400  0.2137 -0.0762  0.3508
 1093YOPC   D2A15948  12.661   9.072   6.688 -0.0665  0.0324  0.0976
 1093YOPC   C3A15949  12.477   8.647   6.787 -0.1919 -0.0166 -0.1062
 1093YOPC   C4A15950  12.338   8.327   6.554  0.2528  0.0704 -0.0957
 1093YOPC   C1B15951  11.963   9.495   6.380  0.1957 -0.1308 -0.0177
 1093YOPC   C2B15952  11.642   9.629   6.636 -0.1244 -0.2277 -0.1407
 1093YOPC   D3B15953  11.320   9.826   6.379  0.0348  0.2366 -0.1309
 1093YOPC   C4B15954  11.033  10.096   6.199 -0.5885 -0.2051  0.3728
 1094YOPC   NC315955  11.118  17.574   5.247 -0.1891  0.0277  0.1416
 1094YOPC   PO415956  10.839  17.753   5.030  0.0974 -0.2597 -0.1409
 1094YOPC   GL115957  10.594  17.654   5.408  0.0371  0.1246 -0.2439
 1094YOPC   GL215958  10.441  17.914   5.426  0.0765  0.1359  0.2239
 1094YOPC   C1A15959  10.733  17.469   5.919  0.1723 -0.1804 -0.0520
 1094YOPC   D2A15960  10.659  17.636   6.331 -0.0923  0.1272  0.2782
 1094YOPC   C3A15961  10.853  17.604   6.752 -0.4408  0.2472  0.2326
 1094YOPC   C4A15962  11.254  17.694   6.818  0.0954 -0.2437  0.0250
 1094YOPC   C1B15963  10.645  18.010   5.803  0.0848  0.1078  0.0398
 1094YOPC   C2B15964  11.061  17.834   5.943 -0.0275  0.0177  0.1662
 1094YOPC   D3B15965  11.474  17.651   5.945 -0.1269 -0.3133  0.1203
 1094YOPC   C4B15966  11.891  17.863   6.237  0.0924  0.2477 -0.0181
 1095YOPC   NC315967   3.353  17.741   5.191 -0.1738 -0.4365 -0.0235
 1095YOPC   PO415968   3.583  17.331   5.460  0.2067 -0.3014  0.1388
 1095YOPC   GL115969   3.844  17.507   5.806 -0.0241 -0.1744 -0.0756
 1095YOPC   GL215970   3.773  17.781   5.919  0.1995 -0.1729  0.2671
 1095YOPC   C1A15971   4.284  17.508   6.180  0.0146 -0.0443 -0.0515
 1095YOPC   D2A15972   4.292  17.406   6.636 -0.1831  0.0381  0.2395
 1095YOPC   C3A15973   4.265  17.753   7.052 -0.2329  0.0859  0.2882
 1095YOPC   C4A15974   4.315  17.690   7.448  0.0535 -0.2856  0.3008
 1095YOPC   C1B15975   3.797  17.587   6.438  0.0114 -0.1550  0.1337
 1095YOPC   C2B15976   3.701  17.366   6.787 -0.0200 -0.1575 -0.0796
 1095YOPC   D3B15977   3.490  16.970   6.726 -0.2663 -0.0557  0.0814
 1095YOPC   C4B15978   3.428  16.614   6.483  0.2362  0.1587 -0.2378
 1096YOPC   NC315979   7.891  15.160   4.956 -0.3615  0.0199  0.1860
 1096YOPC   PO415980   8.121  15.037   5.302 -0.0346 -0.1066  0.2971
 1096YOPC   GL115981   8.097  15.092   5.787  0.2173 -0.2426  0.3836
 1096YOPC   GL215982   8.284  14.843   5.767 -0.2881 -0.1363 -0.1654
 1096YOPC   C1A15983   8.120  15.417   6.150 -0.1840  0.1356  0.1210
 1096YOPC   D2A15984   8.336  15.500   6.576  0.0059 -0.1187 -0.0139
 1096YOPC   C3A15985   8.596  15.785   6.803  0.0278  0.0246  0.1401
 1096YOPC   C4A15986   8.884  15.888   7.225  0.3776 -0.1329  0.1009
 1096YOPC   C1B15987   8.229  14.919   6.176 -0.1190 -0.0830 -0.0112
 1096YOPC   C2B15988   8.324  14.795   6.548 -0.0103  0.2423 -0.0322
 1096YOPC   D3B15989   8.143  15.054   6.842  0.0616 -0.0773 -0.0746
 1096YOPC   C4B15990   7.923  14.998   7.274 -0.1096 -0.1017 -0.2245
 1097YOPC   NC315991   1.854   4.847   5.890  0.0750 -0.0316 -0.2369
 1097YOPC   PO415992   1.519   4.498   5.959 -0.1158 -0.3012 -0.0611
 1097YOPC   GL115993   1.120   4.499   6.192 -0.3540 -0.0745  0.0214
 1097YOPC   GL215994   0.803   4.638   6.223  0.1482  0.1889 -0.1314
 1097YOPC   C1A15995   0.927   4.149   6.437 -0.2070 -0.5301  0.2539
 1097YOPC   D2A15996   0.658   3.776   6.347 -0.2701  0.0095  0.1720
 1097YOPC   C3A15997   0.585   3.543   6.706 -0.2798 -0.1217 -0.1340
 1097YOPC   C4A15998   0.722   3.456   7.072 -0.0131  0.2637 -0.0878
 1097YOPC   C1B15999   1.130   4.566   6.638 -0.2746 -0.4188  0.1570
 1097YOPC   C2B16000   1.501   4.588   6.908 -0.1234  0.3012 -0.3417
 1097YOPC   D3B16001   1.900   4.493   6.694  0.0721  0.0262  0.0347
 1097YOPC   C4B16002   2.338   4.462   6.636  0.1675 -0.0106  0.1706
 1098YOPC   NC316003  15.470   0.190   5.815  0.1647 -0.2039  0.0712
 1098YOPC   PO416004  15.975   0.290   5.758 -0.2907  0.0390 -0.2107
 1098YOPC   GL116005  15.845   0.138   6.165 -0.1520 -0.1557  0.0963
 1098YOPC   GL216006  15.794  -0.173   6.197 -0.0044 -0.2453  0.1258
 1098YOPC   C1A16007  15.915   0.312   6.589  0.1476  0.2030 -0.0876
 1098YOPC   D2A16008  15.621   0.523   6.967  0.1526  0.4325  0.0962
 1098YOPC   C3A16009  15.809   0.549   7.349 -0.1684 -0.0027  0.3385
 1098YOPC   C4A16010  15.817   0.421   7.773  0.0151 -0.0507 -0.0366
 1098YOPC   C1B16011  15.289  -0.174   6.339  0.2006 -0.1344  0.2425
 1098YOPC   C2B16012  15.040  -0.156   6.671 -0.0976  0.1020 -0.4169
 1098YOPC   D3B16013  15.161   0.174   7.125 -0.0044 -0.1524 -0.0226
 1098YOPC   C4B16014  15.245   0.570   7.318  0.1745 -0.0752  0.0609
 1099YOPC   NC316015   6.986  13.035   5.276  0.1927 -0.3632 -0.2976
 1099YOPC   PO416016   6.979  12.618   5.247 -0.2886 -0.0480 -0.1144
 1099YOPC   GL116017   7.040  12.763   5.809 -0.0783 -0.0083 -0.1602
 1099YOPC   GL216018   7.125  12.467   6.037  0.0148 -0.1157  0.2519
 1099YOPC   C1A16019   6.855  12.971   6.108 -0.0971 -0.0965  0.0995
 1099YOPC   D2A16020   6.380  12.983   6.189  0.0902 -0.3521  0.2370
 1099YOPC   C3A16021   6.323  12.882   6.695 -0.0896 -0.2067  0.3103
 1099YOPC   C4A16022   6.598  13.088   6.948  0.0168 -0.3069  0.3532
 1099YOPC   C1B16023   6.807  12.609   6.451 -0.3224  0.0067  0.1770
 1099YOPC   C2B16024   6.720  12.570   6.857  0.0328 -0.0936 -0.0739
 1099YOPC   D3B16025   6.557  12.622   7.244 -0.0384  0.0853  0.4004
 1099YOPC   C4B16026   6.249  12.821   7.586 -0.3502  0.0760  0.1560
 1100YOPC   NC316027   7.446  17.302   5.301 -0.2032  0.1631 -0.1527
 1100YOPC   PO416028   7.898  17.442   5.191  0.0599 -0.0531 -0.2449
 1100YOPC   GL116029   7.890  17.455   5.573 -0.0382  0.0705 -0.2650
 1100YOPC   GL216030   7.786  17.799   5.699 -0.1267  0.2238  0.0547
 1100YOPC   C1A16031   7.872  17.225   5.953 -0.1288 -0.3195  0.1336
 1100YOPC   D2A16032   8.143  16.977   6.264 -0.1229  0.2919  0.0116
 1100YOPC   C3A16033   7.985  17.035   6.664  0.0906 -0.6180  0.3259
 1100YOPC   C4A16034   7.899  16.927   6.978  0.3179 -0.1964 -0.2528
 1100YOPC   C1B16035   7.996  17.841   6.130  0.1114  0.0861  0.0378
 1100YOPC   C2B16036   8.041  17.530   6.388 -0.0186 -0.2812  0.3295
 1100YOPC   D3B16037   7.857  17.566   6.806 -0.4457 -0.3240 -0.2525
 1100YOPC   C4B16038   7.781  17.893   7.124  0.0239  0.2815 -0.2591
 1101YOPC   NC316039  13.710   9.485   5.077  0.1768 -0.0798 -0.0089
 1101YOPC   PO416040  13.499   9.709   5.501  0.0618  0.3117  0.2546
 1101YOPC   GL116041  13.459   9.308   5.879  0.1135 -0.1631  0.0964
 1101YOPC   GL216042  13.064   9.213   5.980  0.1110  0.1133  0.1061
 1101YOPC   C1A16043  13.540   9.048   6.260 -0.0943 -0.0548 -0.1839
 1101YOPC   D2A16044  13.390   8.763   6.373 -0.1385 -0.2104  0.1954
 1101YOPC   C3A16045  13.006   8.649   6.181 -0.1458  0.0171 -0.3967
 1101YOPC   C4A16046  12.567   8.695   6.221 -0.0535 -0.1211 -0.2276
 1101YOPC   C1B16047  13.059   9.407   6.332 -0.1331 -0.0597  0.0759
 1101YOPC   C2B16048  13.370   9.175   6.723  0.2443  0.1196 -0.1454
 1101YOPC   D3B16049  13.046   9.098   7.130 -0.0245  0.0066  0.0954
 1101YOPC   C4B16050  12.729   8.783   7.184  0.2014  0.0751  0.0140
 1102YOPC   NC316051   0.510  14.714   5.498  0.0851 -0.2136 -0.2161
 1102YOPC   PO416052   0.371  15.112   5.643  0.1508 -0.1625  0.0875
 1102YOPC   GL116053   0.337  15.332   5.983  0.0971  0.3203 -0.0180
 1102YOPC   GL216054   0.119  15.588   5.846  0.0648 -0.3232  0.0606
 1102YOPC   C1A16055   0.105  15.370   6.315 -0.0749  0.1834 -0.2919
 1102YOPC   D2A16056  -0.154  15.135   6.665 -0.2311 -0.1154  0.2814
 1102YOPC   C3A16057  -0.073  15.310   7.099  0.0521 -0.2230  0.0304
 1102YOPC   C4A16058  -0.033  15.285   7.547 -0.5300  0.0301  0.0577
 1102YOPC   C1B16059  -0.301  15.664   6.120 -0.1077 -0.1770 -0.1860
 1102YOPC   C2B16060  -0.326  15.666   6.560  0.4757 -0.0652 -0.0676
 1102YOPC   D3B16061  -0.570  15.681   6.954  0.0223 -0.1962  0.2292
 1102YOPC   C4B16062  -0.897  16.084   7.122 -0.1199 -0.0207  0.2904
 1103YOPC   NC316063   6.468   7.155   6.015  0.1513  0.2086  0.0524
 1103YOPC   PO416064   6.894   6.897   5.916 -0.1543 -0.3613 -0.2590
 1103YOPC   GL116065   7.134   6.687   6.072 -0.0174 -0.0292 -0.1571
 1103YOPC   GL216066   7.463   6.655   5.856  0.0989  0.3132 -0.2059
 1103YOPC   C1A16067   7.443   6.718   6.323  0.2444  0.1395 -0.3130
 1103YOPC   D2A16068   7.502   6.502   6.664 -0.0730 -0.0152  0.2181
 1103YOPC   C3A16069   7.374   6.418   7.080  0.2989 -0.0995 -0.3222
 1103YOPC   C4A16070   7.194   6.204   7.486  0.2198 -0.0385 -0.1308
 1103YOPC   C1B16071   7.498   6.284   6.141 -0.4372  0.0835  0.0834
 1103YOPC   C2B16072   7.770   6.034   6.280  0.1930 -0.0534  0.1947
 1103YOPC   D3B16073   7.841   6.094   6.711  0.1071  0.1698  0.0716
 1103YOPC   C4B16074   7.895   6.419   6.926  0.1287 -0.0063  0.0399
 1104YOPC   NC316075   5.562   6.948   5.613 -0.3458  0.2279 -0.2265
 1104YOPC   PO416076   5.756   6.624   5.715 -0.1349 -0.1727 -0.0690
 1104YOPC   GL116077   5.804   6.670   6.129 -0.2695  0.1236  0.0040
 1104YOPC   GL216078   6.016   6.883   6.195  0.1265 -0.0277 -0.1431
 1104YOPC   C1A16079   6.043   6.596   6.603 -0.2686  0.2004  0.0720
 1104YOPC   D2A16080   5.960   6.775   6.953 -0.1483 -0.0049 -0.1654
 1104YOPC   C3A16081   5.489   6.856   7.103  0.0118 -0.0134  0.2659
 1104YOPC   C4A16082   5.175   7.169   7.043 -0.1207  0.0199 -0.1408
 1104YOPC   C1B16083   5.801   7.047   6.563 -0.3768 -0.2616 -0.0212
 1104YOPC   C2B16084   5.692   7.309   6.829 -0.1122  0.1489  0.0265
 1104YOPC   D3B16085   5.422   7.542   7.209  0.3130 -0.0717 -0.2820
 1104YOPC   C4B16086   4.996   7.492   7.371 -0.1388  0.2925 -0.1235
 1105YOPC   NC316087  17.170   8.311   5.926 -0.0932 -0.1361 -0.0874
 1105YOPC   PO416088  17.325   7.949   5.928 -0.1673 -0.3021  0.2230
 1105YOPC   GL116089  17.327   8.130   6.365 -0.0995  0.4546  0.0556
 1105YOPC   GL216090  17.384   7.784   6.590  0.0857  0.0867 -0.0143
 1105YOPC   C1A16091  17.386   8.335   6.687  0.2125  0.0195  0.0079
 1105YOPC   D2A16092  17.338   8.381   7.126 -0.0853 -0.2464 -0.0919
 1105YOPC   C3A16093  17.538   8.267   7.488  0.1392 -0.1988 -0.3011
 1105YOPC   C4A16094  17.381   8.181   7.839  0.2540 -0.2488 -0.0827
 1105YOPC   C1B16095  17.809   7.700   6.764  0.2913 -0.0040  0.0774
 1105YOPC   C2B16096  18.148   7.744   6.650 -0.1791  0.0154  0.0434
 1105YOPC   D3B16097  18.560   7.863   6.843 -0.1416 -0.3862 -0.3474
 1105YOPC   C4B16098  18.456   7.978   7.261 -0.1111  0.0792 -0.1236
 1106YOPC   NC316099  11.470   4.683   5.597  0.2322  0.1932 -0.2351
 1106YOPC   PO416100  11.184   5.047   5.702  0.0917  0.2307  0.0906
 1106YOPC   GL116101  11.351   5.267   6.006 -0.1233 -0.3689 -0.0245
 1106YOPC   GL216102  11.218   5.489   6.168  0.0194 -0.0680 -0.0138
 1106YOPC   C1A16103  11.645   5.657   6.206  0.1671 -0.2457  0.0102
 1106YOPC   D2A16104  11.734   5.708   6.632 -0.0267 -0.2371 -0.2983
 1106YOPC   C3A16105  12.071   5.754   6.806  0.3903  0.1473 -0.1030
 1106YOPC   C4A16106  12.185   5.867   7.235  0.0856  0.1161  0.2541
 1106YOPC   C1B16107  11.191   5.635   6.670  0.3168  0.1395  0.1083
 1106YOPC   C2B16108  11.326   5.830   7.021 -0.0130  0.1021 -0.2452
 1106YOPC   D3B16109  11.683   6.089   6.953 -0.0486 -0.0454  0.3250
 1106YOPC   C4B16110  11.342   6.475   6.807 -0.0026  0.2662  0.3824
 1107YOPC   NC316111   9.534   9.744   5.073 -0.0232  0.1668 -0.2258
 1107YOPC   PO416112   9.750   9.966   5.473 -0.0851 -0.0172  0.1241
 1107YOPC   GL116113   9.605   9.681   5.781 -0.0106 -0.0922  0.3199
 1107YOPC   GL216114   9.656   9.738   6.190  0.0104 -0.3781 -0.0817
 1107YOPC   C1A16115   9.289   9.571   5.881 -0.0931  0.0428  0.2084
 1107YOPC   D2A16116   9.192   9.187   5.975 -0.2451  0.0358  0.0993
 1107YOPC   C3A16117   9.076   8.915   6.406 -0.2275 -0.2690  0.0440
 1107YOPC   C4A16118   9.083   8.833   6.864  0.1858  0.0221 -0.0668
 1107YOPC   C1B16119   9.417  10.077   6.209  0.1867  0.0326 -0.0448
 1107YOPC   C2B16120   9.419  10.554   6.212 -0.0189  0.2234 -0.1424
 1107YOPC   D3B16121   9.492  10.726   6.601  0.1504 -0.0960  0.4513
 1107YOPC   C4B16122   9.636  11.070   6.718  0.0821  0.0127 -0.3328
 1108YOPC   NC316123  16.897  14.162   5.733  0.3591 -0.0203  0.1422
 1108YOPC   PO416124  17.196  13.803   5.773  0.0033 -0.1801 -0.3245
 1108YOPC   GL116125  17.238  14.031   6.133 -0.1356 -0.1988  0.0579
 1108YOPC   GL216126  17.323  14.258   5.948  0.0767 -0.2422  0.2211
 1108YOPC   C1A16127  17.509  13.974   6.513 -0.0833 -0.0504 -0.1131
 1108YOPC   D2A16128  17.660  14.178   6.830 -0.3506 -0.0966  0.2258
 1108YOPC   C3A16129  17.962  14.122   7.073 -0.0983 -0.1865 -0.1633
 1108YOPC   C4A16130  18.314  13.973   7.420  0.0055  0.0314 -0.1393
 1108YOPC   C1B16131  17.403  14.431   6.462 -0.2552 -0.0637  0.0041
 1108YOPC   C2B16132  17.239  14.439   6.818  0.2969  0.4603  0.0817
 1108YOPC   D3B16133  17.392  14.354   7.229 -0.1409 -0.0394  0.1609
 1108YOPC   C4B16134  17.264  14.493   7.672  0.1356 -0.0183  0.2429
 1109YOPC   NC316135   7.949   2.401   5.111 -0.2283 -0.2151 -0.2554
 1109YOPC   PO416136   8.183   2.310   5.458  0.1284 -0.0719 -0.0592
 1109YOPC   GL116137   8.381   2.188   5.854  0.1808  0.0686  0.2830
 1109YOPC   GL216138   8.466   1.757   5.982 -0.0178  0.0212 -0.0567
 1109YOPC   C1A16139   8.239   2.200   6.331  0.0013  0.0241 -0.1611
 1109YOPC   D2A16140   8.400   2.282   6.707  0.1552 -0.2595  0.2319
 1109YOPC   C3A16141   8.230   2.584   6.948  0.0737 -0.0897  0.1370
 1109YOPC   C4A16142   8.073   3.009   7.191 -0.2451 -0.3148  0.1589
 1109YOPC   C1B16143   8.747   2.047   6.169 -0.0230 -0.1329 -0.2451
 1109YOPC   C2B16144   9.115   2.295   6.216 -0.0877 -0.1109 -0.0243
 1109YOPC   D3B16145   9.090   2.743   6.409 -0.1687  0.1347  0.1584
 1109YOPC   C4B16146   8.948   3.050   6.745  0.0693  0.4920 -0.2854
 1110YOPC   NC316147   6.750  14.301   4.746 -0.0557 -0.0582 -0.0405
 1110YOPC   PO416148   6.475  14.276   5.162 -0.0537  0.1447  0.1136
 1110YOPC   GL116149   6.300  14.113   5.537 -0.3356  0.0257 -0.1623
 1110YOPC   GL216150   6.461  14.278   5.811  0.3347  0.0389  0.2204
 1110YOPC   C1A16151   6.138  13.946   5.994 -0.1618 -0.0860  0.0029
 1110YOPC   D2A16152   6.121  13.743   6.387 -0.1786 -0.2938  0.0831
 1110YOPC   C3A16153   5.808  13.584   6.773  0.0290  0.0853  0.4233
 1110YOPC   C4A16154   5.496  13.402   7.079  0.1325  0.0756 -0.0682
 1110YOPC   C1B16155   6.396  14.416   6.254 -0.0148 -0.1400 -0.0105
 1110YOPC   C2B16156   6.345  14.350   6.623  0.1511 -0.0221 -0.1038
 1110YOPC   D3B16157   6.253  14.615   6.931 -0.0102  0.2566 -0.0182
 1110YOPC   C4B16158   6.313  14.941   7.022 -0.0931 -0.2480  0.0223
 1111YOPC   NC316159  14.235   3.504   5.554  0.4407  0.0951  0.1297
 1111YOPC   PO416160  13.850   3.074   5.378 -0.2024  0.2942 -0.1895
 1111YOPC   GL116161  13.834   3.318   5.848  0.0124  0.1036 -0.0272
 1111YOPC   GL216162  13.462   3.368   5.738  0.0213  0.4631  0.0919
 1111YOPC   C1A16163  13.881   3.411   6.256  0.2510 -0.1076 -0.0145
 1111YOPC   D2A16164  13.768   3.213   6.721  0.0353  0.0499  0.2313
 1111YOPC   C3A16165  13.476   2.931   6.855 -0.0921  0.0239 -0.1653
 1111YOPC   C4A16166  13.571   2.591   7.150 -0.0485  0.0082  0.2302
 1111YOPC   C1B16167  13.298   3.309   6.165 -0.3460 -0.0259 -0.3549
 1111YOPC   C2B16168  13.203   3.177   6.523 -0.2415  0.1647  0.4481
 1111YOPC   D3B16169  13.140   2.826   6.492 -0.0385  0.2079 -0.1808
 1111YOPC   C4B16170  12.970   2.383   6.562 -0.0064 -0.0952 -0.0620
 1112YOPC   NC316171   4.770  16.896   5.081 -0.0297  0.2555 -0.1948
 1112YOPC   PO416172   5.121  16.563   5.314 -0.3014  0.2292  0.0339
 1112YOPC   GL116173   5.229  16.637   5.743  0.1335  0.1025 -0.2120
 1112YOPC   GL216174   5.015  16.822   5.824 -0.0581  0.0352 -0.1220
 1112YOPC   C1A16175   5.476  16.492   6.084  0.2178 -0.2705  0.3821
 1112YOPC   D2A16176   5.367  16.260   6.411  0.0005  0.0827  0.1366
 1112YOPC   C3A16177   5.608  15.878   6.569 -0.0046 -0.3227  0.1083
 1112YOPC   C4A16178   5.747  15.554   6.956  0.2198 -0.2654  0.0183
 1112YOPC   C1B16179   4.934  16.666   6.319 -0.0713  0.0620  0.0519
 1112YOPC   C2B16180   4.786  16.571   6.697 -0.2181  0.0776  0.1094
 1112YOPC   D3B16181   4.890  16.872   7.041  0.2957 -0.4925 -0.0860
 1112YOPC   C4B16182   5.193  16.962   7.292 -0.1058 -0.1045 -0.2112
 1113YOPC   NC316183   3.892  15.720   5.211 -0.0726  0.0564  0.2615
 1113YOPC   PO416184   3.661  15.547   5.404 -0.1873 -0.3370 -0.0274
 1113YOPC   GL116185   3.901  15.667   5.746 -0.1539  0.1312 -0.2064
 1113YOPC   GL216186   4.134  15.706   5.853 -0.0102 -0.2437 -0.2433
 1113YOPC   C1A16187   3.833  15.722   6.244 -0.0710 -0.3181  0.0076
 1113YOPC   D2A16188   3.529  15.538   6.447 -0.0096 -0.0514 -0.1644
 1113YOPC   C3A16189   3.221  15.498   6.876  0.1117  0.2111  0.0961
 1113YOPC   C4A16190   2.829  15.590   6.930 -0.2519 -0.1508 -0.3999
 1113YOPC   C1B16191   4.282  15.813   6.216 -0.0728 -0.3733  0.2190
 1113YOPC   C2B16192   4.567  15.694   6.597 -0.0550  0.0954  0.0557
 1113YOPC   D3B16193   4.842  15.439   6.851 -0.1968 -0.0719 -0.0109
 1113YOPC   C4B16194   5.017  14.965   6.845  0.1091 -0.0677  0.0879
 1114YOPC   NC316195   7.090  10.953   5.083 -0.0163  0.0789  0.1659
 1114YOPC   PO416196   7.473  11.102   5.161  0.0712  0.1372  0.0126
 1114YOPC   GL116197   7.547  10.935   5.604 -0.2311 -0.0516 -0.0029
 1114YOPC   GL216198   7.789  11.087   5.658 -0.1685 -0.1679  0.2196
 1114YOPC   C1A16199   7.504  10.944   5.999  0.4814  0.2570 -0.0219
 1114YOPC   D2A16200   7.399  10.952   6.471  0.4227 -0.3558  0.0815
 1114YOPC   C3A16201   7.404  10.824   6.928  0.0408 -0.5294 -0.0652
 1114YOPC   C4A16202   7.702  10.761   7.198 -0.0484 -0.0197  0.2531
 1114YOPC   C1B16203   7.976  11.123   6.148  0.4586 -0.0836 -0.1338
 1114YOPC   C2B16204   7.881  11.007   6.546 -0.4378  0.2393 -0.2908
 1114YOPC   D3B16205   8.041  11.183   6.917  0.1954 -0.4093  0.1097
 1114YOPC   C4B16206   8.195  10.943   7.254  0.2038  0.2163  0.3613
 1115YOPC   NC316207  17.439   1.943   5.866  0.1720  0.0622 -0.1527
 1115YOPC   PO416208  17.273   1.571   6.000  0.1931 -0.1084 -0.0260
 1115YOPC   GL116209  17.545   1.581   6.314  0.2147  0.2061  0.2470
 1115YOPC   GL216210  17.655   1.976   6.302  0.0100  0.1765 -0.1836
 1115YOPC   C1A16211  17.893   1.626   6.544  0.3134 -0.0371  0.3258
 1115YOPC   D2A16212  18.144   1.547   6.927 -0.0542  0.5001 -0.2945
 1115YOPC   C3A16213  17.966   1.420   7.283  0.2279 -0.3087  0.0319
 1115YOPC   C4A16214  17.641   1.483   7.636 -0.1081 -0.1048  0.1758
 1115YOPC   C1B16215  17.488   1.886   6.689  0.2309 -0.1708  0.0740
 1115YOPC   C2B16216  17.563   1.553   7.027  0.0607  0.4406 -0.2921
 1115YOPC   D3B16217  17.271   1.686   7.370 -0.0407  0.2568  0.2574
 1115YOPC   C4B16218  16.898   1.771   7.196  0.0712  0.2521 -0.2004
 1116YOPC   NC316219   8.816   0.576   5.369  0.0673 -0.0767 -0.1868
 1116YOPC   PO416220   8.756   0.223   5.226  0.0243 -0.0642 -0.0144
 1116YOPC   GL116221   8.741   0.006   5.658 -0.0057  0.4227 -0.0755
 1116YOPC   GL216222   8.901  -0.237   5.798 -0.0520  0.1932  0.0136
 1116YOPC   C1A16223   8.602   0.071   6.033 -0.0585 -0.1765 -0.0476
 1116YOPC   D2A16224   8.348   0.386   6.142  0.0729 -0.2426  0.0429
 1116YOPC   C3A16225   8.337   0.569   6.608 -0.1983 -0.0909  0.2614
 1116YOPC   C4A16226   8.493   0.727   6.876  0.2645  0.1800 -0.0419
 1116YOPC   C1B16227   9.031  -0.178   6.313 -0.0051 -0.1327 -0.0937
 1116YOPC   C2B16228   8.760  -0.223   6.597 -0.0502 -0.0978  0.2467
 1116YOPC   D3B16229   8.772  -0.136   6.968  0.0050 -0.4276  0.0453
 1116YOPC   C4B16230   8.971   0.032   7.340 -0.2747 -0.0296 -0.0786
 1117YOPC   NC316231   7.399  14.144   5.142  0.0156  0.0226 -0.0500
 1117YOPC   PO416232   7.289  14.484   5.122  0.2686 -0.0156  0.4776
 1117YOPC   GL116233   7.375  14.534   5.495  0.0113  0.1115 -0.0318
 1117YOPC   GL216234   7.327  14.257   5.631 -0.2857  0.2938 -0.0729
 1117YOPC   C1A16235   7.222  14.719   5.814 -0.0383  0.2825  0.2201
 1117YOPC   D2A16236   6.796  14.778   5.873 -0.0018  0.2238  0.0912
 1117YOPC   C3A16237   6.555  15.024   6.163  0.0967  0.2257  0.3067
 1117YOPC   C4A16238   6.264  14.992   6.463  0.0864  0.1509  0.0146
 1117YOPC   C1B16239   7.155  14.230   6.022 -0.0553  0.5242  0.0646
 1117YOPC   C2B16240   6.945  14.212   6.363 -0.1957 -0.1055 -0.0788
 1117YOPC   D3B16241   6.806  14.662   6.532 -0.0671 -0.2125  0.1114
 1117YOPC   C4B16242   6.635  14.995   6.725  0.0654 -0.1516 -0.1509
 1118YOPC   NC316243  16.728   5.834   6.146  0.1988  0.1046 -0.1155
 1118YOPC   PO416244  16.293   5.617   6.119 -0.1311 -0.0183 -0.1414
 1118YOPC   GL116245  16.063   5.695   6.514 -0.1333  0.0541  0.0226
 1118YOPC   GL216246  16.117   5.527   6.766 -0.0021 -0.1159  0.0411
 1118YOPC   C1A16247  16.007   6.025   6.853  0.0717  0.2299  0.0557
 1118YOPC   D2A16248  16.109   6.395   6.959 -0.1530  0.0747 -0.0048
 1118YOPC   C3A16249  16.285   6.653   7.271 -0.0231 -0.0477 -0.0094
 1118YOPC   C4A16250  16.492   6.834   7.607 -0.0603 -0.0234 -0.1138
 1118YOPC   C1B16251  16.259   5.561   7.144 -0.0467  0.0319  0.1541
 1118YOPC   C2B16252  16.212   5.718   7.490 -0.0608  0.1741 -0.1305
 1118YOPC   D3B16253  16.579   5.725   7.739  0.1824 -0.1222 -0.1011
 1118YOPC   C4B16254  16.964   5.940   7.868  0.3212 -0.4095  0.1187
 1119YOPC   NC316255   4.928  18.654   5.275  0.1940  0.1751  0.2527
 1119YOPC   PO416256   4.874  18.212   5.217  0.1910  0.0747  0.2790
 1119YOPC   GL116257   5.054  18.254   5.720 -0.2609  0.0243 -0.1597
 1119YOPC   GL216258   5.272  17.984   5.816  0.1976  0.1077  0.1206
 1119YOPC   C1A16259   4.904  18.294   6.099 -0.1163 -0.0180 -0.1397
 1119YOPC   D2A16260   4.877  18.387   6.584  0.3158  0.0486  0.0100
 1119YOPC   C3A16261   4.488  18.346   6.866  0.0511  0.1817 -0.0533
 1119YOPC   C4A16262   4.369  18.242   7.264  0.1196  0.1357  0.0216
 1119YOPC   C1B16263   5.544  17.903   6.242 -0.2505  0.2390 -0.0246
 1119YOPC   C2B16264   5.672  17.545   6.533  0.2373  0.1725 -0.0034
 1119YOPC   D3B16265   5.369  17.128   6.713 -0.1457  0.2059  0.1954
 1119YOPC   C4B16266   5.355  16.736   6.582  0.0128 -0.1302 -0.0760
 1120YOPC   NC316267  13.117  12.115   5.531 -0.1512 -0.3374  0.1833
 1120YOPC   PO416268  13.412  12.367   5.729 -0.0556  0.0835 -0.2174
 1120YOPC   GL116269  13.175  12.298   6.068 -0.0167 -0.0380  0.4006
 1120YOPC   GL216270  13.107  12.637   6.156 -0.0323  0.0612 -0.1613
 1120YOPC   C1A16271  13.227  12.124   6.416  0.0088  0.0558  0.0330
 1120YOPC   D2A16272  13.416  12.203   6.855  0.1345 -0.3642 -0.0516
 1120YOPC   C3A16273  13.374  12.135   7.234 -0.0318 -0.2342  0.3032
 1120YOPC   C4A16274  13.122  12.096   7.558 -0.0219  0.1023 -0.2233
 1120YOPC   C1B16275  13.233  12.957   6.420 -0.1759 -0.1646  0.1693
 1120YOPC   C2B16276  13.119  13.001   6.795 -0.2421  0.0135 -0.0649
 1120YOPC   D3B16277  12.761  12.897   7.025 -0.1455 -0.0582  0.0193
 1120YOPC   C4B16278  12.290  12.796   6.886 -0.1420 -0.0329 -0.0329
 1121YOPC   NC316279  11.043  12.144   4.839  0.1206  0.5139 -0.1803
 1121YOPC   PO416280  10.572  11.936   4.987  0.1129  0.1460 -0.3177
 1121YOPC   GL116281  10.478  11.909   5.475 -0.3422  0.1323 -0.2584
 1121YOPC   GL216282  10.670  11.633   5.595  0.1165 -0.1195  0.2838
 1121YOPC   C1A16283  10.342  12.343   5.643  0.0811 -0.0788  0.1642
 1121YOPC   D2A16284  10.263  12.705   5.613  0.1341 -0.2134  0.2774
 1121YOPC   C3A16285  10.487  13.112   5.543 -0.1974 -0.0503 -0.0016
 1121YOPC   C4A16286  10.499  13.543   5.725 -0.1987 -0.0688 -0.0803
 1121YOPC   C1B16287  10.539  11.878   5.985 -0.1564  0.2237  0.0121
 1121YOPC   C2B16288  10.162  12.072   6.102  0.0356 -0.2129  0.0557
 1121YOPC   D3B16289   9.926  11.896   6.417  0.0218 -0.0719  0.2200
 1121YOPC   C4B16290   9.750  11.570   6.555  0.0083 -0.0018  0.2058
 1122YOPC   NC316291  17.924   8.532   5.641 -0.2759  0.0744  0.1596
 1122YOPC   PO416292  18.138   8.663   5.987 -0.0469  0.1963  0.1231
 1122YOPC   GL116293  17.999   8.870   6.387 -0.0184 -0.0829 -0.2126
 1122YOPC   GL216294  17.793   8.656   6.537 -0.3796 -0.0970 -0.0325
 1122YOPC   C1A16295  17.698   9.073   6.788 -0.2017 -0.0751  0.1829
 1122YOPC   D2A16296  17.640   9.005   7.126  0.2091  0.0498 -0.2419
 1122YOPC   C3A16297  17.412   8.758   7.431 -0.0935  0.2472 -0.0989
 1122YOPC   C4A16298  17.308   8.701   7.822 -0.2653  0.0333  0.2164
 1122YOPC   C1B16299  17.782   8.547   6.957  0.2027 -0.2737 -0.0458
 1122YOPC   C2B16300  17.995   8.453   7.309  0.2064 -0.2539  0.1257
 1122YOPC   D3B16301  18.359   8.565   7.295 -0.0486  0.0357  0.0454
 1122YOPC   C4B16302  18.502   8.916   7.342 -0.0591 -0.0766 -0.1717
 1123YOPC   NC316303  13.687  17.406   5.447 -0.1032 -0.0658 -0.0557
 1123YOPC   PO416304  13.994  17.216   5.652 -0.0616  0.0889  0.2121
 1123YOPC   GL116305  14.082  17.321   6.072  0.3248  0.2086 -0.0014
 1123YOPC   GL216306  14.058  17.597   6.044 -0.0083 -0.0960  0.0353
 1123YOPC   C1A16307  14.201  17.478   6.499 -0.1270 -0.0455  0.1989
 1123YOPC   D2A16308  14.458  17.737   6.844  0.1141 -0.2261  0.0374
 1123YOPC   C3A16309  14.639  17.556   7.210  0.2197  0.2621  0.4736
 1123YOPC   C4A16310  14.934  17.250   7.457 -0.0489 -0.0345  0.1663
 1123YOPC   C1B16311  14.068  17.946   6.380  0.2424  0.0230  0.1079
 1123YOPC   C2B16312  13.858  18.161   6.625  0.4159 -0.0557 -0.1120
 1123YOPC   D3B16313  13.665  18.369   6.905 -0.2390  0.1888 -0.1446
 1123YOPC   C4B16314  13.800  18.693   7.171  0.0696 -0.1817 -0.2125
 1124YOPC   NC316315   7.061   7.322   5.641 -0.1657  0.1347  0.0290
 1124YOPC   PO416316   6.794   7.549   5.594  0.3024 -0.3439  0.0907
 1124YOPC   GL116317   6.954   7.652   6.010  0.0308  0.2233  0.0946
 1124YOPC   GL216318   6.758   7.625   6.126  0.1758  0.1532 -0.1096
 1124YOPC   C1A16319   7.057   7.785   6.456 -0.2001 -0.2497  0.0545
 1124YOPC   D2A16320   7.104   7.679   6.917 -0.0252  0.3619 -0.0594
 1124YOPC   C3A16321   7.468   7.548   7.008 -0.1077 -0.3962 -0.0752
 1124YOPC   C4A16322   7.950   7.290   6.972 -0.1386  0.3405  0.2992
 1124YOPC   C1B16323   6.635   7.483   6.546 -0.1695  0.4203  0.0325
 1124YOPC   C2B16324   6.509   7.621   6.940  0.0107 -0.4953 -0.2854
 1124YOPC   D3B16325   6.179   7.950   6.938  0.2442 -0.0855  0.3196
 1124YOPC   C4B16326   6.092   8.398   6.835  0.3310 -0.2417  0.0726
 1125YOPC   NC316327  14.739   0.864   5.649  0.0527 -0.0942 -0.0722
 1125YOPC   PO416328  14.343   0.870   5.757  0.1898  0.0419 -0.2011
 1125YOPC   GL116329  14.347   0.560   6.178 -0.3014 -0.0943 -0.2112
 1125YOPC   GL216330  13.978   0.673   6.082 -0.0845  0.3603 -0.0678
 1125YOPC   C1A16331  14.526   0.641   6.582  0.0548 -0.0618 -0.2343
 1125YOPC   D2A16332  14.807   0.975   6.626 -0.1409 -0.2182 -0.2132
 1125YOPC   C3A16333  14.946   1.104   7.085  0.0402  0.5413 -0.0002
 1125YOPC   C4A16334  15.057   1.520   7.226 -0.0505  0.1634  0.1532
 1125YOPC   C1B16335  13.907   0.623   6.544  0.0453  0.2477 -0.0261
 1125YOPC   C2B16336  14.204   0.389   6.863 -0.1689 -0.0931  0.2463
 1125YOPC   D3B16337  14.342   0.494   7.263  0.1905 -0.1968  0.0611
 1125YOPC   C4B16338  14.358   0.474   7.728 -0.3760 -0.1029 -0.0821
 1126YOPC   NC316339   9.425  15.383   5.325 -0.3258 -0.1996  0.0356
 1126YOPC   PO416340   9.613  15.746   5.283  0.0306  0.0444 -0.0754
 1126YOPC   GL116341   9.530  15.693   5.721  0.1580  0.1181 -0.1451
 1126YOPC   GL216342   9.778  15.710   5.834 -0.1253  0.1415 -0.3255
 1126YOPC   C1A16343   9.283  15.634   6.073  0.2912 -0.1800 -0.4500
 1126YOPC   D2A16344   9.072  15.679   6.397 -0.0669  0.2061  0.1960
 1126YOPC   C3A16345   9.154  15.545   6.806  0.1242  0.1605  0.1728
 1126YOPC   C4A16346   9.356  15.698   7.161 -0.1123  0.3819  0.3178
 1126YOPC   C1B16347   9.769  15.910   6.136 -0.1248  0.2374 -0.4489
 1126YOPC   C2B16348  10.052  15.865   6.558 -0.3835  0.2148  0.0696
 1126YOPC   D3B16349  10.070  15.503   6.713 -0.1553  0.2567  0.0252
 1126YOPC   C4B16350  10.324  15.462   7.124  0.4353  0.0302  0.0164
 1127YOPC   NC316351  10.693   3.386   5.760 -0.2147  0.4334  0.0343
 1127YOPC   PO416352  11.224   3.322   5.710  0.2074 -0.0434  0.0578
 1127YOPC   GL116353  11.217   3.460   6.103  0.0923 -0.2650 -0.0195
 1127YOPC   GL216354  11.383   3.707   6.125  0.2615  0.0154  0.3296
 1127YOPC   C1A16355  10.942   3.397   6.424 -0.0230 -0.1145  0.1604
 1127YOPC   D2A16356  10.948   3.727   6.756  0.1771  0.0628 -0.3768
 1127YOPC   C3A16357  10.795   3.810   7.134 -0.0856  0.0181 -0.2992
 1127YOPC   C4A16358  11.088   4.012   7.403  0.2491  0.1263 -0.3503
 1127YOPC   C1B16359  11.811   3.696   6.241  0.1953 -0.0791  0.1316
 1127YOPC   C2B16360  12.141   3.985   6.463  0.0505  0.0084 -0.0684
 1127YOPC   D3B16361  12.383   3.918   6.782  0.2889  0.0348  0.3013
 1127YOPC   C4B16362  12.590   3.635   7.133  0.0211 -0.0763  0.0445
 1128YOPC   NC316363  11.779  18.767   5.325  0.1652  0.0802  0.1087
 1128YOPC   PO416364  12.289  18.728   5.417  0.0184  0.0880  0.2437
 1128YOPC   GL116365  12.409  18.831   5.921 -0.1228  0.0355  0.0585
 1128YOPC   GL216366  12.662  19.004   6.037  0.3034  0.0713 -0.5351
 1128YOPC   C1A16367  12.311  18.768   6.353 -0.1341  0.0979 -0.2053
 1128YOPC   D2A16368  12.469  18.921   6.848  0.3440  0.0174 -0.0272
 1128YOPC   C3A16369  12.539  19.288   6.929  0.3561 -0.1732 -0.4512
 1128YOPC   C4A16370  12.404  19.674   6.942  0.1132  0.1773 -0.3577
 1128YOPC   C1B16371  12.787  18.832   6.402  0.1555  0.4471  0.1283
 1128YOPC   C2B16372  12.944  18.738   6.862  0.2238  0.0376  0.0602
 1128YOPC   D3B16373  12.799  18.874   7.188  0.1286  0.0293 -0.1556
 1128YOPC   C4B16374  12.543  19.131   7.461  0.1826 -0.1637  0.0190
 1129YOPC   NC316375   5.881   9.331   4.959  0.0862  0.1680  0.1143
 1129YOPC   PO416376   5.905   9.705   5.301  0.0041  0.1538  0.1559
 1129YOPC   GL116377   5.820   9.781   5.758 -0.0203 -0.2240  0.2289
 1129YOPC   GL216378   5.785   9.597   6.051 -0.2228 -0.1987 -0.0667
 1129YOPC   C1A16379   5.429   9.940   6.008 -0.0194  0.1291 -0.0689
 1129YOPC   D2A16380   5.265  10.070   6.379 -0.0162 -0.3059 -0.2981
 1129YOPC   C3A16381   5.271   9.772   6.657 -0.1293  0.3080  0.3915
 1129YOPC   C4A16382   5.160   9.365   6.809 -0.3782 -0.3204  0.2034
 1129YOPC   C1B16383   5.611   9.352   6.439 -0.3791  0.1391  0.0990
 1129YOPC   C2B16384   5.515   9.005   6.564 -0.1458  0.1821 -0.0354
 1129YOPC   D3B16385   5.480   8.871   6.939  0.0973 -0.1581  0.0938
 1129YOPC   C4B16386   5.690   8.555   7.234 -0.4210 -0.0449 -0.0341
 1130YOPC   NC316387   4.875  16.194   5.067  0.1304  0.4234  0.1427
 1130YOPC   PO416388   5.245  15.998   5.074  0.0747  0.2225  0.0021
 1130YOPC   GL116389   5.391  16.099   5.453 -0.2292  0.3546 -0.1384
 1130YOPC   GL216390   5.013  16.017   5.528 -0.0604 -0.0792  0.1589
 1130YOPC   C1A16391   5.499  15.934   5.903 -0.0645  0.2412  0.2142
 1130YOPC   D2A16392   5.857  16.121   6.211  0.0304 -0.4686  0.2683
 1130YOPC   C3A16393   5.971  16.370   6.573  0.2862  0.2445  0.2072
 1130YOPC   C4A16394   6.194  16.575   6.957 -0.0260  0.3033 -0.0729
 1130YOPC   C1B16395   4.989  16.224   5.992 -0.0558 -0.2612 -0.2895
 1130YOPC   C2B16396   4.732  16.169   6.407  0.3413 -0.2921  0.0831
 1130YOPC   D3B16397   4.633  16.119   6.850 -0.2972  0.0462 -0.2530
 1130YOPC   C4B16398   4.634  16.410   7.267  0.1840 -0.0236 -0.2773
 1131YOPC   NC316399  13.257  14.480   5.387  0.1338  0.0298 -0.2167
 1131YOPC   PO416400  13.534  14.215   5.695  0.1799  0.0713 -0.1032
 1131YOPC   GL116401  13.514  14.613   5.867  0.1726 -0.1639  0.2797
 1131YOPC   GL216402  13.420  14.912   5.740  0.0227 -0.0332  0.1464
 1131YOPC   C1A16403  13.142  14.789   6.129 -0.0821 -0.0938  0.1003
 1131YOPC   D2A16404  12.770  14.639   6.282  0.2791  0.3425 -0.1325
 1131YOPC   C3A16405  12.537  14.827   6.567  0.1990  0.3702 -0.2780
 1131YOPC   C4A16406  12.471  14.989   6.920 -0.3908 -0.0708 -0.1059
 1131YOPC   C1B16407  13.508  15.188   6.121 -0.0077  0.2557  0.0239
 1131YOPC   C2B16408  13.497  15.183   6.677  0.1320  0.0740  0.0284
 1131YOPC   D3B16409  13.334  15.138   7.016  0.1300  0.0392  0.1542
 1131YOPC   C4B16410  12.913  14.965   7.206 -0.0111 -0.3493 -0.0571
 1132YOPC   NC316411  16.003  17.553   6.126 -0.0167 -0.1391 -0.2616
 1132YOPC   PO416412  16.118  17.832   5.673 -0.0013 -0.1689 -0.0800
 1132YOPC   GL116413  16.357  17.955   6.058 -0.2296  0.0918 -0.1063
 1132YOPC   GL216414  16.267  18.220   6.095  0.1593 -0.1054 -0.1615
 1132YOPC   C1A16415  16.563  17.750   6.303  0.2428  0.2588 -0.3447
 1132YOPC   D2A16416  17.031  17.726   6.572  0.0578 -0.1783  0.1299
 1132YOPC   C3A16417  17.275  17.946   6.801  0.0690 -0.4796  0.1642
 1132YOPC   C4A16418  17.490  18.268   6.979  0.0867  0.1918 -0.0578
 1132YOPC   C1B16419  16.160  18.416   6.482 -0.0655 -0.0462  0.0523
 1132YOPC   C2B16420  15.921  18.636   6.757  0.3710  0.0924  0.4705
 1132YOPC   D3B16421  15.450  18.526   6.914  0.0126 -0.3220  0.3332
 1132YOPC   C4B16422  15.115  18.223   6.742  0.2502 -0.0413  0.1520
 1133YOPC   NC316423  16.265   0.711   5.769 -0.1193 -0.0026  0.2141
 1133YOPC   PO416424  16.756   0.658   5.733  0.0311  0.0206  0.2276
 1133YOPC   GL116425  16.613   0.614   6.145  0.1537 -0.0386  0.0736
 1133YOPC   GL216426  16.387   0.369   6.124  0.0915 -0.1349 -0.2699
 1133YOPC   C1A16427  16.842   0.603   6.595 -0.0650  0.2352 -0.1900
 1133YOPC   D2A16428  16.825   0.896   6.871 -0.1139  0.0503 -0.2166
 1133YOPC   C3A16429  16.489   1.194   7.179  0.0213  0.2015 -0.0591
 1133YOPC   C4A16430  16.364   1.382   7.546  0.2119 -0.1351  0.1414
 1133YOPC   C1B16431  16.427   0.317   6.546 -0.0726  0.3520  0.0061
 1133YOPC   C2B16432  16.724   0.181   6.847  0.2005 -0.0719  0.0569
 1133YOPC   D3B16433  16.727   0.526   7.137  0.3289  0.1737 -0.3280
 1133YOPC   C4B16434  17.053   0.791   7.360 -0.0842 -0.1622  0.2199
 1134YOPC   NC316435  11.922  12.001   5.051 -0.3297 -0.0229 -0.1978
 1134YOPC   PO416436  12.298  12.047   5.368 -0.0358  0.0684 -0.1070
 1134YOPC   GL116437  12.224  11.784   5.751 -0.0519  0.3866  0.2535
 1134YOPC   GL216438  11.924  12.040   5.807  0.0826 -0.1004  0.0236
 1134YOPC   C1A16439  12.138  11.930   6.272 -0.2436 -0.2860 -0.0724
 1134YOPC   D2A16440  11.988  12.231   6.628 -0.1492 -0.1913  0.0388
 1134YOPC   C3A16441  11.729  12.657   6.517  0.1040  0.1955 -0.1282
 1134YOPC   C4A16442  11.419  13.124   6.665  0.1068  0.1507 -0.1613
 1134YOPC   C1B16443  12.130  12.373   6.069 -0.0586  0.0756  0.0855
 1134YOPC   C2B16444  12.274  12.694   6.287  0.1937 -0.2835 -0.0969
 1134YOPC   D3B16445  12.704  12.766   6.541  0.0747  0.1058  0.4549
 1134YOPC   C4B16446  13.023  12.515   6.663  0.1963 -0.1933  0.1092
 1135YOPC   NC316447   7.840   5.804   5.789 -0.0378 -0.2992 -0.0803
 1135YOPC   PO416448   8.069   5.660   5.581  0.0759  0.0662  0.0150
 1135YOPC   GL116449   8.155   5.575   6.122 -0.0529  0.1534  0.0014
 1135YOPC   GL216450   8.139   5.166   6.192  0.2387  0.2880 -0.2189
 1135YOPC   C1A16451   7.918   5.561   6.447 -0.3442 -0.0103 -0.0243
 1135YOPC   D2A16452   8.082   5.653   6.901 -0.1488 -0.1122 -0.2858
 1135YOPC   C3A16453   7.827   5.545   7.303  0.1318  0.1662  0.1576
 1135YOPC   C4A16454   7.633   5.241   7.533  0.0965 -0.3916 -0.0785
 1135YOPC   C1B16455   8.359   5.291   6.561  0.1713 -0.0088  0.3104
 1135YOPC   C2B16456   8.494   5.317   6.970 -0.0745 -0.1349 -0.1460
 1135YOPC   D3B16457   8.899   5.482   7.174  0.0686 -0.1881  0.0292
 1135YOPC   C4B16458   8.924   5.574   7.656  0.0160  0.4527 -0.0244
 1136YOPC   NC316459   9.743   4.790   5.356  0.1598  0.1200  0.2317
 1136YOPC   PO416460   9.526   5.069   5.586 -0.0049 -0.2686 -0.0223
 1136YOPC   GL116461   9.357   5.160   5.973 -0.2069  0.1367 -0.1766
 1136YOPC   GL216462   9.180   5.409   5.984 -0.0877  0.2259  0.3227
 1136YOPC   C1A16463   9.269   5.030   6.369 -0.5599 -0.0401 -0.0814
 1136YOPC   D2A16464   9.055   5.008   6.649 -0.1654  0.0028  0.0618
 1136YOPC   C3A16465   8.723   4.927   6.488 -0.1098 -0.1269 -0.2542
 1136YOPC   C4A16466   8.261   4.805   6.485 -0.1305 -0.0450 -0.1519
 1136YOPC   C1B16467   9.328   5.562   6.313  0.0345 -0.4432 -0.0823
 1136YOPC   C2B16468   9.160   5.493   6.763 -0.0309  0.1733  0.0969
 1136YOPC   D3B16469   9.469   5.570   7.183 -0.2449 -0.3446  0.3071
 1136YOPC   C4B16470   9.649   5.886   7.478  0.1773  0.0518 -0.1665
 1137YOPC   NC316471  10.103  16.869   4.517  0.2185  0.1074  0.1777
 1137YOPC   PO416472  10.246  17.155   4.834  0.0090 -0.1480 -0.1356
 1137YOPC   GL116473  10.283  17.296   5.282 -0.1905  0.0564  0.3164
 1137YOPC   GL216474  10.151  17.499   5.347  0.3127  0.0071 -0.3772
 1137YOPC   C1A16475  10.433  17.172   5.682  0.0398 -0.1626 -0.1490
 1137YOPC   D2A16476  10.556  17.031   6.088  0.0206 -0.2605  0.2349
 1137YOPC   C3A16477  10.514  17.162   6.530 -0.0198 -0.2043  0.2371
 1137YOPC   C4A16478  10.288  17.444   6.808 -0.0060 -0.0940 -0.2444
 1137YOPC   C1B16479  10.278  17.687   5.829 -0.1349 -0.3109  0.1033
 1137YOPC   C2B16480  10.210  17.515   6.242 -0.3228  0.4733  0.0259
 1137YOPC   D3B16481   9.990  17.707   6.544  0.1063  0.2690 -0.0211
 1137YOPC   C4B16482   9.570  17.850   6.868 -0.0117 -0.1140  0.0452
 1138YOPC   NC316483   6.369  11.705   5.157 -0.1216 -0.2049 -0.2380
 1138YOPC   PO416484   6.792  11.586   5.298  0.0113  0.1536  0.0256
 1138YOPC   GL116485   6.551  11.519   5.742  0.3014  0.0465 -0.0652
 1138YOPC   GL216486   6.931  11.576   5.888 -0.2674  0.0654 -0.3699
 1138YOPC   C1A16487   6.268  11.517   6.108 -0.0369  0.0719 -0.0418
 1138YOPC   D2A16488   6.256  11.637   6.590  0.4570 -0.0568 -0.0835
 1138YOPC   C3A16489   6.559  11.493   6.879  0.1875  0.1950 -0.1118
 1138YOPC   C4A16490   6.493  11.452   7.359  0.1275  0.0680 -0.2975
 1138YOPC   C1B16491   7.122  11.308   6.235  0.3404  0.0742  0.2547
 1138YOPC   C2B16492   7.105  11.252   6.712  0.1677  0.1491 -0.1681
 1138YOPC   D3B16493   6.833  10.844   6.781 -0.2612 -0.1302 -0.1630
 1138YOPC   C4B16494   6.623  10.486   6.953 -0.0021 -0.3582  0.1613
 1139YOPC   NC316495   2.225  12.635   5.238 -0.2731  0.1650 -0.2202
 1139YOPC   PO416496   1.820  12.539   5.519  0.1529  0.0964 -0.2496
 1139YOPC   GL116497   1.781  12.718   5.904  0.0042  0.0703 -0.1476
 1139YOPC   GL216498   1.939  12.622   6.054  0.0244  0.3153  0.1219
 1139YOPC   C1A16499   1.783  13.074   6.128  0.2983 -0.0990  0.3305
 1139YOPC   D2A16500   1.557  13.257   6.454 -0.1106 -0.1227  0.0861
 1139YOPC   C3A16501   1.715  13.310   6.864  0.2208  0.2205 -0.0088
 1139YOPC   C4A16502   2.016  13.487   7.056 -0.0495 -0.0492  0.0226
 1139YOPC   C1B16503   2.047  12.599   6.416  0.1114 -0.0066  0.1452
 1139YOPC   C2B16504   2.141  12.634   6.932 -0.1418 -0.3101 -0.3300
 1139YOPC   D3B16505   1.917  12.915   7.187 -0.0620 -0.1692 -0.0834
 1139YOPC   C4B16506   1.701  13.234   7.465 -0.0768 -0.0165  0.2168
 1140YOPC   NC316507  17.059  17.551   5.518 -0.3598 -0.0308  0.1147
 1140YOPC   PO416508  17.278  17.902   5.833  0.1417 -0.1316  0.1159
 1140YOPC   GL116509  17.452  17.957   6.225  0.0853 -0.0331 -0.0443
 1140YOPC   GL216510  17.295  18.371   6.096 -0.5495  0.1808 -0.0778
 1140YOPC   C1A16511  17.709  17.936   6.481  0.0967 -0.4124 -0.2330
 1140YOPC   D2A16512  18.182  17.860   6.676 -0.0076 -0.0255 -0.2502
 1140YOPC   C3A16513  18.299  17.845   7.100  0.1547 -0.0135 -0.1076
 1140YOPC   C4A16514  18.600  18.153   7.462 -0.0701  0.0974  0.0630
 1140YOPC   C1B16515  17.095  18.353   6.550  0.0651  0.3040  0.0055
 1140YOPC   C2B16516  16.997  18.512   6.999 -0.1821 -0.3505  0.1533
 1140YOPC   D3B16517  17.346  18.548   7.394  0.1372  0.2048 -0.4672
 1140YOPC   C4B16518  17.657  18.437   7.583 -0.0846 -0.0880 -0.2007
 1141YOPC   NC316519   1.924  16.634   4.985 -0.1423 -0.0655 -0.1387
 1141YOPC   PO416520   1.939  17.013   5.114 -0.0350  0.1997  0.3554
 1141YOPC   GL116521   2.093  16.957   5.445  0.2274 -0.3090  0.0410
 1141YOPC   GL216522   2.017  16.704   5.531  0.0362  0.0357  0.1012
 1141YOPC   C1A16523   2.147  16.948   5.953 -0.1680 -0.4782  0.1180
 1141YOPC   D2A16524   2.261  16.955   6.395 -0.1225 -0.4110  0.0768
 1141YOPC   C3A16525   2.209  16.834   6.748 -0.2698  0.0840  0.2438
 1141YOPC   C4A16526   2.220  16.812   7.230  0.3190  0.1698  0.0096
 1141YOPC   C1B16527   1.628  16.851   5.724  0.3096  0.1750  0.0590
 1141YOPC   C2B16528   1.456  16.793   6.063  0.1555  0.0114  0.0221
 1141YOPC   D3B16529   1.318  17.148   6.307 -0.3971  0.0049  0.0846
 1141YOPC   C4B16530   1.175  17.531   6.647 -0.0632 -0.1372  0.1663
 1142YOPC   NC316531  10.144   2.711   5.635 -0.2924  0.0940 -0.0248
 1142YOPC   PO416532  10.389   3.050   5.563  0.1302  0.3471 -0.2470
 1142YOPC   GL116533  10.274   3.005   6.017 -0.0163  0.0449 -0.1556
 1142YOPC   GL216534  10.669   2.927   6.105  0.1103 -0.1019  0.4496
 1142YOPC   C1A16535  10.040   3.151   6.399 -0.0993 -0.3750  0.1247
 1142YOPC   D2A16536  10.033   3.334   6.777 -0.0684 -0.0679 -0.3372
 1142YOPC   C3A16537  10.024   2.950   7.016  0.0383  0.2533 -0.2375
 1142YOPC   C4A16538   9.948   2.627   7.366  0.2272 -0.0754  0.1514
 1142YOPC   C1B16539  10.810   2.799   6.585  0.1667 -0.2618  0.2054
 1142YOPC   C2B16540  11.217   2.948   6.629 -0.3222  0.4216  0.3045
 1142YOPC   D3B16541  11.636   2.731   6.814  0.1831  0.0204  0.1999
 1142YOPC   C4B16542  11.819   2.623   7.067 -0.0361 -0.2570  0.1349
 1143YOPC   NC316543   4.368  15.476   4.735 -0.1004 -0.4698  0.0826
 1143YOPC   PO416544   4.343  15.657   5.096  0.2047 -0.2329  0.0745
 1143YOPC   GL116545   4.490  15.730   5.537 -0.1114 -0.1906 -0.1257
 1143YOPC   GL216546   4.480  16.110   5.743 -0.3284 -0.3377  0.0213
 1143YOPC   C1A16547   4.719  15.795   6.006  0.0557  0.1245 -0.1029
 1143YOPC   D2A16548   5.106  15.831   6.249 -0.2426  0.2401  0.0062
 1143YOPC   C3A16549   5.134  15.907   6.761  0.2939 -0.1556  0.0729
 1143YOPC   C4A16550   5.347  15.906   7.119  0.0456 -0.0588  0.0899
 1143YOPC   C1B16551   4.334  16.232   6.021  0.1965 -0.1421  0.0023
 1143YOPC   C2B16552   4.376  16.557   6.318  0.0311 -0.2287  0.1804
 1143YOPC   D3B16553   3.997  16.681   6.498  0.0005 -0.3289  0.1000
 1143YOPC   C4B16554   3.910  16.769   6.864  0.2684 -0.2082  0.1814
 1144YOPC   NC316555  11.489   0.816   5.338 -0.4321  0.3770 -0.0278
 1144YOPC   PO416556  11.061   0.817   5.226 -0.2594  0.0893  0.0453
 1144YOPC   GL116557  11.030   0.846   5.760 -0.2388  0.3695 -0.0538
 1144YOPC   GL216558  10.979   0.472   5.993 -0.1182  0.1735  0.1262
 1144YOPC   C1A16559  11.079   0.978   6.130  0.1847 -0.2207  0.3266
 1144YOPC   D2A16560  11.368   1.107   6.330  0.2943 -0.1369 -0.0875
 1144YOPC   C3A16561  11.393   1.578   6.425  0.1512 -0.1457  0.1318
 1144YOPC   C4A16562  11.722   1.887   6.563  0.4112  0.2729  0.0908
 1144YOPC   C1B16563  11.058   0.479   6.358  0.2636  0.0253  0.3967
 1144YOPC   C2B16564  11.135   0.415   6.772  0.1155  0.1093  0.3784
 1144YOPC   D3B16565  11.228   0.721   7.152 -0.0444  0.4338  0.2707
 1144YOPC   C4B16566  11.452   0.993   7.473 -0.0336 -0.1938 -0.0795
 1145YOPC   NC316567  15.213   1.445   5.621  0.2566  0.1394 -0.1236
 1145YOPC   PO416568  15.009   1.187   5.911  0.2844  0.1602 -0.1728
 1145YOPC   GL116569  14.964   1.355   6.321 -0.0785 -0.0032 -0.0176
 1145YOPC   GL216570  14.635   1.342   6.367  0.1550 -0.1336  0.3242
 1145YOPC   C1A16571  15.199   1.496   6.624 -0.1830 -0.0724  0.1277
 1145YOPC   D2A16572  15.694   1.657   6.574  0.0830 -0.0164 -0.0104
 1145YOPC   C3A16573  16.048   1.822   6.968 -0.0427  0.0778 -0.1177
 1145YOPC   C4A16574  16.432   1.727   7.117  0.1772  0.1613  0.0309
 1145YOPC   C1B16575  14.599   1.479   6.773 -0.2249 -0.3061  0.0292
 1145YOPC   C2B16576  14.572   1.409   7.312  0.1462  0.0894  0.1219
 1145YOPC   D3B16577  14.256   1.609   7.467 -0.1582  0.1806 -0.3135
 1145YOPC   C4B16578  14.283   2.071   7.624 -0.3732  0.1264 -0.0024
 1146ERGO   ROH16579  15.428  14.054   6.231  0.1314 -0.0071 -0.0083
 1146ERGO    R116580  15.354  13.953   6.485  0.0296  0.0039 -0.0351
 1146ERGO    R216581  15.527  13.948   6.699 -0.0159 -0.1151 -0.0091
 1146ERGO    R316582  15.326  14.083   6.824  0.0346 -0.0240 -0.0223
 1146ERGO    R416583  15.447  13.915   7.034  0.0529  0.0326  0.0240
 1146ERGO    R516584  15.236  13.923   6.978  0.0374  0.0499  0.0634
 1146ERGO    C116585  15.213  14.023   7.346  0.1404  0.2040  0.0309
 1146ERGO    C216586  15.146  13.794   7.733 -0.0792 -0.3898 -0.0362
 1147ERGO   ROH16587  14.014   1.623   9.424 -0.1388  0.0733 -0.0358
 1147ERGO    R116588  14.008   1.490   9.174 -0.0798  0.0620 -0.0316
 1147ERGO    R216589  13.878   1.593   8.953 -0.1263 -0.0028 -0.0350
 1147ERGO    R316590  14.121   1.558   8.835 -0.1107  0.1010 -0.0345
 1147ERGO    R416591  13.932   1.586   8.612 -0.1507 -0.1344 -0.0363
 1147ERGO    R516592  14.073   1.423   8.643 -0.0375 -0.0267  0.0347
 1147ERGO    C116593  14.191   1.549   8.302 -0.1501 -0.1136 -0.0367
 1147ERGO    C216594  14.286   1.677   7.998 -0.1456  0.2218  0.0304
 1148ERGO   ROH16595   6.415   9.085   9.444  0.2249  0.1689 -0.0257
 1148ERGO    R116596   6.423   9.175   9.176  0.2062  0.0446 -0.0686
 1148ERGO    R216597   6.640   9.132   9.011  0.1141 -0.2064 -0.1264
 1148ERGO    R316598   6.452   9.023   8.847 -0.0326 -0.1258 -0.0144
 1148ERGO    R416599   6.665   9.114   8.667 -0.2237  0.0324 -0.1679
 1148ERGO    R516600   6.453   9.164   8.654 -0.2487  0.0078  0.0774
 1148ERGO    C116601   6.503   9.002   8.312 -0.5580  0.2470 -0.0871
 1148ERGO    C216602   6.501   8.956   8.059 -0.1769  0.0012  0.0360
 1149ERGO   ROH16603   6.205   3.560   6.061  0.1059  0.0480 -0.0261
 1149ERGO    R116604   6.346   3.490   6.297  0.1660  0.0691 -0.0543
 1149ERGO    R216605   6.382   3.227   6.376 -0.0945  0.0809  0.1311
 1149ERGO    R316606   6.644   3.299   6.379 -0.0060 -0.2187 -0.0896
 1149ERGO    R416607   6.620   3.100   6.593 -0.1435  0.1058  0.1985
 1149ERGO    R516608   6.703   3.300   6.611  0.0996  0.0370 -0.1181
 1149ERGO    C116609   7.004   3.094   6.721 -0.0890 -0.1610  0.0306
 1149ERGO    C216610   7.260   2.949   6.928 -0.1512 -0.0723  0.2001
 1150ERGO   ROH16611   8.894   9.960   9.025 -0.2623 -0.1015  0.0464
 1150ERGO    R116612   8.989   9.915   8.762 -0.0854  0.2232  0.0498
 1150ERGO    R216613   8.957   9.673   8.632  0.3466  0.2566 -0.1248
 1150ERGO    R316614   8.843   9.828   8.440  0.1765  0.2066 -0.0679
 1150ERGO    R416615   8.923   9.583   8.300  0.3195  0.2755 -0.1277
 1150ERGO    R516616   8.976   9.787   8.244  0.1566  0.3292 -0.1129
 1150ERGO    C116617   8.797   9.677   7.926  0.1442  0.2395 -0.0760
 1150ERGO    C216618   8.684   9.501   7.631 -0.0929  0.1234 -0.4777
 1151ERGO   ROH16619  17.058  16.500   6.331  0.1373  0.1653  0.1645
 1151ERGO    R116620  17.023  16.607   6.591  0.1118  0.3317  0.0918
 1151ERGO    R216621  16.927  16.863   6.634 -0.3068  0.2037 -0.0778
 1151ERGO    R316622  16.746  16.733   6.790  0.0099  0.0223  0.1545
 1151ERGO    R416623  16.778  16.996   6.916 -0.1444  0.1013  0.0597
 1151ERGO    R516624  16.799  16.801   7.013  0.1883  0.1362  0.0852
 1151ERGO    C116625  16.521  16.951   7.226  0.2477 -0.1287  0.3580
 1151ERGO    C216626  16.341  16.891   7.419 -0.2359  0.1020  0.1696
 1152ERGO   ROH16627  10.679   3.164   9.559 -0.1670  0.1416  0.1157
 1152ERGO    R116628  10.771   3.276   9.316 -0.3132  0.3517  0.1538
 1152ERGO    R216629  10.848   3.122   9.100  0.1550  0.5115  0.1933
 1152ERGO    R316630  10.667   3.275   8.967 -0.1540  0.0861  0.1047
 1152ERGO    R416631  10.858   3.191   8.762  0.1864  0.5679  0.2065
 1152ERGO    R516632  10.797   3.395   8.806 -0.3463  0.4266  0.1942
 1152ERGO    C116633  10.694   3.375   8.440 -0.0854  0.2015  0.1309
 1152ERGO    C216634  10.816   3.272   8.092 -0.1375 -0.2821 -0.0105
 1153ERGO   ROH16635  14.899   9.536   9.935 -0.1357  0.0316  0.0309
 1153ERGO    R116636  14.806   9.491   9.672 -0.0585 -0.0587  0.0184
 1153ERGO    R216637  14.790   9.692   9.483 -0.2195 -0.0740  0.0144
 1153ERGO    R316638  14.940   9.521   9.335 -0.0388  0.0622  0.0364
 1153ERGO    R416639  14.802   9.688   9.138 -0.4891 -0.3267  0.0044
 1153ERGO    R516640  14.803   9.470   9.146 -0.1092 -0.3267  0.1820
 1153ERGO    C116641  14.950   9.525   8.798 -0.4766 -0.3460  0.0195
 1153ERGO    C216642  14.935   9.486   8.443 -0.2210  0.2379 -0.2008
 1154ERGO   ROH16643  14.358   3.220  10.081  0.0214  0.3378  0.0435
 1154ERGO    R116644  14.373   3.372   9.842  0.1493  0.2228 -0.0227
 1154ERGO    R216645  14.591   3.361   9.672  0.1175 -0.0750 -0.0467
 1154ERGO    R316646  14.401   3.303   9.486  0.0328  0.0430  0.0013
 1154ERGO    R416647  14.623   3.420   9.333  0.0923 -0.1456 -0.0618
 1154ERGO    R516648  14.415   3.484   9.330  0.1386  0.0134 -0.0261
 1154ERGO    C116649  14.464   3.400   8.961 -0.0018 -0.0758 -0.0256
 1154ERGO    C216650  14.459   3.486   8.627 -0.1259 -0.2497  0.1084
 1155ERGO   ROH16651  13.108   1.094   6.045 -0.1130 -0.2561  0.2485
 1155ERGO    R116652  13.203   1.203   6.288 -0.1766 -0.1188  0.2113
 1155ERGO    R216653  13.133   1.456   6.375 -0.2241 -0.0852  0.0634
 1155ERGO    R316654  13.056   1.322   6.599 -0.2528  0.0257  0.1220
 1155ERGO    R416655  13.137   1.587   6.694 -0.0268 -0.0042  0.0298
 1155ERGO    R516656  13.210   1.395   6.767 -0.1431 -0.0426  0.0556
 1155ERGO    C116657  13.068   1.539   7.091  0.0611  0.1470  0.0653
 1155ERGO    C216658  12.909   1.776   7.310  0.0859 -0.1869 -0.1194
 1156ERGO   ROH16659  12.383   8.058   9.512  0.0231 -0.0815 -0.0434
 1156ERGO    R116660  12.576   8.085   9.306 -0.0293  0.2028 -0.0576
 1156ERGO    R216661  12.616   7.892   9.112  0.3230  0.2016  0.0148
 1156ERGO    R316662  12.574   8.100   8.943 -0.0676  0.0691 -0.0645
 1156ERGO    R416663  12.619   7.870   8.767  0.3353  0.0674  0.0220
 1156ERGO    R516664  12.725   8.060   8.761 -0.0023  0.2651 -0.0596
 1156ERGO    C116665  12.583   8.052   8.407 -0.0243 -0.1352 -0.0482
 1156ERGO    C216666  12.637   8.002   7.977 -0.0799  0.1123 -0.0641
 1157ERGO   ROH16667  16.190   5.508  10.213  0.1760  0.0770 -0.0103
 1157ERGO    R116668  16.318   5.584   9.972  0.2068 -0.0873 -0.0475
 1157ERGO    R216669  16.475   5.410   9.826 -0.0666 -0.2989 -0.1020
 1157ERGO    R316670  16.308   5.479   9.623 -0.0397 -0.0692 -0.0474
 1157ERGO    R416671  16.552   5.386   9.490 -0.0615 -0.0159 -0.1233
 1157ERGO    R516672  16.452   5.577   9.458 -0.0074  0.0409  0.0455
 1157ERGO    C116673  16.439   5.437   9.104 -0.0332  0.3646 -0.0845
 1157ERGO    C216674  16.512   5.364   8.846  0.1213 -0.1826  0.1423
 1158ERGO   ROH16675  11.977   1.043   6.104 -0.1448 -0.1939 -0.0011
 1158ERGO    R116676  11.829   0.908   6.304 -0.0468 -0.1137  0.1282
 1158ERGO    R216677  11.947   0.746   6.493  0.0622  0.0902  0.2359
 1158ERGO    R316678  11.814   0.907   6.667  0.0121  0.1586  0.1348
 1158ERGO    R416679  11.872   0.662   6.820 -0.0837  0.1802  0.2256
 1158ERGO    R516680  11.676   0.756   6.793 -0.0633  0.2055  0.1159
 1158ERGO    C116681  11.703   0.764   7.174 -0.2157  0.2968  0.1246
 1158ERGO    C216682  11.964   0.725   7.379  0.1485 -0.2123 -0.1776
 1159ERGO   ROH16683   9.035  17.100   9.122 -0.0100  0.0618 -0.0947
 1159ERGO    R116684   8.947  17.291   8.932  0.0366  0.1379 -0.0416
 1159ERGO    R216685   9.122  17.431   8.771  0.0629  0.0070 -0.1340
 1159ERGO    R316686   8.966  17.332   8.571 -0.1243  0.1312 -0.0505
 1159ERGO    R416687   9.074  17.582   8.463 -0.0576  0.0869 -0.0761
 1159ERGO    R516688   8.864  17.526   8.474 -0.0811  0.2038  0.0512
 1159ERGO    C116689   8.900  17.577   8.097 -0.3036  0.2503  0.0360
 1159ERGO    C216690   8.796  17.617   7.748  0.0156  0.1669  0.1686
 1160ERGO   ROH16691  13.500  15.914   9.741  0.1867 -0.1154 -0.0972
 1160ERGO    R116692  13.551  16.004   9.478 -0.0222 -0.0664 -0.1207
 1160ERGO    R216693  13.705  15.861   9.298  0.0181  0.0781 -0.1881
 1160ERGO    R316694  13.485  15.886   9.140 -0.0762 -0.1186 -0.0950
 1160ERGO    R416695  13.701  15.813   8.956 -0.0146  0.2924 -0.2207
 1160ERGO    R516696  13.568  15.985   8.938 -0.2655  0.1337 -0.0636
 1160ERGO    C116697  13.493  15.808   8.608 -0.1223  0.2325 -0.1524
 1160ERGO    C216698  13.620  15.803   8.275  0.2731  0.3739 -0.0308
 1161ERGO   ROH16699  10.315   6.533   5.813 -0.1244 -0.1998 -0.1071
 1161ERGO    R116700  10.180   6.700   5.998  0.0293 -0.2268  0.0322
 1161ERGO    R216701   9.908   6.746   5.986  0.0722  0.0673  0.0424
 1161ERGO    R316702   9.915   6.662   6.244 -0.0371 -0.1820 -0.0328
 1161ERGO    R416703   9.701   6.862   6.237  0.1622  0.0350  0.1316
 1161ERGO    R516704   9.872   6.860   6.372  0.1452 -0.2594  0.1492
 1161ERGO    C116705   9.588   6.851   6.626  0.1119 -0.2179  0.1130
 1161ERGO    C216706   9.351   6.965   6.838 -0.1382  0.1468 -0.1747
 1162ERGO   ROH16707   1.953  14.533   5.433 -0.1034  0.0184  0.1057
 1162ERGO    R116708   1.896  14.673   5.672  0.1959  0.0252  0.1768
 1162ERGO    R216709   1.682  14.610   5.834  0.1129  0.3393  0.1909
 1162ERGO    R316710   1.872  14.594   6.027  0.1283 -0.0813  0.1497
 1162ERGO    R416711   1.626  14.502   6.157 -0.0392  0.3575  0.1720
 1162ERGO    R516712   1.760  14.660   6.228  0.2880  0.0894  0.1894
 1162ERGO    C116713   1.773  14.423   6.527 -0.1132 -0.0267  0.1223
 1162ERGO    C216714   1.670  14.309   6.863 -0.2402  0.1790 -0.2517
 1163ERGO   ROH16715  15.643  15.774   6.333  0.2121  0.0673  0.1703
 1163ERGO    R116716  15.832  15.609   6.464  0.2059  0.1225  0.2532
 1163ERGO    R216717  15.852  15.594   6.739  0.0027  0.0276  0.2725
 1163ERGO    R316718  15.823  15.327   6.694  0.1788  0.0307  0.1376
 1163ERGO    R416719  15.941  15.345   6.962  0.1194 -0.0355  0.1548
 1163ERGO    R516720  16.016  15.229   6.794  0.2175  0.0983  0.1152
 1163ERGO    C116721  15.965  14.950   7.049  0.3526 -0.0692 -0.0404
 1163ERGO    C216722  15.994  14.678   7.228 -0.2841  0.2303  0.2600
 1164ERGO   ROH16723  14.486  18.709   9.799  0.0226  0.1805 -0.1116
 1164ERGO    R116724  14.525  18.596   9.542  0.0258  0.1012 -0.0780
 1164ERGO    R216725  14.366  18.659   9.326  0.0678  0.0880 -0.1213
 1164ERGO    R316726  14.604  18.719   9.209  0.1012 -0.0044 -0.0977
 1164ERGO    R416727  14.427  18.649   8.986  0.1760 -0.1666 -0.0955
 1164ERGO    R516728  14.622  18.563   9.028  0.1568 -0.1356  0.0258
 1164ERGO    C116729  14.686  18.700   8.678  0.2702 -0.4016 -0.0582
 1164ERGO    C216730  14.586  18.574   8.313  0.1097  0.0717 -0.1924
 1165ERGO   ROH16731   6.919   7.042   6.421  0.1527  0.0736  0.0500
 1165ERGO    R116732   7.171   7.061   6.550  0.0535  0.0192  0.2567
 1165ERGO    R216733   7.197   7.135   6.815 -0.1511 -0.0536  0.3030
 1165ERGO    R316734   7.335   6.902   6.833 -0.1872 -0.0711  0.3465
 1165ERGO    R416735   7.428   7.060   7.061 -0.0529  0.0071  0.2300
 1165ERGO    R516736   7.552   6.966   6.909 -0.1414 -0.0832  0.2186
 1165ERGO    C116737   7.691   6.797   7.222 -0.0296  0.0261  0.2284
 1165ERGO    C216738   7.915   7.039   7.514 -0.1834  0.4944 -0.0979
 1166ERGO   ROH16739  13.078   5.075   6.113  0.1383  0.0219  0.1412
 1166ERGO    R116740  13.137   5.223   6.348 -0.0281 -0.0032  0.2002
 1166ERGO    R216741  13.018   5.169   6.592  0.0387 -0.2431  0.1830
 1166ERGO    R316742  13.275   5.152   6.677  0.0638  0.0223  0.1671
 1166ERGO    R416743  13.122   5.220   6.917  0.0085 -0.1330  0.1755
 1166ERGO    R516744  13.296   5.326   6.840 -0.1044  0.0457  0.1640
 1166ERGO    C116745  13.424   5.234   7.186  0.0146  0.1802  0.1562
 1166ERGO    C216746  13.410   5.094   7.405 -0.0637 -0.1339  0.1668
 1167ERGO   ROH16747   2.447   6.452   6.586 -0.0229  0.1497  0.0699
 1167ERGO    R116748   2.494   6.495   6.862 -0.0010  0.0744  0.0779
 1167ERGO    R216749   2.474   6.745   6.979  0.0187  0.0433  0.1450
 1167ERGO    R316750   2.303   6.616   7.147  0.0256  0.0072  0.1250
 1167ERGO    R416751   2.383   6.857   7.293 -0.1229  0.0803  0.0916
 1167ERGO    R516752   2.395   6.652   7.365 -0.0528  0.1011  0.1444
 1167ERGO    C116753   2.169   6.803   7.633 -0.1988  0.0679  0.0418
 1167ERGO    C216754   1.907   6.705   7.838 -0.0907 -0.1354  0.3275
 1168ERGO   ROH16755  16.820  10.176  10.453 -0.1289  0.1043  0.0480
 1168ERGO    R116756  16.835  10.116  10.177  0.0160  0.0565  0.0655
 1168ERGO    R216757  16.673   9.928  10.056  0.0910  0.0239  0.0155
 1168ERGO    R316758  16.612  10.134   9.890  0.1605 -0.0103 -0.0526
 1168ERGO    R416759  16.699   9.917   9.712 -0.0892 -0.1642  0.0053
 1168ERGO    R516760  16.778  10.120   9.717  0.0660 -0.2176 -0.1313
 1168ERGO    C116761  16.658  10.105   9.355 -0.1287 -0.3058 -0.0645
 1168ERGO    C216762  16.657  10.022   9.056 -0.1026  0.0560 -0.2993
 1169ERGO   ROH16763   4.659   4.159   9.758  0.0290  0.3604 -0.0981
 1169ERGO    R116764   4.586   4.276   9.511 -0.1331  0.1465 -0.1547
 1169ERGO    R216765   4.760   4.431   9.363 -0.3143  0.2399 -0.2726
 1169ERGO    R316766   4.698   4.255   9.165 -0.1711  0.0617 -0.1623
 1169ERGO    R416767   4.774   4.502   9.024 -0.0799 -0.0591 -0.3294
 1169ERGO    R516768   4.589   4.389   8.999 -0.0597 -0.0865 -0.3593
 1169ERGO    C116769   4.724   4.377   8.642  0.1911 -0.4005 -0.2591
 1169ERGO    C216770   4.759   4.485   8.290  0.1284 -0.2180 -0.1873
 1170ERGO   ROH16771  10.409   1.256   5.792  0.0807  0.1937  0.2941
 1170ERGO    R116772  10.575   1.133   5.986  0.0324  0.0010  0.2160
 1170ERGO    R216773  10.547   1.179   6.257  0.1356 -0.0593  0.2374
 1170ERGO    R316774  10.531   0.908   6.268 -0.0770 -0.0520  0.1572
 1170ERGO    R416775  10.615   0.989   6.538  0.2051 -0.2096  0.1209
 1170ERGO    R516776  10.714   0.844   6.409 -0.0152 -0.2499 -0.0087
 1170ERGO    C116777  10.639   0.624   6.712  0.0458 -0.2903 -0.0225
 1170ERGO    C216778  10.746   0.672   6.929 -0.0262 -0.0077  0.0914
 1171ERGO   ROH16779   4.921  17.335   5.831  0.1748 -0.1918  0.1855
 1171ERGO    R116780   4.886  17.541   6.022  0.1210  0.0470 -0.0754
 1171ERGO    R216781   4.921  17.501   6.293 -0.3531  0.2745  0.0350
 1171ERGO    R316782   5.093  17.710   6.269 -0.0563  0.0402  0.0769
 1171ERGO    R416783   5.056  17.678   6.558  0.0372 -0.0557  0.0660
 1171ERGO    R516784   5.029  17.861   6.443  0.2518  0.0450  0.1851
 1171ERGO    C116785   5.296  17.977   6.689  0.5432 -0.4680  0.1235
 1171ERGO    C216786   5.577  17.843   6.944 -0.0714  0.0462  0.1345
 1172ERGO   ROH16787  16.463   1.083   6.122  0.2071 -0.2169 -0.0852
 1172ERGO    R116788  16.325   1.066   6.368  0.2397  0.0805 -0.0414
 1172ERGO    R216789  16.236   0.826   6.472 -0.2138  0.2566  0.0064
 1172ERGO    R316790  16.378   0.905   6.690  0.0161 -0.0031 -0.0459
 1172ERGO    R416791  16.181   0.714   6.794 -0.1465  0.1875 -0.0069
 1172ERGO    R516792  16.216   0.917   6.866  0.1392  0.1175  0.0593
 1172ERGO    C116793  16.283   0.722   7.187  0.1084 -0.0965 -0.0638
 1172ERGO    C216794  16.286   0.486   7.566 -0.1698  0.3536 -0.2065
 1173ERGO   ROH16795  17.103  15.306  10.091 -0.0710  0.0772 -0.0097
 1173ERGO    R116796  16.992  15.383   9.842 -0.1033 -0.1243 -0.0592
 1173ERGO    R216797  17.110  15.571   9.678 -0.3467  0.0609 -0.0267
 1173ERGO    R316798  17.095  15.373   9.493  0.0509  0.0142 -0.0193
 1173ERGO    R416799  17.146  15.617   9.337 -0.1768  0.0750 -0.0078
 1173ERGO    R516800  16.983  15.475   9.306  0.0342 -0.1558 -0.1054
 1173ERGO    C116801  17.152  15.457   8.965  0.2955  0.0395  0.0102
 1173ERGO    C216802  17.148  15.481   8.632 -0.0135 -0.0187 -0.1360
 1174ERGO   ROH16803   9.647   7.867   9.480 -0.2596 -0.2791  0.0492
 1174ERGO    R116804   9.476   7.899   9.257 -0.1727 -0.1255  0.0031
 1174ERGO    R216805   9.532   8.072   9.049  0.0296 -0.1603  0.0281
 1174ERGO    R316806   9.500   7.850   8.897 -0.1133 -0.1265  0.0071
 1174ERGO    R416807   9.542   8.066   8.704  0.1193 -0.1504  0.0299
 1174ERGO    R516808   9.376   7.925   8.706  0.0009 -0.0134 -0.0235
 1174ERGO    C116809   9.518   7.853   8.360  0.0373 -0.1129  0.0112
 1174ERGO    C216810   9.679   7.924   8.031  0.0170 -0.2946  0.0136
 1175ERGO   ROH16811  15.614  12.971   6.445  0.0301  0.2330 -0.2052
 1175ERGO    R116812  15.686  13.080   6.696 -0.0274  0.2210 -0.1848
 1175ERGO    R216813  15.546  13.023   6.928  0.0545  0.0337 -0.1855
 1175ERGO    R316814  15.792  12.950   7.020  0.1310  0.2184 -0.2353
 1175ERGO    R416815  15.647  13.042   7.258 -0.1014 -0.4175 -0.1038
 1175ERGO    R516816  15.842  13.112   7.189 -0.1680 -0.0040  0.0839
 1175ERGO    C116817  15.935  12.985   7.537 -0.1204 -0.5068 -0.1029
 1175ERGO    C216818  15.894  12.913   7.836  0.1695 -0.3760 -0.0089
 1176ERGO   ROH16819   5.543   9.566   9.950 -0.1212 -0.0659  0.1255
 1176ERGO    R116820   5.370   9.480   9.744 -0.1204 -0.0194  0.1049
 1176ERGO    R216821   5.230   9.656   9.583 -0.0065  0.0197  0.0461
 1176ERGO    R316822   5.350   9.517   9.382 -0.0296 -0.0696  0.0945
 1176ERGO    R416823   5.123   9.650   9.254  0.0801  0.0447  0.0175
 1176ERGO    R516824   5.168   9.438   9.248 -0.0379  0.0182  0.0535
 1176ERGO    C116825   5.173   9.516   8.875  0.1088 -0.0247  0.0462
 1176ERGO    C216826   5.243   9.434   8.493 -0.3554 -0.0558 -0.1548
 1177ERGO   ROH16827   1.211  16.499   9.297  0.2000 -0.0221  0.1699
 1177ERGO    R116828   1.172  16.620   9.044  0.2867  0.1060  0.2162
 1177ERGO    R216829   1.380  16.669   8.869  0.3088 -0.1075  0.1769
 1177ERGO    R316830   1.226  16.527   8.696  0.0782  0.1382  0.1742
 1177ERGO    R416831   1.358  16.728   8.529  0.4245 -0.0864  0.1727
 1177ERGO    R516832   1.144  16.690   8.541  0.3563  0.2701  0.1611
 1177ERGO    C116833   1.200  16.628   8.169  0.2754  0.1567  0.1675
 1177ERGO    C216834   1.285  16.586   7.791  0.1080  0.2512  0.3024
 1178ERGO   ROH16835  17.374   2.430   6.487  0.1802 -0.0246 -0.1571
 1178ERGO    R116836  17.500   2.487   6.734  0.0600  0.1458 -0.1326
 1178ERGO    R216837  17.658   2.303   6.866 -0.1443  0.1709  0.1630
 1178ERGO    R316838  17.842   2.504   6.858 -0.0065  0.0421  0.0655
 1178ERGO    R416839  17.867   2.392   7.127 -0.0789  0.1609  0.1140
 1178ERGO    R516840  17.834   2.601   7.076  0.0648  0.1556  0.0147
 1178ERGO    C116841  18.160   2.632   7.271  0.0888  0.0343 -0.0060
 1178ERGO    C216842  18.449   2.754   7.484  0.1205 -0.1301 -0.1283
 1179ERGO   ROH16843  13.644   9.134   9.945 -0.1390  0.2825 -0.0485
 1179ERGO    R116844  13.682   9.037   9.682 -0.0543  0.2709 -0.0311
 1179ERGO    R216845  13.475   8.941   9.527  0.0359  0.0366 -0.0009
 1179ERGO    R316846  13.566   9.124   9.348 -0.1554  0.0915 -0.0462
 1179ERGO    R416847  13.500   8.889   9.186 -0.1316  0.0497 -0.0166
 1179ERGO    R516848  13.690   8.995   9.189 -0.1763  0.1501 -0.1185
 1179ERGO    C116849  13.600   9.031   8.820 -0.4087  0.1089 -0.0682
 1179ERGO    C216850  13.600   9.061   8.482  0.1901 -0.0686  0.3075
 1180ERGO   ROH16851   0.149  12.010   9.859  0.0911 -0.1725  0.2209
 1180ERGO    R116852   0.105  11.868   9.618  0.1933 -0.1894  0.2127
 1180ERGO    R216853  -0.127  11.893   9.471  0.1973 -0.3118  0.1920
 1180ERGO    R316854   0.045  11.951   9.269  0.1839 -0.2142  0.2071
 1180ERGO    R416855  -0.207  11.883   9.135  0.2110 -0.3083  0.1880
 1180ERGO    R516856  -0.011  11.795   9.097  0.2549 -0.2225  0.1866
 1180ERGO    C116857  -0.092  11.932   8.750  0.2062 -0.2147  0.2000
 1180ERGO    C216858  -0.287  11.981   8.436 -0.0462  0.1791 -0.0771
 1181ERGO   ROH16859   3.298  11.867   9.614 -0.0610 -0.0904 -0.0053
 1181ERGO    R116860   3.405  11.756   9.377 -0.3064 -0.3517  0.0010
 1181ERGO    R216861   3.246  11.645   9.179 -0.5860  0.1697 -0.0815
 1181ERGO    R316862   3.378  11.821   9.019  0.0010 -0.1670  0.0079
 1181ERGO    R416863   3.259  11.627   8.834 -0.4674  0.1798 -0.0778
 1181ERGO    R516864   3.469  11.685   8.844 -0.2899 -0.4107  0.0360
 1181ERGO    C116865   3.391  11.781   8.484  0.1526 -0.1303  0.0083
 1181ERGO    C216866   3.383  11.721   8.114  0.0285  0.0649  0.0001
 1182ERGO   ROH16867  10.481   3.395   6.203 -0.2919 -0.1352  0.0342
 1182ERGO    R116868  10.424   3.395   6.480 -0.1419 -0.0028  0.0664
 1182ERGO    R216869  10.481   3.179   6.643 -0.2730 -0.0178  0.0888
 1182ERGO    R316870  10.614   3.366   6.789 -0.0013 -0.1141 -0.0278
 1182ERGO    R416871  10.521   3.171   6.987 -0.2500  0.1095  0.0900
 1182ERGO    R516872  10.487   3.386   6.991  0.0406  0.1659 -0.0224
 1182ERGO    C116873  10.670   3.342   7.323  0.0184  0.0931 -0.0189
 1182ERGO    C216874  10.901   3.262   7.542 -0.0729 -0.1273  0.1831
 1183ERGO   ROH16875   0.066   7.393   9.890 -0.2243  0.2664 -0.0194
 1183ERGO    R116876   0.148   7.325   9.628 -0.1430  0.1992  0.0236
 1183ERGO    R216877  -0.028   7.239   9.434 -0.0753  0.1129  0.0039
 1183ERGO    R316878   0.080   7.442   9.290 -0.0691  0.0839 -0.0333
 1183ERGO    R416879   0.032   7.230   9.094  0.0242 -0.0010  0.0237
 1183ERGO    R516880   0.221   7.333   9.130 -0.0012  0.0473  0.0456
 1183ERGO    C116881   0.169   7.416   8.761  0.0879 -0.0948  0.0005
 1183ERGO    C216882   0.159   7.365   8.462 -0.2708 -0.0044 -0.1615
 1184ERGO   ROH16883  17.458   4.556  10.141  0.2707 -0.0424 -0.0254
 1184ERGO    R116884  17.498   4.674   9.887  0.2473 -0.0988 -0.0565
 1184ERGO    R216885  17.691   4.584   9.710  0.1253 -0.2451 -0.1248
 1184ERGO    R316886  17.480   4.566   9.540  0.0433 -0.1336 -0.0349
 1184ERGO    R416887  17.709   4.629   9.368 -0.0620  0.0535 -0.0978
 1184ERGO    R516888  17.520   4.737   9.377 -0.0736  0.0116  0.0912
 1184ERGO    C116889  17.521   4.638   9.009 -0.2483  0.3320  0.0020
 1184ERGO    C216890  17.593   4.525   8.661 -0.2851  0.1325 -0.3592
 1185ERGO   ROH16891   2.632  13.312   5.819  0.0715  0.3375 -0.0119
 1185ERGO    R116892   2.598  13.357   6.096  0.0841  0.2119  0.0111
 1185ERGO    R216893   2.798  13.310   6.281  0.0934  0.1287 -0.0180
 1185ERGO    R316894   2.750  13.568   6.350  0.0956  0.0975  0.0998
 1185ERGO    R416895   2.930  13.468   6.558 -0.0363 -0.0464  0.1451
 1185ERGO    R516896   2.737  13.564   6.589 -0.0383 -0.0341  0.0912
 1185ERGO    C116897   2.961  13.802   6.786 -0.1098 -0.1775  0.3508
 1185ERGO    C216898   3.035  14.112   6.828 -0.3083 -0.0184 -0.1799
 1186ERGO   ROH16899   9.875   5.327   5.818 -0.1324 -0.1602 -0.0227
 1186ERGO    R116900   9.761   5.387   6.070 -0.0131 -0.0358  0.0033
 1186ERGO    R216901   9.760   5.206   6.280 -0.1642 -0.0395  0.0049
 1186ERGO    R316902   9.878   5.411   6.414  0.0925 -0.1655 -0.0240
 1186ERGO    R416903   9.784   5.231   6.624 -0.2422  0.0477  0.0042
 1186ERGO    R516904   9.741   5.444   6.607  0.0760  0.1045 -0.0819
 1186ERGO    C116905   9.909   5.438   6.950 -0.0465 -0.0197 -0.0232
 1186ERGO    C216906  10.011   5.653   7.313 -0.1746  0.0401 -0.0874
 1187ERGO   ROH16907  18.336  18.768   9.732  0.2614  0.0603 -0.1630
 1187ERGO    R116908  18.236  18.842   9.478  0.0098 -0.0978 -0.1140
 1187ERGO    R216909  18.394  18.960   9.284 -0.2711  0.1523 -0.2026
 1187ERGO    R316910  18.303  18.753   9.132 -0.0292  0.0020 -0.1466
 1187ERGO    R416911  18.352  18.969   8.941 -0.2755  0.0031 -0.2060
 1187ERGO    R516912  18.168  18.857   8.964 -0.1462 -0.2047 -0.1802
 1187ERGO    C116913  18.244  18.781   8.598 -0.0509 -0.2250 -0.1556
 1187ERGO    C216914  18.338  18.734   8.205 -0.2898  0.0455 -0.1066
 1188ERGO   ROH16915   9.750  15.013   9.396 -0.1029  0.2567  0.1640
 1188ERGO    R116916   9.839  14.968   9.131 -0.0822  0.1443  0.1883
 1188ERGO    R216917   9.691  14.826   8.946  0.0133 -0.1106  0.2863
 1188ERGO    R316918   9.725  15.050   8.795 -0.1768 -0.1771  0.1430
 1188ERGO    R416919   9.595  14.858   8.615 -0.1913 -0.3006  0.3254
 1188ERGO    R516920   9.780  14.967   8.578 -0.2748 -0.2466  0.1563
 1188ERGO    C116921   9.571  15.086   8.282 -0.4889 -0.4736  0.2137
 1188ERGO    C216922   9.395  15.129   8.070 -0.1939  0.0445  0.0879
 1189ERGO   ROH16923   6.510   4.749   9.754 -0.0676  0.1562 -0.0420
 1189ERGO    R116924   6.447   4.877   9.509  0.0885  0.3235  0.0020
 1189ERGO    R216925   6.638   5.004   9.354  0.2990 -0.0513 -0.0694
 1189ERGO    R316926   6.543   4.840   9.160 -0.1387  0.1605 -0.0432
 1189ERGO    R416927   6.698   5.042   9.016  0.3788 -0.2549 -0.0789
 1189ERGO    R516928   6.491   4.987   8.978  0.2264  0.2714 -0.0588
 1189ERGO    C116929   6.643   4.911   8.637  0.0144 -0.1746 -0.0600
 1189ERGO    C216930   6.591   4.784   8.240 -0.3895 -0.0324 -0.2172
 1190ERGO   ROH16931  16.866   7.901   6.593  0.1136  0.2170 -0.0242
 1190ERGO    R116932  16.978   8.015   6.826  0.1256  0.0989  0.0281
 1190ERGO    R216933  16.837   8.039   7.063  0.0712  0.1612 -0.0093
 1190ERGO    R316934  17.049   7.904   7.166 -0.0548 -0.0090  0.0318
 1190ERGO    R416935  16.883   7.970   7.398 -0.0178  0.1732  0.0056
 1190ERGO    R516936  17.095   8.015   7.373  0.0242 -0.0161  0.0175
 1190ERGO    C116937  17.109   7.804   7.690 -0.1880  0.0205  0.0528
 1190ERGO    C216938  17.033   7.735   8.130 -0.1008 -0.2153  0.5985
 1191ERGO   ROH16939  15.278   2.177   6.534 -0.0793  0.0057  0.0341
 1191ERGO    R116940  15.387   2.065   6.771 -0.0818 -0.0658  0.0005
 1191ERGO    R216941  15.638   2.132   6.865 -0.0673 -0.1311 -0.0049
 1191ERGO    R316942  15.502   2.189   7.093 -0.0366 -0.1603  0.0224
 1191ERGO    R416943  15.784   2.213   7.167 -0.0207  0.1400 -0.0959
 1191ERGO    R516944  15.633   2.091   7.267  0.1281  0.0366  0.0166
 1191ERGO    C116945  15.742   2.314   7.557  0.0351  0.2705 -0.1233
 1191ERGO    C216946  15.864   2.513   7.945  0.3768  0.2570 -0.1518
 1192ERGO   ROH16947  15.484  11.229   6.529 -0.2658 -0.0079 -0.0787
 1192ERGO    R116948  15.356  11.096   6.744 -0.1955  0.0877  0.0241
 1192ERGO    R216949  15.484  10.904   6.897 -0.1984  0.0274 -0.0423
 1192ERGO    R316950  15.408  11.065   7.102  0.0364  0.0973 -0.0078
 1192ERGO    R416951  15.531  10.834   7.232 -0.1874 -0.0463 -0.0597
 1192ERGO    R516952  15.333  10.914   7.272 -0.0856  0.1707  0.0006
 1192ERGO    C116953  15.486  10.943   7.620  0.0394 -0.0237 -0.0374
 1192ERGO    C216954  15.373  10.943   8.041  0.1549  0.0301  0.0919
 1193ERGO   ROH16955   9.334   4.528   9.599 -0.1374  0.0303 -0.0653
 1193ERGO    R116956   9.266   4.615   9.339 -0.1235  0.0723 -0.0577
 1193ERGO    R216957   9.449   4.735   9.170 -0.0964  0.0638 -0.0542
 1193ERGO    R316958   9.370   4.539   8.999 -0.1328  0.0883 -0.0608
 1193ERGO    R416959   9.430   4.769   8.826  0.0562  0.0166 -0.0658
 1193ERGO    R516960   9.245   4.654   8.830  0.0014  0.1232 -0.1267
 1193ERGO    C116961   9.345   4.604   8.466  0.1111  0.0121 -0.0787
 1193ERGO    C216962   9.374   4.754   8.106 -0.0005 -0.2387  0.1005
 1194ERGO   ROH16963  10.432   4.637   9.651  0.3117 -0.0633 -0.0435
 1194ERGO    R116964  10.371   4.709   9.384  0.0655 -0.1518 -0.0150
 1194ERGO    R216965  10.561   4.813   9.212 -0.1622  0.0903 -0.1296
 1194ERGO    R316966  10.481   4.608   9.052  0.0124 -0.0260 -0.0705
 1194ERGO    R416967  10.513   4.836   8.870 -0.1825 -0.0550 -0.1366
 1194ERGO    R516968  10.336   4.711   8.892 -0.0751 -0.1995 -0.1017
 1194ERGO    C116969  10.409   4.657   8.521 -0.0305 -0.2488 -0.0853
 1194ERGO    C216970  10.427   4.691   8.155  0.2635  0.0793 -0.0291
 1195ERGO   ROH16971  12.923   5.779   9.686  0.2063 -0.0488 -0.0183
 1195ERGO    R116972  13.014   5.662   9.445  0.1240 -0.1293 -0.0117
 1195ERGO    R216973  12.844   5.538   9.265  0.0606 -0.1850  0.0829
 1195ERGO    R316974  12.956   5.712   9.089  0.0061 -0.2429 -0.0086
 1195ERGO    R416975  12.849   5.495   8.923  0.0515 -0.3480  0.1029
 1195ERGO    R516976  13.054   5.571   8.921  0.0307 -0.2981  0.0537
 1195ERGO    C116977  12.957   5.633   8.557 -0.0050 -0.4973  0.0286
 1195ERGO    C216978  13.055   5.714   8.225  0.2072 -0.0050  0.0996
 1196ERGO   ROH16979   0.788   2.572   6.245 -0.0371 -0.0868  0.0590
 1196ERGO    R116980   0.919   2.661   6.480 -0.0698 -0.1099  0.0859
 1196ERGO    R216981   0.836   2.588   6.733 -0.0661 -0.1875  0.0655
 1196ERGO    R316982   1.094   2.506   6.760 -0.0482 -0.1337  0.0591
 1196ERGO    R416983   0.952   2.382   6.985 -0.0046 -0.1225  0.0906
 1196ERGO    R516984   1.131   2.506   6.996 -0.0281 -0.0867  0.0554
 1196ERGO    C116985   1.262   2.186   7.157  0.0481 -0.0342  0.0992
 1196ERGO    C216986   1.382   1.829   7.357  0.0973 -0.4097 -0.5228
 1197ERGO   ROH16987   8.487   0.795   5.819  0.1286  0.1539  0.0048
 1197ERGO    R116988   8.599   0.925   6.045  0.0488  0.3123 -0.0457
 1197ERGO    R216989   8.485   1.150   6.158 -0.2878  0.0901  0.0720
 1197ERGO    R316990   8.493   1.001   6.385  0.1356  0.0534  0.0421
 1197ERGO    R416991   8.468   1.278   6.479 -0.1375  0.0112  0.1124
 1197ERGO    R516992   8.620   1.133   6.539  0.1186  0.1959 -0.0620
 1197ERGO    C116993   8.466   1.211   6.878  0.3475 -0.0692  0.1079
 1197ERGO    C216994   8.496   1.421   7.103  0.0935 -0.1043  0.0248
 1198ERGO   ROH16995  11.907  18.827   5.775  0.3948  0.0962  0.1278
 1198ERGO    R116996  11.778  18.699   5.992  0.2363  0.0942  0.0350
 1198ERGO    R216997  11.891  18.486   6.129  0.0617 -0.0231  0.0089
 1198ERGO    R316998  11.848  18.645   6.345  0.0719 -0.0676  0.0422
 1198ERGO    R416999  11.766  18.378   6.432 -0.0955 -0.0405 -0.0620
 1198ERGO    R517000  11.647  18.560   6.442 -0.0010  0.0129 -0.0472
 1198ERGO    C117001  11.652  18.465   6.811 -0.1773 -0.0927 -0.0720
 1198ERGO    C217002  11.753  18.594   7.054 -0.0097  0.0697  0.1821
 1199ERGO   ROH17003   2.377  13.190   9.370  0.2021  0.0401  0.1398
 1199ERGO    R117004   2.463  13.242   9.105  0.1493  0.1305  0.1408
 1199ERGO    R217005   2.554  13.042   8.937  0.2615  0.2137  0.1104
 1199ERGO    R317006   2.362  13.140   8.771  0.1899  0.1141  0.1316
 1199ERGO    R417007   2.524  12.963   8.602  0.3458  0.2791  0.0865
 1199ERGO    R517008   2.475  13.172   8.562  0.1834  0.2608  0.1439
 1199ERGO    C117009   2.327  13.009   8.251  0.3277  0.2236  0.0925
 1199ERGO    C217010   2.421  12.847   7.928 -0.2789 -0.0148  0.0057
 1200ERGO   ROH17011   7.663   8.384   9.565  0.0466  0.1042  0.1643
 1200ERGO    R117012   7.753   8.270   9.322  0.3728  0.3003  0.1873
 1200ERGO    R217013   7.579   8.183   9.125  0.5936 -0.3288  0.2532
 1200ERGO    R317014   7.728   8.348   8.968  0.0483  0.1078  0.1621
 1200ERGO    R417015   7.594   8.167   8.780  0.4059 -0.2703  0.2405
 1200ERGO    R517016   7.808   8.207   8.792  0.3290  0.3238  0.1030
 1200ERGO    C117017   7.743   8.313   8.432 -0.2153  0.1738  0.1478
 1200ERGO    C217018   7.629   8.270   8.068  0.0956 -0.2230  0.0015
 1201ERGO   ROH17019  11.768  12.262   9.894 -0.2941 -0.0199 -0.1773
 1201ERGO    R117020  11.853  12.360   9.642 -0.1784 -0.1207 -0.1781
 1201ERGO    R217021  12.119  12.358   9.563 -0.1340 -0.0840 -0.0241
 1201ERGO    R317022  12.020  12.224   9.348  0.0302 -0.2185 -0.0184
 1201ERGO    R417023  12.229  12.398   9.238 -0.0038 -0.1508  0.0109
 1201ERGO    R517024  12.022  12.386   9.172  0.0283 -0.2818 -0.0796
 1201ERGO    C117025  12.200  12.295   8.847  0.2261 -0.3161  0.0364
 1201ERGO    C217026  12.284  12.129   8.624 -0.4367  0.2170  0.1147
 1202ERGO   ROH17027   7.628   6.355   9.671  0.0948 -0.0592  0.1444
 1202ERGO    R117028   7.734   6.310   9.412  0.0052 -0.0409  0.1034
 1202ERGO    R217029   7.586   6.193   9.209 -0.0906  0.0380  0.1213
 1202ERGO    R317030   7.657   6.417   9.073 -0.0674  0.0462  0.1482
 1202ERGO    R417031   7.651   6.206   8.870 -0.0800  0.0786  0.1254
 1202ERGO    R517032   7.817   6.342   8.912 -0.0725  0.0561  0.1437
 1202ERGO    C117033   7.755   6.425   8.545 -0.0521  0.1099  0.1531
 1202ERGO    C217034   7.744   6.464   8.174 -0.1892 -0.1132  0.0362
 1203ERGO   ROH17035   9.880   2.677   6.116 -0.1999  0.1217 -0.0933
 1203ERGO    R117036   9.827   2.732   6.389 -0.1515  0.0742 -0.0735
 1203ERGO    R217037   9.604   2.635   6.520 -0.1693  0.1123 -0.0697
 1203ERGO    R317038   9.789   2.540   6.695 -0.1771  0.0124 -0.1161
 1203ERGO    R417039   9.529   2.459   6.807 -0.1878  0.1253 -0.0671
 1203ERGO    R517040   9.687   2.570   6.910 -0.1151  0.0425 -0.0927
 1203ERGO    C117041   9.659   2.266   7.140 -0.2058  0.0389 -0.1092
 1203ERGO    C217042   9.675   2.080   7.504 -0.2682 -0.2134 -0.1317
 1204ERGO   ROH17043  15.364   2.159  10.003 -0.0368 -0.0884 -0.0111
 1204ERGO    R117044  15.345   2.031   9.751 -0.0697 -0.0338 -0.0364
 1204ERGO    R217045  15.161   2.107   9.558 -0.0468  0.0538 -0.0230
 1204ERGO    R317046  15.382   2.128   9.402 -0.0406  0.0239 -0.0179
 1204ERGO    R417047  15.160   2.113   9.213 -0.0301 -0.0946 -0.0260
 1204ERGO    R517048  15.336   1.986   9.215 -0.0076 -0.0654  0.0394
 1204ERGO    C117049  15.366   2.135   8.865 -0.0144 -0.2091 -0.0230
 1204ERGO    C217050  15.379   2.194   8.546  0.0343 -0.0657  0.2270
 1205ERGO   ROH17051   4.625   7.435   6.249 -0.0905  0.1303  0.0479
 1205ERGO    R117052   4.622   7.481   6.528 -0.0121  0.1318  0.0483
 1205ERGO    R217053   4.472   7.330   6.703 -0.0615  0.2155  0.0752
 1205ERGO    R317054   4.710   7.295   6.828 -0.0575  0.0842  0.0333
 1205ERGO    R417055   4.520   7.133   6.983 -0.1440  0.2466  0.1114
 1205ERGO    R517056   4.654   7.287   7.061 -0.0207  0.1783  0.0487
 1205ERGO    C117057   4.772   6.986   7.264 -0.1883  0.1416  0.0932
 1205ERGO    C217058   4.544   6.669   7.407 -0.1832  0.1365 -0.1817
 1206ERGO   ROH17059   2.721   8.330   9.857 -0.2165 -0.0999 -0.0022
 1206ERGO    R117060   2.619   8.426   9.611 -0.0296  0.1237  0.0068
 1206ERGO    R217061   2.781   8.534   9.416  0.1932 -0.2181  0.0078
 1206ERGO    R317062   2.662   8.347   9.258 -0.2209  0.0364 -0.0008
 1206ERGO    R417063   2.772   8.547   9.070  0.8668 -0.5051 -0.0377
 1206ERGO    R517064   2.565   8.475   9.079  0.5494  0.2491 -0.3167
 1206ERGO    C117065   2.655   8.379   8.721  0.8703 -0.4334 -0.0722
 1206ERGO    C217066   2.548   8.467   8.328 -0.1347 -0.0934 -0.4229
 1207ERGO   ROH17067   4.695   8.373   9.627 -0.1138 -0.0768  0.0929
 1207ERGO    R117068   4.686   8.520   9.385 -0.0422 -0.0453  0.1097
 1207ERGO    R217069   4.882   8.498   9.190 -0.0214 -0.0714  0.1370
 1207ERGO    R317070   4.670   8.442   9.030 -0.0120  0.0033  0.0968
 1207ERGO    R417071   4.872   8.551   8.849  0.0275  0.0293  0.1503
 1207ERGO    R517072   4.667   8.620   8.870  0.0322  0.0523  0.1472
 1207ERGO    C117073   4.668   8.529   8.500  0.0649  0.1581  0.1203
 1207ERGO    C217074   4.671   8.541   8.244 -0.0109 -0.3725  0.1344
 1208ERGO   ROH17075   7.629  18.731   5.629 -0.2591 -0.0742 -0.0761
 1208ERGO    R117076   7.582  18.788   5.903 -0.2429 -0.1866 -0.0490
 1208ERGO    R217077   7.540  18.590   6.091  0.0164 -0.2772 -0.0806
 1208ERGO    R317078   7.744  18.714   6.220 -0.0751 -0.0921 -0.1117
 1208ERGO    R417079   7.639  18.522   6.415 -0.0845  0.0466  0.0214
 1208ERGO    R517080   7.667  18.736   6.446 -0.1689  0.0853 -0.1592
 1208ERGO    C117081   7.888  18.600   6.725 -0.2293  0.4089  0.0516
 1208ERGO    C217082   7.821  18.263   6.816  0.1117 -0.3848  0.1833
 1209ERGO   ROH17083   1.319   7.456   6.424 -0.0444  0.2169 -0.1569
 1209ERGO    R117084   1.241   7.504   6.692 -0.0787 -0.0283 -0.1205
 1209ERGO    R217085   1.422   7.506   6.902 -0.0914 -0.1287 -0.1065
 1209ERGO    R317086   1.314   7.751   6.948 -0.1870 -0.2054  0.0846
 1209ERGO    R417087   1.433   7.672   7.204  0.1206 -0.2266 -0.0591
 1209ERGO    R517088   1.228   7.737   7.171  0.0466 -0.3320  0.1710
 1209ERGO    C117089   1.339   8.000   7.424  0.1543 -0.3557  0.1478
 1209ERGO    C217090   1.414   8.133   7.668 -0.0023 -0.2624 -0.3397
 1210ERGO   ROH17091   1.055   2.074   9.722 -0.0552 -0.2668 -0.0171
 1210ERGO    R117092   0.922   1.990   9.487  0.0245 -0.1107 -0.1183
 1210ERGO    R217093   0.866   2.163   9.278  0.2799 -0.0194 -0.1094
 1210ERGO    R317094   0.998   1.976   9.131  0.2274 -0.0818 -0.0783
 1210ERGO    R417095   0.829   2.115   8.938  0.1362 -0.1710 -0.0741
 1210ERGO    R517096   0.837   1.900   8.971  0.1584 -0.1599  0.0220
 1210ERGO    C117097   0.931   1.911   8.602  0.0032 -0.3178 -0.0243
 1210ERGO    C217098   0.981   1.971   8.283  0.2149  0.1660  0.0837
 1211ERGO   ROH17099  17.984   6.270  10.093 -0.2893  0.0224  0.0120
 1211ERGO    R117100  17.861   6.272   9.837 -0.1326  0.0841 -0.0631
 1211ERGO    R217101  17.875   6.489   9.667  0.0674  0.0804 -0.0464
 1211ERGO    R317102  17.971   6.305   9.492  0.0913  0.0458  0.0014
 1211ERGO    R417103  17.893   6.532   9.324  0.0018 -0.0216 -0.0636
 1211ERGO    R517104  17.829   6.325   9.300  0.0516 -0.0522  0.0149
 1211ERGO    C117105  17.993   6.383   8.961 -0.0140 -0.1134 -0.0287
 1211ERGO    C217106  18.081   6.456   8.609  0.4723  0.1682 -0.0317
 1212ERGO   ROH17107   2.173   8.237   6.116  0.0304  0.1498 -0.0651
 1212ERGO    R117108   2.099   8.436   6.303  0.0859  0.0649  0.0484
 1212ERGO    R217109   1.839   8.473   6.386  0.0631  0.2233 -0.0862
 1212ERGO    R317110   1.947   8.445   6.634 -0.1137 -0.0710 -0.0384
 1212ERGO    R417111   1.721   8.629   6.671  0.0864  0.1798 -0.0531
 1212ERGO    R517112   1.928   8.663   6.732  0.0949 -0.1101  0.0921
 1212ERGO    C117113   1.755   8.693   7.070 -0.0660 -0.1216  0.0110
 1212ERGO    C217114   1.737   8.482   7.393  0.2023  0.0744  0.4232
 1213ERGO   ROH17115   8.195  16.241   9.119 -0.0152 -0.0740  0.0702
 1213ERGO    R117116   8.132  16.359   8.869 -0.0564 -0.0456  0.0955
 1213ERGO    R217117   8.304  16.349   8.652 -0.1026 -0.0341  0.0673
 1213ERGO    R317118   8.087  16.244   8.527 -0.1318 -0.0044  0.0893
 1213ERGO    R417119   8.245  16.365   8.312 -0.0855 -0.0879  0.0604
 1213ERGO    R517120   8.035  16.402   8.355 -0.0831 -0.0198  0.0524
 1213ERGO    C117121   8.007  16.276   7.996 -0.1029 -0.0913  0.0771
 1213ERGO    C217122   7.906  16.398   7.647 -0.0884  0.0789 -0.2004
 1214ERGO   ROH17123  10.591   0.026   9.666 -0.1278 -0.0395  0.0906
 1214ERGO    R117124  10.577  -0.074   9.401 -0.2041  0.0044  0.0775
 1214ERGO    R217125  10.436   0.056   9.201 -0.0020  0.2090  0.0603
 1214ERGO    R317126  10.674   0.042   9.070  0.0114 -0.0835  0.1087
 1214ERGO    R417127  10.473   0.069   8.858  0.0985  0.3468  0.0760
 1214ERGO    R517128  10.626  -0.086   8.873 -0.1418  0.0998  0.0256
 1214ERGO    C117129  10.717   0.064   8.535  0.1695  0.1524  0.1306
 1214ERGO    C217130  10.708   0.075   8.214 -0.2678  0.0873  0.0747
 1215ERGO   ROH17131  13.956   4.729   9.608 -0.0026 -0.3130  0.1042
 1215ERGO    R117132  14.105   4.838   9.394 -0.1069 -0.1098  0.1328
 1215ERGO    R217133  14.209   4.682   9.191  0.0325  0.0464  0.0826
 1215ERGO    R317134  14.073   4.856   9.032 -0.1321 -0.0295  0.1388
 1215ERGO    R417135  14.214   4.680   8.845 -0.2183 -0.0340  0.0781
 1215ERGO    R517136  14.221   4.897   8.848 -0.2768 -0.0311  0.0204
 1215ERGO    C117137  14.088   4.841   8.495 -0.5190 -0.1521  0.1281
 1215ERGO    C217138  14.044   4.813   8.138 -0.0278 -0.2452 -0.0765
 1216ERGO   ROH17139   3.760   7.864   9.774 -0.1232  0.2059  0.0828
 1216ERGO    R117140   3.556   7.903   9.581 -0.0494  0.1497 -0.0071
 1216ERGO    R217141   3.562   8.112   9.400  0.0056  0.1132 -0.0478
 1216ERGO    R317142   3.535   7.911   9.218  0.0955  0.0737 -0.0179
 1216ERGO    R417143   3.511   8.157   9.061 -0.4540  0.0470  0.0059
 1216ERGO    R517144   3.370   7.991   9.064 -0.2067 -0.1677  0.1697
 1216ERGO    C117145   3.456   7.995   8.693 -0.6373 -0.0286  0.0651
 1216ERGO    C217146   3.372   8.027   8.365  0.2547  0.1065 -0.1114
 1217ERGO   ROH17147  16.051  14.614  10.291 -0.3508 -0.0424 -0.0627
 1217ERGO    R117148  16.172  14.641  10.036 -0.2957  0.1252 -0.0202
 1217ERGO    R217149  16.153  14.447   9.841  0.0949  0.0637 -0.0076
 1217ERGO    R317150  16.061  14.654   9.690 -0.1891 -0.0994 -0.0636
 1217ERGO    R417151  16.160  14.458   9.495  0.4708  0.1518 -0.0013
 1217ERGO    R517152  16.216  14.668   9.508 -0.0029  0.2806  0.1160
 1217ERGO    C117153  16.078  14.658   9.153  0.4232  0.0500 -0.0504
 1217ERGO    C217154  16.018  14.679   8.828  0.1103  0.0564  0.1809
 1218ERGO   ROH17155  13.638  15.627   6.261 -0.0282  0.1307 -0.0845
 1218ERGO    R117156  13.853  15.594   6.443  0.0218  0.1934 -0.1336
 1218ERGO    R217157  13.889  15.760   6.661 -0.0343  0.1431 -0.0899
 1218ERGO    R317158  13.891  15.525   6.798  0.1253  0.0994 -0.1616
 1218ERGO    R417159  14.016  15.719   6.980 -0.3032  0.2134  0.0293
 1218ERGO    R517160  14.099  15.527   6.917  0.0094  0.3333  0.0510
 1218ERGO    C117161  14.090  15.475   7.294 -0.3099  0.2134  0.0315
 1218ERGO    C217162  14.131  15.508   7.552 -0.0367  0.0339  0.2289
 1219ERGO   ROH17163  13.651  12.386   6.206 -0.0053 -0.0054 -0.0240
 1219ERGO    R117164  13.732  12.476   6.462  0.1027  0.0836 -0.0878
 1219ERGO    R217165  13.760  12.745   6.523 -0.0552  0.1159 -0.1381
 1219ERGO    R317166  13.590  12.683   6.726  0.1255  0.0080 -0.0170
 1219ERGO    R417167  13.676  12.958   6.782 -0.1075  0.1056 -0.1471
 1219ERGO    R517168  13.686  12.788   6.918  0.1389  0.1546 -0.1049
 1219ERGO    C117169  13.467  13.024   7.123  0.0316 -0.0017 -0.0387
 1219ERGO    C217170  13.456  13.220   7.218 -0.0924  0.2143 -0.2323
 1220ERGO   ROH17171   1.235   5.028   6.607  0.3454 -0.2020  0.1256
 1220ERGO    R117172   1.194   5.093   6.880  0.1933 -0.1179  0.0847
 1220ERGO    R217173   1.080   4.916   7.059  0.0462 -0.0458  0.0678
 1220ERGO    R317174   1.306   4.966   7.202 -0.0277 -0.0542  0.1883
 1220ERGO    R417175   1.121   4.845   7.395 -0.1790  0.0777  0.1233
 1220ERGO    R517176   1.227   5.034   7.417 -0.1394  0.0545  0.1120
 1220ERGO    C117177   1.358   4.850   7.724 -0.3794  0.1417  0.2688
 1220ERGO    C217178   1.560   4.677   7.891 -0.2380  0.0228  0.1996
 1221ERGO   ROH17179  18.091   2.310  10.091 -0.1500  0.0992 -0.2070
 1221ERGO    R117180  17.935   2.238   9.866  0.0272 -0.1403 -0.2560
 1221ERGO    R217181  17.871   2.418   9.666 -0.2910 -0.1998 -0.2088
 1221ERGO    R317182  17.982   2.228   9.505  0.1128  0.0600 -0.2528
 1221ERGO    R417183  17.814   2.390   9.326 -0.4224 -0.3678 -0.1749
 1221ERGO    R517184  17.807   2.173   9.350  0.1493 -0.4022 -0.1484
 1221ERGO    C117185  17.885   2.197   8.977 -0.1197 -0.2216 -0.1964
 1221ERGO    C217186  17.968   2.245   8.583  0.0623  0.1070 -0.0138
 1222ERGO   ROH17187  10.455   1.817   9.215 -0.2999 -0.2093 -0.0446
 1222ERGO    R117188  10.588   1.858   8.968 -0.2245 -0.2043 -0.0039
 1222ERGO    R217189  10.554   1.690   8.752 -0.2459 -0.1369 -0.0530
 1222ERGO    R317190  10.490   1.920   8.623 -0.1172 -0.0775 -0.0127
 1222ERGO    R417191  10.593   1.743   8.413 -0.1222 -0.0668 -0.0284
 1222ERGO    R517192  10.662   1.945   8.457 -0.0557 -0.1032  0.0451
 1222ERGO    C117193  10.555   1.990   8.094  0.0706  0.0297  0.0238
 1222ERGO    C217194  10.605   2.099   7.692  0.0328  0.0452  0.0840
 1223ERGO   ROH17195  11.351  12.078   9.645 -0.0769 -0.0358 -0.0694
 1223ERGO    R117196  11.584  12.061   9.486 -0.0207 -0.0324  0.0133
 1223ERGO    R217197  11.616  11.870   9.289  0.0577 -0.0398  0.0382
 1223ERGO    R317198  11.665  12.087   9.132  0.1046 -0.0485  0.0392
 1223ERGO    R417199  11.703  11.856   8.955 -0.2118 -0.0559 -0.0347
 1223ERGO    R517200  11.845  12.017   8.990 -0.0546 -0.1691 -0.1137
 1223ERGO    C117201  11.800  12.050   8.613 -0.3247 -0.0735 -0.0760
 1223ERGO    C217202  11.762  12.105   8.292 -0.2533 -0.0496 -0.0043
 1224ERGO   ROH17203   6.876   1.765   9.343  0.3022 -0.0475 -0.0316
 1224ERGO    R117204   7.011   1.716   9.099  0.2240  0.1660 -0.1178
 1224ERGO    R217205   6.896   1.572   8.892  0.3165 -0.0160 -0.0348
 1224ERGO    R317206   6.957   1.794   8.747 -0.1269  0.0825 -0.0888
 1224ERGO    R417207   6.860   1.600   8.550  0.2804 -0.1908 -0.0475
 1224ERGO    R517208   7.050   1.708   8.544  0.0720  0.2063 -0.0598
 1224ERGO    C117209   6.897   1.824   8.214 -0.1569 -0.2001 -0.1057
 1224ERGO    C217210   6.857   1.729   7.862 -0.0409 -0.2311  0.0198
 1225ERGO   ROH17211  17.488  17.227   9.882  0.2973 -0.0194 -0.0933
 1225ERGO    R117212  17.415  17.341   9.633  0.0312 -0.2810 -0.1415
 1225ERGO    R217213  17.600  17.448   9.459 -0.2139  0.2087 -0.1237
 1225ERGO    R317214  17.486  17.276   9.282  0.3081 -0.1775 -0.1053
 1225ERGO    R417215  17.662  17.447   9.119 -0.2654  0.4142 -0.1347
 1225ERGO    R517216  17.449  17.409   9.086 -0.1676 -0.2860 -0.0969
 1225ERGO    C117217  17.591  17.284   8.755  0.1946  0.1710 -0.1239
 1225ERGO    C217218  17.639  17.310   8.430  0.0514 -0.4154  0.1544
 1226ERGO   ROH17219  14.735  10.518   6.428  0.0929  0.1414 -0.0560
 1226ERGO    R117220  14.582  10.532   6.666  0.0942  0.2199 -0.0604
 1226ERGO    R217221  14.526  10.309   6.820 -0.1324  0.2288 -0.1338
 1226ERGO    R317222  14.635  10.460   7.019  0.0043  0.0603 -0.0772
 1226ERGO    R417223  14.493  10.244   7.158 -0.2893  0.1887 -0.1554
 1226ERGO    R517224  14.470  10.458   7.192 -0.0437  0.2170 -0.1155
 1226ERGO    C117225  14.576  10.348   7.541 -0.2524  0.0073 -0.1149
 1226ERGO    C217226  14.709  10.137   7.811  0.0394  0.0161  0.2299
 1227ERGO   ROH17227  10.090   9.816   9.319 -0.0152  0.0584 -0.0404
 1227ERGO    R117228   9.987   9.826   9.055 -0.0051  0.1844 -0.0399
 1227ERGO    R217229  10.113   9.965   8.852  0.2448 -0.0853 -0.0760
 1227ERGO    R317230  10.098   9.725   8.723 -0.1914 -0.0962 -0.0202
 1227ERGO    R417231  10.095   9.926   8.509  0.3017 -0.1339 -0.0735
 1227ERGO    R517232   9.950   9.766   8.540 -0.0419  0.1632 -0.0888
 1227ERGO    C117233  10.071   9.678   8.189 -0.0746 -0.1724 -0.0196
 1227ERGO    C217234   9.957   9.731   7.811 -0.4464 -0.0252  0.0608
 1228ERGO   ROH17235   9.382  13.458   5.669  0.0963  0.0543 -0.0046
 1228ERGO    R117236   9.342  13.383   5.939  0.0934  0.0712 -0.0015
 1228ERGO    R217237   9.513  13.212   6.072  0.0486  0.0252 -0.0144
 1228ERGO    R317238   9.525  13.416   6.252  0.1237  0.0204 -0.0119
 1228ERGO    R417239   9.615  13.179   6.401  0.2172  0.0100 -0.0662
 1228ERGO    R517240   9.455  13.316   6.459  0.2312  0.0000  0.0204
 1228ERGO    C117241   9.685  13.351   6.761  0.3859 -0.0034 -0.0939
 1228ERGO    C217242   9.896  13.451   6.991  0.0788 -0.0783 -0.0737
 1229ERGO   ROH17243  17.974  16.487   6.288  0.1368 -0.1160  0.0041
 1229ERGO    R117244  17.996  16.662   6.510  0.2004 -0.0189 -0.0780
 1229ERGO    R217245  17.875  16.610   6.753  0.0990  0.1872 -0.0820
 1229ERGO    R317246  18.127  16.645   6.849  0.0994  0.0591 -0.0344
 1229ERGO    R417247  17.953  16.682   7.082  0.0804  0.0668 -0.0507
 1229ERGO    R517248  18.105  16.820   7.011  0.1472  0.0243  0.0096
 1229ERGO    C117249  18.234  16.756   7.364  0.0697 -0.1236  0.0120
 1229ERGO    C217250  18.131  16.779   7.657  0.1028 -0.0511 -0.0178
 1230ERGO   ROH17251   5.329  11.322   5.942  0.3814  0.0787 -0.0470
 1230ERGO    R117252   5.455  11.118   6.093  0.2276  0.0024 -0.0196
 1230ERGO    R217253   5.581  11.168   6.333  0.2250 -0.0696 -0.0014
 1230ERGO    R317254   5.415  10.972   6.423  0.0827  0.0414 -0.0192
 1230ERGO    R417255   5.618  11.000   6.633  0.2035 -0.2431 -0.0946
 1230ERGO    R517256   5.561  10.816   6.532 -0.0129 -0.1452 -0.1549
 1230ERGO    C117257   5.485  10.719   6.893  0.0575 -0.2400 -0.1655
 1230ERGO    C217258   5.588  10.895   7.223 -0.0749 -0.0305  0.0459
 1231ERGO   ROH17259  13.723  16.339   9.817  0.0706 -0.1655 -0.0632
 1231ERGO    R117260  13.811  16.430   9.564 -0.0077 -0.0386 -0.0462
 1231ERGO    R217261  13.926  16.261   9.377  0.1098  0.0909 -0.0922
 1231ERGO    R317262  13.731  16.361   9.216  0.0281 -0.0151 -0.0595
 1231ERGO    R417263  13.918  16.229   9.033  0.1998  0.2843 -0.1134
 1231ERGO    R517264  13.847  16.434   9.020 -0.0143  0.2234 -0.0001
 1231ERGO    C117265  13.730  16.303   8.682  0.1755  0.2975 -0.0951
 1231ERGO    C217266  13.699  16.252   8.434  0.2846  0.0253 -0.2588
 1232ERGO   ROH17267   4.366   5.871   6.391  0.4468  0.0631 -0.0663
 1232ERGO    R117268   4.441   5.703   6.606  0.2507  0.0577  0.0021
 1232ERGO    R217269   4.275   5.653   6.822  0.0865  0.1266 -0.0991
 1232ERGO    R317270   4.319   5.393   6.754  0.0518  0.1102 -0.0525
 1232ERGO    R417271   4.293   5.390   7.046  0.2757  0.1945 -0.0355
 1232ERGO    R517272   4.458   5.309   6.929  0.1895  0.1716 -0.1351
 1232ERGO    C117273   4.346   4.994   7.112  0.3532  0.2186  0.0454
 1232ERGO    C217274   4.221   4.673   7.306  0.0987 -0.0011  0.0236
 1233ERGO   ROH17275   4.151  10.750   6.047  0.1159 -0.1480  0.1574
 1233ERGO    R117276   4.301  10.744   6.287  0.1219  0.1286  0.1622
 1233ERGO    R217277   4.281  10.941   6.480 -0.2484  0.0975  0.1557
 1233ERGO    R317278   4.228  10.731   6.643  0.1332 -0.0029  0.1616
 1233ERGO    R417279   4.282  10.954   6.825 -0.5667  0.2007  0.1568
 1233ERGO    R517280   4.379  10.759   6.827 -0.0762  0.4249  0.2844
 1233ERGO    C117281   4.233  10.764   7.180 -0.3938  0.1666  0.1631
 1233ERGO    C217282   4.040  10.633   7.466 -0.0226  0.2037 -0.0702
 1234ERGO   ROH17283  13.197   0.192   5.967 -0.1140  0.0645  0.0842
 1234ERGO    R117284  13.190   0.192   6.250 -0.1755  0.2850  0.0840
 1234ERGO    R217285  13.352   0.027   6.403 -0.4106  0.2003  0.2392
 1234ERGO    R317286  13.425   0.261   6.520 -0.1469  0.2008  0.0828
 1234ERGO    R417287  13.551   0.055   6.684 -0.4673  0.1476  0.2855
 1234ERGO    R517288  13.422   0.215   6.754 -0.2902  0.3766  0.1218
 1234ERGO    C117289  13.736   0.291   6.957 -0.2529  0.1173  0.1657
 1234ERGO    C217290  13.845   0.349   7.276  0.0546  0.0092 -0.0227
 1235ERGO   ROH17291  10.127   9.620   6.072  0.3706  0.0790 -0.0291
 1235ERGO    R117292  10.208   9.434   6.270  0.1363 -0.2012 -0.1907
 1235ERGO    R217293  10.160   9.473   6.539  0.4968 -0.1951 -0.1308
 1235ERGO    R317294  10.045   9.228   6.522 -0.1035  0.0675 -0.1173
 1235ERGO    R417295  10.118   9.256   6.805  0.3980 -0.2496 -0.1891
 1235ERGO    R517296  10.172   9.091   6.672 -0.1729 -0.3166 -0.3818
 1235ERGO    C117297   9.985   8.899   6.943 -0.2231 -0.0349 -0.2103
 1235ERGO    C217298   9.870   8.868   7.374  0.0512 -0.0046 -0.0749
 1236ERGO   ROH17299  15.343   6.614  10.140 -0.0213  0.0851  0.0587
 1236ERGO    R117300  15.335   6.644   9.859 -0.0316  0.1437  0.0658
 1236ERGO    R217301  15.418   6.875   9.730  0.3022  0.0391  0.0909
 1236ERGO    R317302  15.576   6.702   9.592  0.0113 -0.1856  0.0264
 1236ERGO    R417303  15.448   6.866   9.386  0.4447  0.2757  0.0943
 1236ERGO    R517304  15.449   6.649   9.397 -0.0203  0.2481 -0.0865
 1236ERGO    C117305  15.614   6.699   9.056  0.2547  0.2025  0.0357
 1236ERGO    C217306  15.595   6.836   8.849 -0.2703 -0.0809 -0.3255
 1237ERGO   ROH17307   2.333  17.926   5.745 -0.1416  0.0465  0.1727
 1237ERGO    R117308   2.340  18.055   5.997  0.2355  0.0200  0.1818
 1237ERGO    R217309   2.157  18.001   6.196  0.1205  0.4692  0.2096
 1237ERGO    R317310   2.381  17.955   6.344  0.0461 -0.1170  0.1663
 1237ERGO    R417311   2.166  17.988   6.542  0.1833  0.6447  0.2159
 1237ERGO    R517312   2.355  18.097   6.536  0.5242  0.0854  0.0942
 1237ERGO    C117313   2.381  17.938   6.882  0.1500  0.1965  0.1789
 1237ERGO    C217314   2.353  17.696   7.253  0.1854 -0.1501 -0.0275
 1238ERGO   ROH17315  12.471  14.569   9.740  0.1881  0.2386  0.0241
 1238ERGO    R117316  12.475  14.417   9.501  0.0733  0.1143  0.1001
 1238ERGO    R217317  12.244  14.349   9.364  0.0194  0.1921  0.1539
 1238ERGO    R317318  12.372  14.467   9.155  0.0788  0.0043  0.0822
 1238ERGO    R417319  12.147  14.322   9.034 -0.0796  0.1599  0.1848
 1238ERGO    R517320  12.358  14.305   8.979 -0.1050 -0.0479  0.1421
 1238ERGO    C117321  12.211  14.417   8.645 -0.0815 -0.0351  0.1354
 1238ERGO    C217322  11.996  14.301   8.448  0.2111 -0.4410 -0.3706
 1239ERGO   ROH17323  15.164   7.351   9.806  0.0384  0.3764  0.0255
 1239ERGO    R117324  15.256   7.267   9.552  0.0460  0.2515  0.0689
 1239ERGO    R217325  15.097   7.129   9.374  0.0385  0.2014  0.1161
 1239ERGO    R317326  15.167   7.330   9.205  0.0859  0.1164  0.0333
 1239ERGO    R417327  15.182   7.087   9.042  0.2553  0.0147  0.1923
 1239ERGO    R517328  15.339   7.235   9.068  0.1987  0.0765  0.1982
 1239ERGO    C117329  15.297   7.250   8.689  0.4261 -0.1738  0.1588
 1239ERGO    C217330  15.393   7.103   8.378 -0.2710 -0.1477 -0.2217
 1240ERGO   ROH17331   8.762   4.251   5.931  0.0165 -0.1729  0.0048
 1240ERGO    R117332   8.622   4.226   6.176  0.1150 -0.3174  0.0476
 1240ERGO    R217333   8.749   4.172   6.415  0.2457 -0.1806  0.0121
 1240ERGO    R317334   8.619   4.396   6.498  0.0332 -0.3135  0.0447
 1240ERGO    R417335   8.842   4.365   6.686  0.1986 -0.0046 -0.0955
 1240ERGO    R517336   8.630   4.386   6.737  0.2047 -0.2444  0.0397
 1240ERGO    C117337   8.773   4.687   6.922 -0.0283 -0.0270 -0.1275
 1240ERGO    C217338   8.812   4.948   7.113 -0.0213  0.2576 -0.2521
 1241ERGO   ROH17339   3.412   8.147   6.372 -0.1772  0.1708  0.0736
 1241ERGO    R117340   3.364   8.262   6.626 -0.0769  0.0376  0.1534
 1241ERGO    R217341   3.326   8.109   6.853  0.0823 -0.0803  0.1010
 1241ERGO    R317342   3.529   8.262   6.951  0.0911 -0.0717  0.0703
 1241ERGO    R417343   3.472   8.069   7.164  0.0801 -0.0296  0.1091
 1241ERGO    R517344   3.479   8.286   7.183  0.0916 -0.0244  0.0670
 1241ERGO    C117345   3.748   8.189   7.436  0.0871  0.0080  0.0851
 1241ERGO    C217346   3.853   7.935   7.593 -0.1369 -0.3989  0.1351
 1242ERGO   ROH17347  12.261  13.195   9.550 -0.1170 -0.0518 -0.2350
 1242ERGO    R117348  12.289  13.199   9.268 -0.3366 -0.0668 -0.2587
 1242ERGO    R217349  12.104  13.320   9.101 -0.1932  0.4155 -0.0814
 1242ERGO    R317350  12.322  13.453   9.010  0.0637 -0.0849 -0.2323
 1242ERGO    R417351  12.172  13.383   8.768 -0.4168  0.4556 -0.1212
 1242ERGO    R517352  12.382  13.339   8.808 -0.4642 -0.1208 -0.3853
 1242ERGO    C117353  12.417  13.544   8.488 -0.3056  0.0093 -0.2860
 1242ERGO    C217354  12.354  13.579   8.093 -0.0906 -0.2147  0.1459
 1243ERGO   ROH17355  17.720  11.688   6.240 -0.2120  0.2073  0.0641
 1243ERGO    R117356  17.620  11.697   6.505 -0.0311  0.0403  0.1413
 1243ERGO    R217357  17.435  11.517   6.601 -0.1156  0.0967  0.0934
 1243ERGO    R317358  17.620  11.478   6.796 -0.0138 -0.2359 -0.0634
 1243ERGO    R417359  17.362  11.465   6.935  0.0724  0.3785  0.1817
 1243ERGO    R517360  17.531  11.593   6.986  0.4071  0.0346 -0.0176
 1243ERGO    C117361  17.494  11.398   7.312  0.2774  0.2303  0.0858
 1243ERGO    C217362  17.498  11.131   7.621 -0.0508  0.1883  0.1038
 1244ERGO   ROH17363  12.647  12.135   5.741  0.1381  0.1421 -0.0351
 1244ERGO    R117364  12.587  12.131   6.018  0.0416  0.1691 -0.0538
 1244ERGO    R217365  12.770  12.050   6.209 -0.0633  0.0607  0.0137
 1244ERGO    R317366  12.714  12.292   6.318  0.0335  0.0925 -0.0124
 1244ERGO    R417367  12.661  12.102   6.533 -0.2317  0.1395 -0.0557
 1244ERGO    R517368  12.525  12.254   6.458 -0.0754  0.2285 -0.1328
 1244ERGO    C117369  12.546  12.361   6.823 -0.2389  0.2151 -0.1207
 1244ERGO    C217370  12.346  12.371   7.148  0.1739 -0.1779 -0.1314
 1245ERGO   ROH17371   6.341   6.186   6.221  0.0216 -0.0391  0.0106
 1245ERGO    R117372   6.384   6.130   6.495  0.1724  0.0160 -0.0005
 1245ERGO    R217373   6.637   6.122   6.607  0.2263  0.2302 -0.0947
 1245ERGO    R317374   6.530   6.303   6.780  0.1420  0.1586 -0.0718
 1245ERGO    R417375   6.752   6.181   6.928 -0.0357 -0.0108  0.0478
 1245ERGO    R517376   6.545   6.197   6.994 -0.0858  0.0210 -0.1241
 1245ERGO    C117377   6.719   6.385   7.277 -0.2673 -0.2185  0.1522
 1245ERGO    C217378   6.806   6.493   7.688  0.0134  0.1843 -0.1508
 1246ERGO   ROH17379   3.982   1.501   9.547 -0.0830 -0.2712 -0.0566
 1246ERGO    R117380   3.838   1.486   9.304 -0.0566 -0.2802 -0.0721
 1246ERGO    R217381   3.785   1.708   9.148 -0.2950 -0.2365  0.0615
 1246ERGO    R317382   3.902   1.560   8.953 -0.1178  0.0093 -0.0238
 1246ERGO    R417383   3.737   1.755   8.809 -0.3555 -0.1196  0.0856
 1246ERGO    R517384   3.733   1.538   8.785 -0.0918 -0.1105 -0.0304
 1246ERGO    C117385   3.819   1.643   8.429 -0.2243  0.1793  0.0195
 1246ERGO    C217386   3.772   1.595   8.038  0.1669 -0.0822  0.2504
 1247ERGO   ROH17387   6.103  14.984   9.344 -0.1130  0.1065  0.0030
 1247ERGO    R117388   6.151  15.068   9.078 -0.3020  0.0557 -0.0466
 1247ERGO    R217389   6.297  14.918   8.899 -0.1013  0.2044  0.0067
 1247ERGO    R317390   6.076  14.945   8.744 -0.1746 -0.2240  0.0216
 1247ERGO    R417391   6.298  14.919   8.553 -0.0439  0.5807  0.0021
 1247ERGO    R517392   6.149  15.079   8.559 -0.4953  0.1939  0.1699
 1247ERGO    C117393   6.089  14.945   8.206 -0.0794  0.3976  0.0136
 1247ERGO    C217394   6.114  14.930   7.851  0.1495  0.4323  0.1902
 1248ERGO   ROH17395   5.519  14.589   5.520  0.0473  0.3661 -0.0151
 1248ERGO    R117396   5.387  14.738   5.721  0.1818  0.2028  0.1965
 1248ERGO    R217397   5.113  14.721   5.764  0.1764  0.3511  0.2013
 1248ERGO    R317398   5.190  14.663   6.018  0.1596 -0.0397  0.1239
 1248ERGO    R417399   4.904  14.715   6.039  0.2090  0.2380  0.2251
 1248ERGO    R517400   5.061  14.809   6.155  0.3312 -0.0639  0.3212
 1248ERGO    C117401   4.854  14.657   6.437  0.2123 -0.1948  0.1663
 1248ERGO    C217402   4.610  14.620   6.705 -0.1007 -0.0505 -0.0672
 1249ERGO   ROH17403  16.171  12.688  10.156 -0.3182 -0.0905 -0.0323
 1249ERGO    R117404  16.063  12.690   9.894 -0.1604  0.0195 -0.0995
 1249ERGO    R217405  16.062  12.917   9.735  0.1737  0.0259 -0.1117
 1249ERGO    R317406  16.187  12.753   9.558  0.1134 -0.1137 -0.0235
 1249ERGO    R417407  16.019  12.925   9.392  0.2811 -0.0654 -0.1263
 1249ERGO    R517408  16.023  12.708   9.391  0.1380 -0.0615 -0.0542
 1249ERGO    C117409  16.112  12.775   9.027  0.2873 -0.2497 -0.0521
 1249ERGO    C217410  16.078  12.839   8.711  0.0423 -0.1193  0.1494
 1250ERGO   ROH17411  14.428   2.338   6.165  0.2769  0.0705  0.1351
 1250ERGO    R117412  14.275   2.536   6.299  0.2433  0.0618  0.1095
 1250ERGO    R217413  14.078   2.473   6.482  0.0823  0.0443 -0.0671
 1250ERGO    R317414  14.220   2.640   6.643  0.0187 -0.0764  0.1178
 1250ERGO    R417415  13.947   2.649   6.749 -0.0304 -0.1400  0.0014
 1250ERGO    R517416  14.069   2.820   6.690  0.0058 -0.1020  0.1781
 1250ERGO    C117417  14.003   2.909   7.055 -0.1556 -0.3605  0.2148
 1250ERGO    C217418  13.775   3.097   7.253 -0.0568  0.0230 -0.1696
 1251ERGO   ROH17419   3.791  10.174   9.771 -0.2208  0.1840  0.1507
 1251ERGO    R117420   3.608  10.242   9.567 -0.1931  0.1838  0.1264
 1251ERGO    R217421   3.675  10.408   9.356 -0.1499  0.1419  0.1098
 1251ERGO    R317422   3.586  10.200   9.206 -0.1720  0.1360  0.1300
 1251ERGO    R417423   3.683  10.397   9.011  0.0364  0.0264  0.1158
 1251ERGO    R517424   3.486  10.304   9.015 -0.0152  0.1263  0.0389
 1251ERGO    C117425   3.604  10.195   8.669  0.1242 -0.0464  0.1383
 1251ERGO    C217426   3.644  10.308   8.368 -0.2299 -0.3077 -0.1601
 1252ERGO   ROH17427   3.773  11.985   5.832 -0.1276  0.2517  0.0670
 1252ERGO    R117428   3.746  11.955   6.112 -0.1318 -0.0223  0.0387
 1252ERGO    R217429   3.703  11.710   6.232  0.1372 -0.1740 -0.1812
 1252ERGO    R317430   3.922  11.780   6.378  0.0360 -0.0485 -0.0847
 1252ERGO    R417431   3.726  11.683   6.575 -0.0520 -0.0591 -0.1572
 1252ERGO    R517432   3.830  11.876   6.578 -0.1175 -0.0135 -0.1628
 1252ERGO    C117433   3.945  11.733   6.913 -0.2571  0.1256 -0.0528
 1252ERGO    C217434   4.051  11.800   7.182  0.2043 -0.0861  0.0260
 1253ERGO   ROH17435   0.453   8.472   5.908 -0.1126 -0.1539  0.0389
 1253ERGO    R117436   0.529   8.557   6.167 -0.1236 -0.0175 -0.0036
 1253ERGO    R217437   0.346   8.640   6.356 -0.1474 -0.1364  0.0155
 1253ERGO    R317438   0.468   8.451   6.510  0.0633  0.0168  0.0441
 1253ERGO    R417439   0.322   8.621   6.701 -0.2839 -0.2035  0.0038
 1253ERGO    R517440   0.534   8.570   6.707 -0.1991  0.1034  0.0921
 1253ERGO    C117441   0.422   8.432   7.045 -0.1656 -0.0986  0.0238
 1253ERGO    C217442   0.460   8.504   7.431  0.3955 -0.1660  0.1378
 1254ERGO   ROH17443   6.998  16.910   8.914  0.1803 -0.1437 -0.1071
 1254ERGO    R117444   6.887  16.949   8.657  0.1820 -0.0251 -0.0894
 1254ERGO    R217445   6.744  17.175   8.589  0.2182  0.0188  0.0048
 1254ERGO    R317446   6.924  17.189   8.386  0.2110  0.0755  0.0004
 1254ERGO    R417447   6.673  17.291   8.271  0.2505  0.3329  0.1073
 1254ERGO    R517448   6.797  17.130   8.191  0.1470  0.3147 -0.0400
 1254ERGO    C117449   6.801  17.371   7.895  0.2626  0.5690  0.1629
 1254ERGO    C217450   6.880  17.265   7.639  0.0595 -0.1012  0.0470
 1255ERGO   ROH17451   3.272  11.200   6.165  0.3488  0.1129 -0.0526
 1255ERGO    R117452   3.319  11.024   6.381  0.2168  0.1808  0.0334
 1255ERGO    R217453   3.362  11.113   6.639 -0.1049  0.2568  0.0680
 1255ERGO    R317454   3.158  10.944   6.698 -0.0788  0.1570 -0.1210
 1255ERGO    R417455   3.271  11.017   6.959 -0.1869 -0.0104 -0.0327
 1255ERGO    R517456   3.239  10.815   6.883 -0.1087  0.0393 -0.1924
 1255ERGO    C117457   3.026  10.803   7.200 -0.2102 -0.2597 -0.2686
 1255ERGO    C217458   3.092  10.801   7.551  0.2683  0.0891  0.1658
 1256ERGO   ROH17459  10.271   4.313   5.926  0.3931  0.1241  0.1207
 1256ERGO    R117460  10.253   4.416   6.189  0.1350  0.1618  0.0930
 1256ERGO    R217461  10.023   4.397   6.342  0.0782 -0.1045 -0.0069
 1256ERGO    R317462  10.191   4.282   6.522  0.1516  0.1480  0.0883
 1256ERGO    R417463   9.975   4.394   6.684 -0.0429 -0.0813 -0.0244
 1256ERGO    R517464  10.188   4.430   6.710 -0.1003  0.1872  0.0507
 1256ERGO    C117465  10.105   4.284   7.053 -0.0447  0.1694  0.0549
 1256ERGO    C217466  10.218   4.116   7.402  0.1737  0.3584 -0.1549
 1257ERGO   ROH17467   6.680   9.815   5.946 -0.0177  0.1054 -0.0746
 1257ERGO    R117468   6.677   9.922   6.208 -0.1004  0.2031 -0.1155
 1257ERGO    R217469   6.457  10.050   6.314 -0.2411 -0.0334 -0.1240
 1257ERGO    R317470   6.488   9.869   6.514  0.0260  0.0813 -0.0562
 1257ERGO    R417471   6.343  10.093   6.637 -0.4395 -0.1318 -0.1788
 1257ERGO    R517472   6.529  10.003   6.709 -0.2874  0.2293 -0.0826
 1257ERGO    C117473   6.306   9.948   7.014 -0.3043 -0.0817 -0.1471
 1257ERGO    C217474   5.973   9.863   7.188  0.1224  0.3178 -0.0713
 1258ERGO   ROH17475  11.295  13.441   5.799  0.2670 -0.1082  0.1286
 1258ERGO    R117476  11.102  13.395   6.000  0.1975 -0.1065  0.0636
 1258ERGO    R217477  11.033  13.141   6.084  0.1461 -0.1098  0.0228
 1258ERGO    R317478  11.096  13.240   6.330  0.0799 -0.1325  0.0484
 1258ERGO    R417479  10.934  13.001   6.385  0.1455 -0.1839 -0.0121
 1258ERGO    R517480  10.898  13.203   6.461  0.0755 -0.2103  0.0151
 1258ERGO    C117481  10.934  13.013   6.790  0.0831 -0.2485 -0.0083
 1258ERGO    C217482  11.062  12.769   7.014 -0.1560 -0.2757  0.0991
 1259ERGO   ROH17483  12.581   0.224   9.724 -0.2374 -0.1592 -0.1078
 1259ERGO    R117484  12.668   0.095   9.487 -0.0486 -0.0928 -0.0752
 1259ERGO    R217485  12.509   0.076   9.262  0.0366 -0.2521 -0.1131
 1259ERGO    R317486  12.724   0.189   9.140 -0.0320 -0.0637 -0.0674
 1259ERGO    R417487  12.554   0.093   8.920  0.0536 -0.1713 -0.1081
 1259ERGO    R517488  12.766   0.047   8.951  0.0963 -0.0141 -0.0866
 1259ERGO    C117489  12.783   0.209   8.606 -0.0009  0.0525 -0.0621
 1259ERGO    C217490  12.788   0.137   8.171 -0.0926 -0.0862 -0.2442
 1260ERGO   ROH17491  10.788  15.791   5.816 -0.2356  0.0024 -0.0018
 1260ERGO    R117492  10.784  15.865   6.089  0.0213 -0.0151  0.0084
 1260ERGO    R217493  10.590  15.777   6.265  0.0299  0.1919  0.1214
 1260ERGO    R317494  10.804  15.695   6.410  0.0291 -0.0653 -0.0179
 1260ERGO    R417495  10.590  15.731   6.607  0.1923  0.2019  0.1234
 1260ERGO    R517496  10.790  15.819   6.614  0.3105 -0.0369 -0.0085
 1260ERGO    C117497  10.792  15.626   6.943  0.2861 -0.0338 -0.0062
 1260ERGO    C217498  11.104  15.493   7.256 -0.0576  0.1439 -0.2242
 1261ERGO   ROH17499   6.653  18.066   9.013  0.0914 -0.1606 -0.0819
 1261ERGO    R117500   6.768  18.187   8.784  0.1314 -0.1991 -0.0829
 1261ERGO    R217501   6.842  18.042   8.560 -0.0811 -0.2044 -0.1542
 1261ERGO    R317502   6.682  18.220   8.431  0.0434 -0.0100 -0.0451
 1261ERGO    R417503   6.865  18.120   8.224 -0.1256 -0.1296 -0.1395
 1261ERGO    R517504   6.828  18.329   8.276  0.0949 -0.1063 -0.0650
 1261ERGO    C117505   6.727  18.332   7.908 -0.0348  0.0963 -0.0286
 1261ERGO    C217506   6.759  18.464   7.618 -0.2593  0.0879  0.3059
 1262ERGO   ROH17507   6.391   1.773   5.965  0.3124 -0.0892 -0.0799
 1262ERGO    R117508   6.317   1.541   6.110  0.0721 -0.0306 -0.1014
 1262ERGO    R217509   6.494   1.405   6.272 -0.0488 -0.2617 -0.1480
 1262ERGO    R317510   6.300   1.442   6.459  0.0224 -0.0595 -0.1138
 1262ERGO    R417511   6.458   1.216   6.559 -0.0245 -0.0225  0.0151
 1262ERGO    R517512   6.242   1.221   6.529 -0.0259  0.0179  0.0815
 1262ERGO    C117513   6.255   1.140   6.901  0.0565  0.3066  0.1422
 1262ERGO    C217514   6.375   1.264   7.215  0.0705  0.3261 -0.0450
 1263ERGO   ROH17515   8.638  15.169   6.033  0.0091  0.0641 -0.0192
 1263ERGO    R117516   8.610  15.152   6.314 -0.1223  0.1832 -0.0232
 1263ERGO    R217517   8.813  15.059   6.478 -0.3321 -0.1230  0.0738
 1263ERGO    R317518   8.774  15.296   6.605  0.0252 -0.0167 -0.0057
 1263ERGO    R417519   8.835  15.106   6.820 -0.2861 -0.0435  0.0600
 1263ERGO    R517520   8.662  15.237   6.808 -0.0841  0.2243  0.0056
 1263ERGO    C117521   8.812  15.355   7.138  0.0760  0.1026 -0.0227
 1263ERGO    C217522   8.887  15.444   7.470 -0.2682 -0.1829 -0.1045
 1264ERGO   ROH17523   7.533   9.827   9.421  0.2919 -0.0663  0.0263
 1264ERGO    R117524   7.499   9.647   9.205  0.1729 -0.0082 -0.0058
 1264ERGO    R217525   7.255   9.603   9.085  0.1202  0.0909  0.0558
 1264ERGO    R317526   7.391   9.667   8.858  0.0727  0.1048  0.0322
 1264ERGO    R417527   7.166   9.502   8.766  0.1928 -0.0918  0.0928
 1264ERGO    R517528   7.377   9.469   8.723  0.2153  0.0453  0.1055
 1264ERGO    C117529   7.242   9.504   8.368  0.1903 -0.1853  0.0924
 1264ERGO    C217530   7.219   9.438   8.077  0.3033  0.2469  0.2042
 1265ERGO   ROH17531  17.884  16.927   9.873 -0.1359 -0.0759 -0.0416
 1265ERGO    R117532  17.794  16.979   9.609 -0.1452 -0.1496 -0.0528
 1265ERGO    R217533  17.963  17.071   9.411 -0.1978 -0.0060 -0.0279
 1265ERGO    R317534  17.870  16.855   9.276  0.0031 -0.0833 -0.0457
 1265ERGO    R417535  17.902  17.061   9.070 -0.1868 -0.0260 -0.0293
 1265ERGO    R517536  17.722  16.946   9.111 -0.0841 -0.2005 -0.0376
 1265ERGO    C117537  17.780  16.852   8.746  0.0083 -0.1105 -0.0468
 1265ERGO    C217538  17.867  16.832   8.431 -0.0894 -0.3653 -0.1930
 1266ERGO   ROH17539   0.983  12.481   5.955 -0.2747 -0.0738 -0.1104
 1266ERGO    R117540   0.983  12.444   6.236 -0.0668  0.1534 -0.0762
 1266ERGO    R217541   0.871  12.627   6.409 -0.1744  0.1699 -0.1611
 1266ERGO    R317542   0.732  12.410   6.498  0.1225  0.0784  0.0980
 1266ERGO    R417543   0.631  12.634   6.659 -0.1929  0.1452 -0.1786
 1266ERGO    R517544   0.712  12.445   6.734  0.0695  0.3411  0.0577
 1266ERGO    C117545   0.362  12.434   6.887  0.0749  0.0450  0.0545
 1266ERGO    C217546   0.140  12.520   7.182 -0.0044 -0.1494  0.1024
 1267ERGO   ROH17547   6.298  16.134   9.313 -0.0051  0.1426 -0.1272
 1267ERGO    R117548   6.176  16.121   9.057  0.0588  0.1232 -0.1569
 1267ERGO    R217549   6.169  16.336   8.884  0.1018  0.1101 -0.1748
 1267ERGO    R317550   6.283  16.160   8.712  0.1452  0.0977 -0.1337
 1267ERGO    R417551   6.181  16.376   8.541  0.0463  0.0121 -0.1884
 1267ERGO    R517552   6.139  16.164   8.520  0.1200 -0.0115 -0.1184
 1267ERGO    C117553   6.295  16.234   8.179  0.0548 -0.0567 -0.1576
 1267ERGO    C217554   6.263  16.367   7.938 -0.0929  0.0070 -0.0165
 1268ERGO   ROH17555  17.419  12.710   6.195 -0.3145  0.1440 -0.1168
 1268ERGO    R117556  17.341  12.727   6.467 -0.1300  0.1746 -0.0630
 1268ERGO    R217557  17.237  12.512   6.606 -0.2507  0.2452 -0.0328
 1268ERGO    R317558  17.438  12.570   6.780 -0.0808  0.0282 -0.1519
 1268ERGO    R417559  17.205  12.515   6.950  0.0051  0.1390 -0.0069
 1268ERGO    R517560  17.330  12.693   6.955  0.1408  0.0407 -0.0257
 1268ERGO    C117561  17.375  12.571   7.314  0.3132 -0.1265 -0.1036
 1268ERGO    C217562  17.507  12.371   7.665 -0.1978 -0.2327 -0.1771
 1269ERGO   ROH17563  18.109   0.246   9.888  0.0577 -0.1316 -0.2662
 1269ERGO    R117564  18.009   0.368   9.653  0.0635 -0.0077 -0.2053
 1269ERGO    R217565  18.172   0.440   9.442  0.0535 -0.0048 -0.2133
 1269ERGO    R317566  17.998   0.289   9.298 -0.0398  0.1180 -0.2307
 1269ERGO    R417567  18.132   0.458   9.099  0.0915  0.0304 -0.2157
 1269ERGO    R517568  17.917   0.437   9.128  0.0750  0.1776 -0.2333
 1269ERGO    C117569  17.946   0.326   8.765  0.0259  0.1662 -0.2334
 1269ERGO    C217570  17.991   0.376   8.383 -0.1443  0.0328 -0.2199
 1270ERGO   ROH17571  15.856   6.856   6.346 -0.1919 -0.0727 -0.0820
 1270ERGO    R117572  15.751   6.844   6.609 -0.0051 -0.0500 -0.0055
 1270ERGO    R217573  15.910   6.874   6.833  0.1453  0.0315 -0.1215
 1270ERGO    R317574  15.729   7.068   6.895  0.1392 -0.0025 -0.0304
 1270ERGO    R417575  15.809   6.957   7.154  0.0838 -0.1767 -0.0855
 1270ERGO    R517576  15.606   6.978   7.079  0.0991 -0.1214 -0.1134
 1270ERGO    C117577  15.581   7.187   7.397  0.0423 -0.3299  0.0209
 1270ERGO    C217578  15.652   7.465   7.633  0.0478  0.1632  0.1971
 1271ERGO   ROH17579   2.173  13.275   5.883  0.0788  0.1864 -0.1205
 1271ERGO    R117580   2.188  13.454   6.102  0.0842  0.0901 -0.0431
 1271ERGO    R217581   2.070  13.399   6.347  0.2573 -0.1055 -0.0056
 1271ERGO    R317582   2.321  13.445   6.441  0.2799  0.0156 -0.1186
 1271ERGO    R417583   2.146  13.600   6.617  0.2422 -0.2975  0.1442
 1271ERGO    R517584   2.318  13.675   6.507  0.1174 -0.0421  0.1026
 1271ERGO    C117585   2.426  13.760   6.863  0.2547 -0.2956  0.1254
 1271ERGO    C217586   2.452  13.716   7.273  0.0611 -0.3208 -0.0992
 1272ERGO   ROH17587  18.005   9.734   6.405  0.0924  0.0247 -0.0704
 1272ERGO    R117588  18.193   9.718   6.616  0.0469  0.1688 -0.0171
 1272ERGO    R217589  18.217   9.913   6.810 -0.2955  0.0953  0.1082
 1272ERGO    R317590  18.183   9.704   6.979 -0.0600 -0.0574 -0.0279
 1272ERGO    R417591  18.336   9.900   7.134 -0.2254 -0.0163  0.0785
 1272ERGO    R517592  18.389   9.691   7.101 -0.0270  0.0576 -0.0746
 1272ERGO    C117593  18.373   9.696   7.482  0.0363 -0.2247 -0.0666
 1272ERGO    C217594  18.280   9.706   7.688  0.0176  0.1423  0.4915
 1273ERGO   ROH17595   0.029   1.987   6.075 -0.0313  0.1319 -0.0182
 1273ERGO    R117596   0.161   1.832   6.272  0.0304  0.1954 -0.0089
 1273ERGO    R217597   0.256   1.940   6.507 -0.0759  0.2346  0.0190
 1273ERGO    R317598   0.106   1.744   6.620  0.0225  0.1321 -0.0266
 1273ERGO    R417599   0.228   1.885   6.847  0.1838 -0.0526 -0.0024
 1273ERGO    R517600   0.236   1.670   6.808  0.1673 -0.0181 -0.1854
 1273ERGO    C117601   0.071   1.668   7.151  0.4274 -0.3159 -0.0577
 1273ERGO    C217602   0.012   1.762   7.553  0.1006 -0.0931  0.0536
 1274ERGO   ROH17603   0.553   9.539   5.925  0.0070 -0.0478  0.1358
 1274ERGO    R117604   0.590   9.526   6.205  0.0748  0.0419  0.1328
 1274ERGO    R217605   0.447   9.683   6.382 -0.0250 -0.0365  0.1318
 1274ERGO    R317606   0.385   9.444   6.495  0.1975 -0.0682  0.1871
 1274ERGO    R417607   0.302   9.643   6.693 -0.2102 -0.0947  0.0385
 1274ERGO    R517608   0.434   9.473   6.727 -0.0181  0.0920  0.2106
 1274ERGO    C117609   0.160   9.395   6.980 -0.1093 -0.1583  0.0360
 1274ERGO    C217610  -0.135   9.349   7.173  0.0747 -0.0511  0.1273
 1275ERGO   ROH17611   5.347   0.160   5.524 -0.2410  0.1217 -0.0621
 1275ERGO    R117612   5.131   0.181   5.706 -0.2038 -0.0325  0.0013
 1275ERGO    R217613   5.037  -0.035   5.850  0.0155 -0.0934  0.0553
 1275ERGO    R317614   5.080   0.129   6.062 -0.0539 -0.0334  0.0239
 1275ERGO    R417615   4.877  -0.060   6.155 -0.0576 -0.0346  0.0226
 1275ERGO    R517616   4.864   0.157   6.161 -0.0832 -0.0324 -0.0367
 1275ERGO    C117617   4.825   0.079   6.533 -0.1652  0.0562 -0.0260
 1275ERGO    C217618   4.727  -0.033   6.872  0.3125  0.1352  0.3228
 1276ERGO   ROH17619  16.852  13.838   6.336 -0.1728 -0.1175 -0.0405
 1276ERGO    R117620  17.029  13.764   6.545 -0.0873 -0.0242 -0.0787
 1276ERGO    R217621  17.085  13.930   6.758 -0.0774  0.0327 -0.1229
 1276ERGO    R317622  17.007  13.714   6.904  0.0326  0.0325 -0.0639
 1276ERGO    R417623  17.194  13.858   7.078 -0.0744  0.1929 -0.0873
 1276ERGO    R517624  17.205  13.648   7.022  0.0555  0.1832 -0.0191
 1276ERGO    C117625  17.185  13.615   7.402  0.0306  0.2861 -0.0111
 1276ERGO    C217626  17.396  13.556   7.703  0.0872 -0.0872  0.1258
 1277ERGO   ROH17627   7.438   8.558   6.432 -0.0682 -0.0364 -0.0087
 1277ERGO    R117628   7.435   8.489   6.707  0.0896  0.0516  0.0165
 1277ERGO    R217629   7.652   8.531   6.873  0.1455  0.2151 -0.0929
 1277ERGO    R317630   7.469   8.665   7.023  0.1449  0.1737 -0.0568
 1277ERGO    R417631   7.707   8.648   7.194  0.1212  0.0779 -0.0380
 1277ERGO    R517632   7.505   8.585   7.246  0.1101  0.0793 -0.0859
 1277ERGO    C117633   7.568   8.841   7.521  0.1064 -0.0407  0.0279
 1277ERGO    C217634   7.410   9.022   7.740 -0.1912  0.0770  0.1347
 1278ERGO   ROH17635   4.263   9.791   6.130 -0.1509 -0.1451  0.0051
 1278ERGO    R117636   4.467   9.760   6.324  0.0054 -0.0504 -0.1408
 1278ERGO    R217637   4.669   9.946   6.357 -0.1553  0.1373 -0.1668
 1278ERGO    R317638   4.584   9.944   6.615  0.0051 -0.0943 -0.1136
 1278ERGO    R417639   4.862  10.031   6.631  0.0592 -0.2527 -0.1906
 1278ERGO    R517640   4.772   9.866   6.740  0.0450 -0.3245 -0.3113
 1278ERGO    C117641   4.895  10.079   7.032  0.3346 -0.6972 -0.1546
 1278ERGO    C217642   4.989  10.187   7.365  0.2515  0.2498  0.0196
 1279ERGO   ROH17643   2.728  13.536   9.381  0.1158 -0.1714 -0.0692
 1279ERGO    R117644   2.748  13.624   9.113  0.0785  0.0112 -0.0136
 1279ERGO    R217645   2.863  13.471   8.914  0.0291  0.1352 -0.1407
 1279ERGO    R317646   2.626  13.515   8.789  0.0115  0.2459 -0.0695
 1279ERGO    R417647   2.815  13.456   8.572 -0.0803  0.1498 -0.1258
 1279ERGO    R517648   2.685  13.631   8.588  0.0074  0.2128 -0.0900
 1279ERGO    C117649   2.564  13.488   8.255 -0.1605  0.2623 -0.0502
 1279ERGO    C217650   2.715  13.306   8.031  0.2235  0.0001  0.0458
 1280ERGO   ROH17651   5.161   6.159   9.259  0.4274 -0.0532 -0.0963
 1280ERGO    R117652   5.082   6.270   9.011  0.3739 -0.0362 -0.0701
 1280ERGO    R217653   5.262   6.380   8.833  0.3477 -0.1494 -0.1556
 1280ERGO    R317654   5.148   6.205   8.659  0.1791 -0.1008 -0.0984
 1280ERGO    R417655   5.316   6.379   8.492  0.3347 -0.2822 -0.1590
 1280ERGO    R517656   5.103   6.337   8.464  0.2851 -0.1036 -0.1332
 1280ERGO    C117657   5.240   6.215   8.129  0.1689 -0.3139 -0.1073
 1280ERGO    C217658   5.373   6.196   7.788 -0.0150  0.0036  0.0003
 1281ERGO   ROH17659   3.054  12.260   9.494 -0.0008  0.1440 -0.1214
 1281ERGO    R117660   3.126  12.157   9.241 -0.0158  0.1189 -0.1153
 1281ERGO    R217661   2.950  12.017   9.081  0.0004  0.0318 -0.0538
 1281ERGO    R317662   3.019  12.204   8.896 -0.0957  0.0168 -0.1057
 1281ERGO    R417663   2.947  11.966   8.739 -0.1759 -0.0051 -0.0477
 1281ERGO    R517664   3.133  12.078   8.726 -0.1801 -0.0021 -0.1527
 1281ERGO    C117665   3.011  12.111   8.366 -0.3687 -0.0405 -0.0929
 1281ERGO    C217666   3.192  12.192   8.043  0.0333  0.0292 -0.0553
 1282ERGO   ROH17667  10.655  12.697   9.090 -0.0619 -0.0072  0.0854
 1282ERGO    R117668  10.708  12.518   8.878  0.0132 -0.0397  0.1326
 1282ERGO    R217669  10.607  12.554   8.623  0.0156 -0.1373  0.1234
 1282ERGO    R317670  10.869  12.534   8.552  0.0261 -0.0663  0.1358
 1282ERGO    R417671  10.720  12.461   8.310  0.0464  0.0815  0.0665
 1282ERGO    R517672  10.876  12.344   8.406  0.0510  0.0265  0.0065
 1282ERGO    C117673  11.030  12.388   8.060  0.0741  0.2757  0.0451
 1282ERGO    C217674  11.201  12.174   7.783  0.1010  0.0830 -0.0537
 1283ERGO   ROH17675  17.915   0.684  10.036  0.1979 -0.0954 -0.0301
 1283ERGO    R117676  17.777   0.704   9.789  0.0297  0.0661  0.0761
 1283ERGO    R217677  17.771   0.936   9.640  0.2938  0.0363  0.0293
 1283ERGO    R317678  17.864   0.774   9.443 -0.1338 -0.1669 -0.0170
 1283ERGO    R417679  17.729   0.993   9.302  0.4487  0.2774  0.0465
 1283ERGO    R517680  17.692   0.779   9.276 -0.1364  0.3606 -0.0236
 1283ERGO    C117681  17.791   0.873   8.920  0.1371  0.2271  0.0130
 1283ERGO    C217682  17.691   0.784   8.543 -0.0289 -0.1688  0.2983
 1284ERGO   ROH17683  11.276   5.021   9.613  0.0472 -0.0080 -0.0501
 1284ERGO    R117684  11.142   5.072   9.369  0.0841  0.0957 -0.0491
 1284ERGO    R217685  11.232   5.259   9.186  0.2480  0.0020 -0.0656
 1284ERGO    R317686  11.221   5.049   9.014  0.0511 -0.0019 -0.0510
 1284ERGO    R417687  11.179   5.284   8.846  0.4075  0.0460 -0.0879
 1284ERGO    R517688  11.051   5.109   8.857  0.1807  0.2017 -0.1204
 1284ERGO    C117689  11.138   5.102   8.486  0.3155  0.0679 -0.0872
 1284ERGO    C217690  11.175   5.144   8.117  0.1693  0.1819 -0.2025
 1285ERGO   ROH17691   7.430  11.448   5.848  0.5401 -0.0824 -0.0752
 1285ERGO    R117692   7.599  11.459   6.075  0.2780  0.0646  0.1189
 1285ERGO    R217693   7.545  11.620   6.294 -0.1919 -0.0944  0.1329
 1285ERGO    R317694   7.569  11.387   6.430 -0.0179 -0.1210  0.0598
 1285ERGO    R417695   7.527  11.589   6.637 -0.3976 -0.2446  0.1099
 1285ERGO    R517696   7.690  11.445   6.628 -0.2227 -0.0543  0.1673
 1285ERGO    C117697   7.539  11.351   6.966 -0.3540 -0.3570  0.0279
 1285ERGO    C217698   7.423  11.260   7.311  0.0729 -0.2667 -0.0986
 1286ERGO   ROH17699   7.847  10.607   5.894  0.0602 -0.0770  0.0371
 1286ERGO    R117700   8.027  10.510   6.090  0.2157 -0.0196 -0.0750
 1286ERGO    R217701   8.292  10.585   6.099  0.1058  0.3776 -0.0054
 1286ERGO    R317702   8.231  10.652   6.356  0.0075  0.0076  0.0733
 1286ERGO    R417703   8.518  10.591   6.361  0.0805  0.3239  0.0179
 1286ERGO    R517704   8.365  10.504   6.489  0.1654 -0.0035 -0.0921
 1286ERGO    C117705   8.592  10.657   6.754 -0.0263 -0.0549  0.1054
 1286ERGO    C217706   8.642  10.889   6.957  0.0079  0.0093  0.0822
 1287ERGO   ROH17707   8.867   6.575   9.636 -0.0105 -0.0995  0.0942
 1287ERGO    R117708   8.925   6.474   9.378  0.0445  0.0489  0.0490
 1287ERGO    R217709   8.729   6.380   9.207  0.1168 -0.1550  0.0879
 1287ERGO    R317710   8.839   6.559   9.035 -0.1669  0.0342  0.0948
 1287ERGO    R417711   8.696   6.368   8.863  0.2195 -0.2727  0.0801
 1287ERGO    R517712   8.906   6.427   8.846  0.1300  0.1187  0.1283
 1287ERGO    C117713   8.780   6.530   8.501  0.0130 -0.1636  0.0820
 1287ERGO    C217714   8.810   6.470   8.216  0.0175  0.1124  0.3616
 1288ERGO   ROH17715  10.880  14.846   9.057 -0.0356 -0.1108 -0.0004
 1288ERGO    R117716  10.966  14.755   8.804 -0.0222 -0.1115  0.0047
 1288ERGO    R217717  10.789  14.691   8.601 -0.0064 -0.0090 -0.0382
 1288ERGO    R317718  10.938  14.869   8.459  0.0964 -0.0535  0.0123
 1288ERGO    R417719  10.795  14.712   8.256  0.0342  0.0454 -0.0343
 1288ERGO    R517720  11.011  14.745   8.267  0.0552 -0.0604 -0.0037
 1288ERGO    C117721  10.939  14.891   7.922  0.1544  0.0353  0.0155
 1288ERGO    C217722  10.766  14.897   7.560  0.1592  0.1010  0.1021
 1289ERGO   ROH17723  15.193   0.091   9.750  0.1189 -0.0963  0.0181
 1289ERGO    R117724  15.283   0.227   9.518  0.0824 -0.1190 -0.0099
 1289ERGO    R217725  15.486   0.130   9.358  0.0319 -0.1567 -0.0576
 1289ERGO    R317726  15.300   0.158   9.162 -0.0158 -0.1394 -0.0096
 1289ERGO    R417727  15.552   0.121   9.019 -0.0796 -0.2485 -0.0773
 1289ERGO    R517728  15.411   0.283   8.991 -0.0323 -0.2132 -0.0700
 1289ERGO    C117729  15.416   0.141   8.637 -0.1892 -0.2857 -0.0436
 1289ERGO    C217730  15.435   0.205   8.217 -0.1040  0.2481 -0.1050
 1290ERGO   ROH17731  18.590   8.742   9.663  0.0801  0.2571 -0.1641
 1290ERGO    R117732  18.499   8.675   9.403  0.1725 -0.0096 -0.1307
 1290ERGO    R217733  18.488   8.859   9.197 -0.3785 -0.0419 -0.1452
 1290ERGO    R317734  18.638   8.673   9.067  0.0852  0.3312 -0.1721
 1290ERGO    R417735  18.487   8.808   8.855 -0.4415 -0.1537 -0.1288
 1290ERGO    R517736  18.495   8.593   8.892  0.1939 -0.1360 -0.0607
 1290ERGO    C117737  18.627   8.603   8.534 -0.0427  0.1314 -0.1444
 1290ERGO    C217738  18.647   8.593   8.139 -0.2214 -0.1708  0.1393
 1291ERGO   ROH17739  17.121   3.498   6.688 -0.1027 -0.1184  0.0025
 1291ERGO    R117740  17.295   3.464   6.908 -0.0242  0.0144 -0.0376
 1291ERGO    R217741  17.547   3.578   6.918 -0.0642  0.1161 -0.1446
 1291ERGO    R317742  17.456   3.679   7.154 -0.0357  0.1504 -0.1484
 1291ERGO    R417743  17.742   3.638   7.197 -0.1018 -0.2199 -0.0419
 1291ERGO    R517744  17.580   3.562   7.321 -0.2484 -0.0620 -0.1344
 1291ERGO    C117745  17.771   3.767   7.580 -0.0971 -0.3834  0.0144
 1291ERGO    C217746  18.075   3.844   7.695  0.2188  0.2598 -0.1048
 1292ERGO   ROH17747   3.212   6.644   6.245 -0.1017 -0.0451  0.1474
 1292ERGO    R117748   3.422   6.555   6.412 -0.0502 -0.0461  0.0799
 1292ERGO    R217749   3.526   6.710   6.617 -0.0939 -0.1108  0.1402
 1292ERGO    R317750   3.468   6.492   6.768  0.0173 -0.2093  0.0455
 1292ERGO    R417751   3.655   6.648   6.931 -0.2424 -0.0445  0.2166
 1292ERGO    R517752   3.675   6.438   6.876  0.0084 -0.0219  0.1745
 1292ERGO    C117753   3.676   6.407   7.256 -0.2244 -0.0984  0.1721
 1292ERGO    C217754   3.674   6.246   7.600 -0.1364  0.1990  0.2506
 1293ERGO   ROH17755  16.872  17.955   9.721 -0.2174 -0.1658  0.0427
 1293ERGO    R117756  16.797  18.125   9.508 -0.1303 -0.1415  0.0314
 1293ERGO    R217757  16.979  18.281   9.370 -0.0683 -0.1619  0.0941
 1293ERGO    R317758  16.875  18.155   9.153 -0.0251 -0.1300  0.0543
 1293ERGO    R417759  17.059  18.355   9.042 -0.2367  0.1101  0.1112
 1293ERGO    R517760  16.848  18.329   8.991 -0.2352 -0.0508  0.1655
 1293ERGO    C117761  17.007  18.280   8.647 -0.2941  0.2989  0.0836
 1293ERGO    C217762  16.993  18.221   8.259 -0.3221 -0.2847  0.0360
 1294ERGO   ROH17763  12.810  16.908   6.350  0.1766 -0.0421  0.2190
 1294ERGO    R117764  12.816  16.836   6.624  0.2614  0.0175  0.2338
 1294ERGO    R217765  12.932  16.996   6.818  0.0898  0.1873  0.2013
 1294ERGO    R317766  12.688  16.974   6.936  0.1132 -0.0598  0.2079
 1294ERGO    R417767  12.872  17.031   7.156  0.0465  0.2605  0.1860
 1294ERGO    R517768  12.732  16.864   7.144  0.2473  0.0820  0.2557
 1294ERGO    C117769  12.608  17.030   7.464  0.0432  0.0714  0.1833
 1294ERGO    C217770  12.558  17.326   7.599  0.2197 -0.4628  0.0811
 1295ERGO   ROH17771   6.051   9.192   6.031  0.2565 -0.1100 -0.0397
 1295ERGO    R117772   5.998   9.059   6.275 -0.0415  0.0577 -0.0061
 1295ERGO    R217773   6.198   8.987   6.452 -0.1923 -0.3029  0.0380
 1295ERGO    R317774   6.047   9.127   6.629  0.0630  0.0636 -0.0229
 1295ERGO    R417775   6.184   8.925   6.792 -0.4169 -0.2096  0.0460
 1295ERGO    R517776   5.969   8.962   6.784 -0.3396  0.2586 -0.0104
 1295ERGO    C117777   6.033   9.019   7.156 -0.3080  0.1888 -0.0065
 1295ERGO    C217778   5.913   8.991   7.432  0.1132 -0.0094 -0.3954
 1296ERGO   ROH17779   5.534  17.759   9.347 -0.2164 -0.4028 -0.0687
 1296ERGO    R117780   5.488  17.872   9.092 -0.0637 -0.1908 -0.0043
 1296ERGO    R217781   5.676  17.864   8.889 -0.0493 -0.2734  0.0136
 1296ERGO    R317782   5.472  17.753   8.748 -0.1609  0.0399 -0.0821
 1296ERGO    R417783   5.663  17.843   8.544  0.0395 -0.1783  0.0033
 1296ERGO    R517784   5.450  17.892   8.555  0.0996  0.1163 -0.0606
 1296ERGO    C117785   5.463  17.726   8.211 -0.0136  0.1713 -0.0925
 1296ERGO    C217786   5.368  17.647   7.911 -0.2732  0.4958 -0.0172
 1297ERGO   ROH17787   4.537   1.792   6.045 -0.2063  0.0550 -0.2095
 1297ERGO    R117788   4.461   1.967   6.254 -0.1297  0.0508 -0.1779
 1297ERGO    R217789   4.234   2.124   6.242 -0.2247 -0.0707 -0.0242
 1297ERGO    R317790   4.176   2.003   6.477  0.0283 -0.0615  0.0467
 1297ERGO    R417791   4.052   2.268   6.498 -0.0433 -0.0991  0.1226
 1297ERGO    R517792   4.191   2.178   6.640  0.1167 -0.0351  0.0113
 1297ERGO    C117793   3.891   2.237   6.869  0.2997 -0.1070  0.2746
 1297ERGO    C217794   3.584   2.301   6.872  0.2209 -0.0795 -0.1812
 1298ERGO   ROH17795  10.639  11.086   9.228 -0.1190  0.2489 -0.0080
 1298ERGO    R117796  10.713  10.887   9.040 -0.3238  0.1747 -0.0137
 1298ERGO    R217797  10.626  10.889   8.778 -0.1457  0.3997 -0.0743
 1298ERGO    R317798  10.892  10.876   8.724 -0.1228 -0.0295  0.1034
 1298ERGO    R417799  10.763  10.770   8.484 -0.1523  0.3422 -0.0537
 1298ERGO    R517800  10.918  10.673   8.601 -0.3956 -0.0053 -0.0023
 1298ERGO    C117801  11.092  10.689   8.261 -0.1346 -0.0942  0.1251
 1298ERGO    C217802  11.137  10.749   7.968  0.1599  0.1497  0.1406
 1299ERGO   ROH17803   7.967  17.288   9.230 -0.1516  0.1453  0.1478
 1299ERGO    R117804   8.015  17.257   8.952  0.0880  0.1993  0.1794
 1299ERGO    R217805   7.826  17.152   8.780  0.3529 -0.0930  0.0472
 1299ERGO    R317806   7.869  17.383   8.643  0.1094 -0.0280  0.0774
 1299ERGO    R417807   7.844  17.176   8.436  0.4001 -0.0263  0.0549
 1299ERGO    R517808   8.009  17.317   8.460  0.2242  0.1636  0.1019
 1299ERGO    C117809   7.895  17.408   8.107  0.1989  0.0737  0.0878
 1299ERGO    C217810   7.887  17.513   7.711 -0.1361  0.0679  0.1292
 1300ERGO   ROH17811   0.620   0.100   5.765  0.0875 -0.3451 -0.0726
 1300ERGO    R117812   0.835   0.072   5.948 -0.0381 -0.1568  0.1085
 1300ERGO    R217813   0.817   0.154   6.211 -0.3381 -0.1891  0.1038
 1300ERGO    R317814   0.893  -0.102   6.262 -0.1426 -0.1240  0.1460
 1300ERGO    R417815   0.942   0.041   6.513 -0.0972 -0.0134  0.0719
 1300ERGO    R517816   1.086  -0.080   6.402 -0.0791  0.0456  0.0334
 1300ERGO    C117817   1.086  -0.264   6.736  0.2267  0.1500  0.0929
 1300ERGO    C217818   1.212  -0.389   7.109 -0.2563 -0.2441 -0.3114
 1301ERGO   ROH17819   7.437   2.868   9.805  0.0186 -0.2087  0.1228
 1301ERGO    R117820   7.434   3.029   9.573  0.1658 -0.0862  0.2043
 1301ERGO    R217821   7.664   3.098   9.436  0.2289 -0.2099  0.2542
 1301ERGO    R317822   7.531   2.991   9.224  0.1518  0.0125  0.1880
 1301ERGO    R417823   7.732   3.166   9.104  0.4065 -0.1852  0.2942
 1301ERGO    R517824   7.518   3.170   9.066  0.4119  0.0853  0.2379
 1301ERGO    C117825   7.645   3.106   8.712  0.4375  0.0378  0.2554
 1301ERGO    C217826   7.645   3.098   8.351 -0.0166 -0.2683  0.2157
 1302ERGO   ROH17827  14.584  10.909   9.833 -0.2120 -0.1951 -0.0113
 1302ERGO    R117828  14.586  10.838   9.559  0.0531 -0.0371 -0.0534
 1302ERGO    R217829  14.443  10.978   9.369 -0.1433 -0.2068 -0.0320
 1302ERGO    R317830  14.685  10.996   9.246 -0.1125  0.3461  0.0801
 1302ERGO    R417831  14.494  10.959   9.027  0.0609 -0.1348 -0.0074
 1302ERGO    R517832  14.672  10.839   9.065  0.3364  0.2804  0.0905
 1302ERGO    C117833  14.751  10.965   8.714  0.2088  0.4263  0.1123
 1302ERGO    C217834  14.782  10.965   8.381 -0.0360 -0.1965 -0.0398
 1303ERGO   ROH17835  10.812  16.793   9.472  0.0642  0.0354  0.0367
 1303ERGO    R117836  10.888  16.701   9.216 -0.0040  0.0197  0.0222
 1303ERGO    R217837  10.721  16.546   9.058 -0.0810  0.0861  0.0377
 1303ERGO    R317838  10.767  16.741   8.875 -0.0367  0.0779  0.0406
 1303ERGO    R417839  10.746  16.496   8.717  0.1147  0.0551  0.0556
 1303ERGO    R517840  10.910  16.639   8.713  0.0780  0.0990  0.1275
 1303ERGO    C117841  10.805  16.650   8.346  0.2703  0.0295  0.0688
 1303ERGO    C217842  10.683  16.513   7.959  0.0974  0.0097  0.0549
 1304ERGO   ROH17843  18.666   4.176   6.512 -0.0514  0.0491 -0.0596
 1304ERGO    R117844  18.679   4.210   6.793 -0.0646  0.0950 -0.0648
 1304ERGO    R217845  18.918   4.219   6.931 -0.0743  0.0166 -0.0440
 1304ERGO    R317846  18.818   4.454   7.024  0.0186  0.0776 -0.0955
 1304ERGO    R417847  19.045   4.394   7.200 -0.2034 -0.1448  0.1246
 1304ERGO    R517848  18.840   4.438   7.262 -0.2351  0.0055 -0.0734
 1304ERGO    C117849  19.025   4.717   7.445 -0.1914 -0.1815  0.1744
 1304ERGO    C217850  19.093   4.913   7.627  0.2535  0.3534 -0.2368
 1305ERGO   ROH17851  12.205   4.564   9.556 -0.0986 -0.0151 -0.0321
 1305ERGO    R117852  12.059   4.637   9.325 -0.1811 -0.0716  0.0010
 1305ERGO    R217853  12.174   4.771   9.112 -0.3032  0.0593  0.0128
 1305ERGO    R317854  12.073   4.563   8.969 -0.1690  0.0138 -0.0158
 1305ERGO    R417855  12.110   4.778   8.773 -0.1188 -0.0059 -0.0242
 1305ERGO    R517856  11.927   4.666   8.810 -0.1087 -0.0486 -0.1109
 1305ERGO    C117857  11.978   4.587   8.440  0.1146 -0.0866 -0.0726
 1305ERGO    C217858  11.931   4.700   8.150  0.1618 -0.2205  0.0106
 1306ERGO   ROH17859  16.573   6.080   6.556  0.3686 -0.0727 -0.0263
 1306ERGO    R117860  16.501   6.035   6.826  0.2758 -0.0628 -0.0491
 1306ERGO    R217861  16.688   5.999   7.026  0.2065 -0.0789  0.0124
 1306ERGO    R317862  16.552   6.203   7.144  0.1876 -0.0647 -0.0332
 1306ERGO    R417863  16.669   6.052   7.367  0.3139  0.0704 -0.0032
 1306ERGO    R517864  16.459   6.105   7.342  0.2873 -0.0042  0.0461
 1306ERGO    C117865  16.530   6.273   7.677  0.3586  0.1706 -0.0552
 1306ERGO    C217866  16.414   6.460   7.976 -0.0918 -0.1028 -0.2561
 1307ERGO   ROH17867   4.524  13.922   9.059 -0.1870  0.1839 -0.0318
 1307ERGO    R117868   4.539  14.032   8.799 -0.1429  0.1647 -0.0373
 1307ERGO    R217869   4.608  13.882   8.578  0.1320  0.2004  0.0203
 1307ERGO    R317870   4.374  13.978   8.479  0.0924 -0.0391 -0.1270
 1307ERGO    R417871   4.568  14.014   8.261  0.1560  0.0206 -0.0590
 1307ERGO    R517872   4.439  14.168   8.347 -0.0098 -0.0453 -0.1859
 1307ERGO    C117873   4.324  14.181   7.983  0.1327 -0.3089 -0.2434
 1307ERGO    C217874   4.243  14.078   7.654 -0.1761  0.1147 -0.1093
 1308ERGO   ROH17875  18.338  15.142   6.241 -0.0074 -0.0316  0.0179
 1308ERGO    R117876  18.257  15.267   6.481 -0.0443  0.0126 -0.0179
 1308ERGO    R217877  17.992  15.321   6.539 -0.0613 -0.1008 -0.0102
 1308ERGO    R317878  18.047  15.181   6.766  0.0289  0.0099  0.0377
 1308ERGO    R417879  17.762  15.250   6.787 -0.0673 -0.2921 -0.0684
 1308ERGO    R517880  17.917  15.291   6.935 -0.1480 -0.0848 -0.0271
 1308ERGO    C117881  17.679  15.078   7.145  0.0138 -0.2996 -0.0572
 1308ERGO    C217882  17.491  14.863   7.360 -0.0213  0.0537 -0.1342
 1309ERGO   ROH17883  15.043   4.983   6.087  0.0557  0.0244  0.0269
 1309ERGO    R117884  14.827   4.948   6.265 -0.0310  0.1781 -0.0455
 1309ERGO    R217885  14.862   4.908   6.536 -0.1389 -0.0405 -0.0593
 1309ERGO    R317886  14.694   5.120   6.557  0.1188  0.1610  0.0327
 1309ERGO    R417887  14.709   5.008   6.829 -0.1552 -0.0808 -0.0537
 1309ERGO    R517888  14.527   5.047   6.714 -0.0516  0.2459 -0.1095
 1309ERGO    C117889  14.461   5.265   7.020  0.0772  0.0848  0.0360
 1309ERGO    C217890  14.584   5.313   7.313 -0.0467 -0.1246  0.0855
 1310ERGO   ROH17891  18.737  16.047   9.370  0.1789 -0.1694 -0.0381
 1310ERGO    R117892  18.845  16.140   9.125  0.2094 -0.1943 -0.0334
 1310ERGO    R217893  18.923  15.969   8.922 -0.0153 -0.2032 -0.1085
 1310ERGO    R317894  18.755  16.122   8.773  0.1015  0.0172 -0.0200
 1310ERGO    R417895  18.942  16.006   8.579 -0.1926 -0.3167 -0.1323
 1310ERGO    R517896  18.895  16.217   8.605  0.1382 -0.2302 -0.1416
 1310ERGO    C117897  18.795  16.171   8.239 -0.1863 -0.1760 -0.0630
 1310ERGO    C217898  18.828  16.077   7.915 -0.1099  0.0377  0.0685
 1311ERGO   ROH17899  13.827  18.810   9.859  0.0287  0.0313  0.0396
 1311ERGO    R117900  13.696  18.889   9.621 -0.0548  0.0304  0.0865
 1311ERGO    R217901  13.776  19.109   9.473 -0.1615  0.0784  0.1081
 1311ERGO    R317902  13.786  18.928   9.271 -0.1555  0.1193  0.0694
 1311ERGO    R417903  13.776  19.188   9.137  0.1991  0.1672  0.1232
 1311ERGO    R517904  13.643  19.019   9.102  0.0692  0.2962 -0.0330
 1311ERGO    C117905  13.786  19.065   8.751  0.4148  0.2574  0.0956
 1311ERGO    C217906  13.845  19.095   8.393  0.0052 -0.0284 -0.0536
 1312ERGO   ROH17907   7.409  12.507   9.415  0.1454 -0.0471  0.1463
 1312ERGO    R117908   7.450  12.377   9.166  0.1681  0.1349  0.0557
 1312ERGO    R217909   7.245  12.256   9.027  0.2524 -0.0877  0.1432
 1312ERGO    R317910   7.330  12.416   8.825 -0.1155  0.1316  0.1488
 1312ERGO    R417911   7.181  12.202   8.692  0.2538 -0.1598  0.1522
 1312ERGO    R517912   7.385  12.265   8.648  0.1364  0.2568  0.1040
 1312ERGO    C117913   7.223  12.321   8.307 -0.0908  0.0041  0.1627
 1312ERGO    C217914   7.198  12.151   8.165 -0.4463 -0.1309  0.0016
 1313ERGO   ROH17915  14.169   1.208   6.263  0.0040 -0.3679 -0.0807
 1313ERGO    R117916  14.183   1.046   6.494  0.1738 -0.1942  0.0343
 1313ERGO    R217917  14.322   1.121   6.721  0.0415  0.1415  0.0081
 1313ERGO    R317918  14.083   1.075   6.843  0.0779 -0.0804 -0.0011
 1313ERGO    R417919  14.280   1.073   7.061  0.0792  0.1013  0.0070
 1313ERGO    R517920  14.135   0.917   7.015  0.2224 -0.0363  0.0002
 1313ERGO    C117921  14.032   1.001   7.373  0.1354 -0.1304 -0.0023
 1313ERGO    C217922  14.254   1.028   7.628  0.0242 -0.1051  0.1697
 1314ERGO   ROH17923   8.975   4.817   9.684  0.0478  0.1887 -0.1017
 1314ERGO    R117924   8.972   4.995   9.464  0.0740  0.2062 -0.0885
 1314ERGO    R217925   9.196   5.046   9.311  0.0319  0.0208 -0.2176
 1314ERGO    R317926   9.033   4.974   9.106 -0.1537  0.1737 -0.1262
 1314ERGO    R417927   9.250   5.122   8.978 -0.0833 -0.0351 -0.2495
 1314ERGO    R517928   9.037   5.161   8.957 -0.0593  0.1679 -0.1296
 1314ERGO    C117929   9.128   5.099   8.592 -0.3247  0.0758 -0.1822
 1314ERGO    C217930   9.061   5.176   8.236  0.3053 -0.1862 -0.3879
 1315ERGO   ROH17931   9.938  17.179   5.737 -0.0222  0.0274  0.0043
 1315ERGO    R117932   9.892  16.998   5.950  0.1671 -0.1084 -0.0657
 1315ERGO    R217933  10.090  16.835   6.052  0.3697  0.1237 -0.0682
 1315ERGO    R317934  10.019  16.951   6.288  0.1486 -0.0432 -0.0503
 1315ERGO    R417935  10.214  16.746   6.362  0.1869  0.0094 -0.0265
 1315ERGO    R517936  10.014  16.770   6.444  0.1192 -0.1309 -0.1552
 1315ERGO    C117937  10.220  16.803   6.764 -0.1271 -0.2138  0.0145
 1315ERGO    C217938  10.304  16.901   7.084  0.4156  0.0166  0.1253
 1316ERGO   ROH17939   7.004  13.380   5.868  0.1088  0.0080 -0.0380
 1316ERGO    R117940   7.124  13.464   6.110 -0.0024 -0.0543  0.0397
 1316ERGO    R217941   7.222  13.719   6.147  0.0509 -0.0871  0.1233
 1316ERGO    R317942   7.060  13.715   6.365 -0.0723 -0.0647  0.0328
 1316ERGO    R417943   7.280  13.895   6.439 -0.0398 -0.1624  0.1873
 1316ERGO    R517944   7.211  13.722   6.551 -0.1708 -0.1577  0.1180
 1316ERGO    C117945   7.161  13.994   6.813 -0.2082 -0.1852  0.1395
 1316ERGO    C217946   7.171  14.367   6.818 -0.2250  0.1469  0.0083
 1317ERGO   ROH17947   8.678   1.616   9.792 -0.1455 -0.2139 -0.0246
 1317ERGO    R117948   8.524   1.596   9.555  0.0070 -0.2344 -0.1232
 1317ERGO    R217949   8.465   1.815   9.397 -0.1291 -0.2008 -0.0252
 1317ERGO    R317950   8.575   1.663   9.201  0.1394  0.0261 -0.0586
 1317ERGO    R417951   8.439   1.880   9.059 -0.4508 -0.2912 -0.0204
 1317ERGO    R517952   8.412   1.666   9.025  0.0317 -0.3715  0.0201
 1317ERGO    C117953   8.526   1.774   8.678 -0.3862 -0.1308 -0.0490
 1317ERGO    C217954   8.517   1.734   8.375 -0.2095 -0.2967 -0.0435
 1318ERGO   ROH17955   4.657   1.964   9.671 -0.1907 -0.0103  0.2021
 1318ERGO    R117956   4.498   2.048   9.452 -0.1838  0.0850  0.2344
 1318ERGO    R217957   4.561   2.270   9.299 -0.0833  0.0448  0.2265
 1318ERGO    R317958   4.543   2.092   9.094 -0.2322  0.0609  0.2233
 1318ERGO    R417959   4.569   2.354   8.964 -0.1350  0.0695  0.2310
 1318ERGO    R517960   4.413   2.206   8.928 -0.2265  0.1445  0.2675
 1318ERGO    C117961   4.557   2.236   8.576 -0.3050  0.0990  0.2305
 1318ERGO    C217962   4.478   2.199   8.291  0.1747 -0.1208 -0.0960
 1319ERGO   ROH17963   0.638  15.583   5.633  0.1436  0.3010 -0.0510
 1319ERGO    R117964   0.761  15.643   5.881  0.1200  0.0037  0.0343
 1319ERGO    R217965   0.618  15.729   6.100  0.1223 -0.1120  0.0689
 1319ERGO    R317966   0.741  15.520   6.222 -0.0305 -0.2925 -0.0748
 1319ERGO    R417967   0.681  15.708   6.440  0.2138 -0.3206  0.0421
 1319ERGO    R517968   0.876  15.621   6.393  0.1275 -0.4875 -0.0687
 1319ERGO    C117969   0.833  15.499   6.752  0.1236 -0.6115 -0.1085
 1319ERGO    C217970   0.988  15.577   7.071  0.0017  0.1137  0.2070
 1320ERGO   ROH17971   9.749  12.972   9.096 -0.0067  0.0093 -0.0136
 1320ERGO    R117972   9.671  12.878   8.840  0.0443 -0.0687 -0.0010
 1320ERGO    R217973   9.575  13.047   8.644 -0.0579 -0.1496 -0.0206
 1320ERGO    R317974   9.774  12.935   8.496  0.0066 -0.0509 -0.0093
 1320ERGO    R417975   9.545  12.951   8.313  0.0579 -0.0168 -0.0706
 1320ERGO    R517976   9.662  12.773   8.359  0.0769 -0.0148 -0.1107
 1320ERGO    C117977   9.715  12.790   7.982  0.1859  0.1529 -0.0891
 1320ERGO    C217978   9.858  12.616   7.648  0.0786 -0.0205  0.1147
 1321ERGO   ROH17979   9.184  11.969   9.006  0.0346 -0.1260 -0.0630
 1321ERGO    R117980   9.203  12.108   8.760  0.0106 -0.0565 -0.0252
 1321ERGO    R217981   9.089  12.015   8.527 -0.0508  0.0333 -0.0296
 1321ERGO    R317982   8.972  12.261   8.524 -0.0089  0.0547  0.0641
 1321ERGO    R417983   8.904  12.143   8.264  0.0076  0.1794 -0.0007
 1321ERGO    R517984   8.999  12.337   8.299  0.0364  0.1501  0.0996
 1321ERGO    C117985   8.687  12.448   8.109  0.0806  0.2845  0.1041
 1321ERGO    C217986   8.709  12.510   7.797  0.0170  0.0243 -0.0574
 1322ERGO   ROH17987   7.118  15.926   9.160  0.1445 -0.1977 -0.0205
 1322ERGO    R117988   7.086  15.831   8.895  0.0728 -0.0134 -0.0777
 1322ERGO    R217989   7.007  15.995   8.687  0.2492  0.1839  0.0149
 1322ERGO    R317990   7.233  15.901   8.569  0.1667  0.0302 -0.0280
 1322ERGO    R417991   7.083  16.030   8.352  0.3556  0.4327  0.0614
 1322ERGO    R517992   7.161  15.826   8.353  0.1147  0.3295 -0.1242
 1322ERGO    C117993   7.341  15.962   8.046  0.3400  0.4332  0.0481
 1322ERGO    C217994   7.162  16.039   7.815  0.0925 -0.2018 -0.0867
 1323ERGO   ROH17995   5.573  14.066   9.208 -0.0701 -0.2527  0.0798
 1323ERGO    R117996   5.686  14.075   8.949 -0.0571 -0.1324  0.0893
 1323ERGO    R217997   5.626  13.888   8.754 -0.0385 -0.0485  0.0039
 1323ERGO    R317998   5.562  14.109   8.608 -0.0404  0.0133  0.0967
 1323ERGO    R417999   5.615  13.899   8.409  0.1091  0.1346  0.0031
 1323ERGO    R518000   5.707  14.097   8.417  0.0477  0.1597  0.1518
 1323ERGO    C118001   5.548  14.112   8.070  0.1932  0.2991  0.0898
 1323ERGO    C218002   5.444  14.141   7.813 -0.1092  0.3628  0.3084
 1324ERGO   ROH18003   2.118  14.421   9.516  0.4014 -0.2480 -0.1718
 1324ERGO    R118004   2.099  14.544   9.262  0.2650 -0.1045 -0.0921
 1324ERGO    R218005   2.285  14.503   9.062  0.0991 -0.0719 -0.2455
 1324ERGO    R318006   2.066  14.435   8.917 -0.0317  0.0976 -0.1337
 1324ERGO    R418007   2.278  14.467   8.718 -0.0710 -0.1350 -0.2375
 1324ERGO    R518008   2.084  14.565   8.716  0.0080  0.0481 -0.1703
 1324ERGO    C118009   2.068  14.383   8.382 -0.2929 -0.0125 -0.1279
 1324ERGO    C218010   2.049  14.351   8.049 -0.0612 -0.0421 -0.2009
 1325ERGO   ROH18011  14.101  17.532   9.680  0.1175  0.1558 -0.0420
 1325ERGO    R118012  13.950  17.606   9.452  0.2038  0.2069 -0.0829
 1325ERGO    R218013  14.049  17.775   9.257  0.3745  0.0481 -0.1379
 1325ERGO    R318014  13.982  17.570   9.091  0.2062  0.0441 -0.0670
 1325ERGO    R418015  14.002  17.805   8.916  0.0079  0.0415 -0.0920
 1325ERGO    R518016  13.832  17.669   8.932  0.0310  0.0344  0.0904
 1325ERGO    C118017  13.912  17.630   8.561 -0.3634  0.0340  0.0012
 1325ERGO    C218018  13.972  17.722   8.235  0.0909 -0.2733 -0.3515
 1326ERGO   ROH18019   8.947  17.044   6.489 -0.0240 -0.0510  0.0151
 1326ERGO    R118020   8.939  16.971   6.762  0.0102 -0.0028  0.0308
 1326ERGO    R218021   9.021  16.723   6.852 -0.0192 -0.0109  0.0624
 1326ERGO    R318022   9.179  16.870   7.016  0.0389 -0.0050 -0.0011
 1326ERGO    R418023   9.160  16.610   7.148  0.0761  0.0272  0.0313
 1326ERGO    R518024   9.116  16.804   7.237  0.1158  0.0280  0.0230
 1326ERGO    C118025   9.389  16.683   7.474  0.1861  0.0546 -0.0466
 1326ERGO    C218026   9.717  16.640   7.732 -0.1320  0.0327  0.1988
 1327ERGO   ROH18027   9.411  17.319   9.392  0.3404 -0.2367  0.0404
 1327ERGO    R118028   9.352  17.511   9.192  0.1040 -0.2524  0.0911
 1327ERGO    R218029   9.516  17.728   9.143 -0.0963 -0.1026  0.0643
 1327ERGO    R318030   9.511  17.632   8.888 -0.1079 -0.0693  0.0520
 1327ERGO    R418031   9.539  17.923   8.858 -0.2278 -0.0583  0.0831
 1327ERGO    R518032   9.388  17.797   8.765 -0.1948 -0.1035  0.0964
 1327ERGO    C118033   9.549  17.946   8.454 -0.3153 -0.0010  0.0826
 1327ERGO    C218034   9.676  17.995   8.031  0.0657  0.1996 -0.3139
 1328ERGO   ROH18035  14.670  10.433  10.023  0.0315 -0.0240  0.0550
 1328ERGO    R118036  14.815  10.479   9.784  0.1021 -0.0939  0.0832
 1328ERGO    R218037  14.882  10.275   9.609 -0.1988 -0.0932 -0.0438
 1328ERGO    R318038  14.758  10.435   9.428  0.0334  0.2060  0.0557
 1328ERGO    R418039  14.972  10.306   9.277 -0.2430 -0.1285 -0.0581
 1328ERGO    R518040  14.935  10.520   9.292  0.1485 -0.0615  0.0364
 1328ERGO    C118041  14.908  10.475   8.914 -0.0507  0.1317  0.0269
 1328ERGO    C218042  14.849  10.491   8.527  0.0992  0.0045 -0.0689
 1329ERGO   ROH18043   5.021   2.711   6.318 -0.3190 -0.1526  0.1026
 1329ERGO    R118044   5.054   2.924   6.502 -0.2739 -0.1148  0.0501
 1329ERGO    R218045   4.921   2.935   6.743 -0.1199 -0.1278  0.1348
 1329ERGO    R318046   5.172   2.962   6.844 -0.0632 -0.0236 -0.0303
 1329ERGO    R418047   4.995   3.029   7.067  0.0484 -0.2677  0.1392
 1329ERGO    R518048   5.157   3.152   6.990 -0.0849 -0.1152  0.0903
 1329ERGO    C118049   5.273   3.110   7.351  0.1997 -0.2514 -0.0132
 1329ERGO    C218050   5.377   3.205   7.577 -0.0899  0.2042 -0.0304
 1330ERGO   ROH18051  15.038  17.613   9.418  0.0423 -0.0671 -0.0354
 1330ERGO    R118052  14.961  17.676   9.153 -0.1170 -0.1700 -0.0144
 1330ERGO    R218053  15.139  17.777   8.967 -0.3099  0.1029 -0.0510
 1330ERGO    R318054  15.052  17.566   8.819 -0.0329 -0.0232 -0.0423
 1330ERGO    R418055  15.210  17.727   8.632 -0.3084  0.2374 -0.0718
 1330ERGO    R518056  15.005  17.660   8.603 -0.2241 -0.0699 -0.0273
 1330ERGO    C118057  15.170  17.501   8.299 -0.0474  0.1975 -0.0756
 1330ERGO    C218058  15.066  17.583   7.927  0.1012  0.1298 -0.1921
 1331ERGO   ROH18059   3.257  17.668   5.773  0.2502 -0.2196  0.0669
 1331ERGO    R118060   3.314  17.600   6.042  0.1194 -0.1477  0.1134
 1331ERGO    R218061   3.209  17.739   6.256  0.0883 -0.0321  0.0231
 1331ERGO    R318062   3.125  17.493   6.333 -0.0357  0.0262  0.0782
 1331ERGO    R418063   3.216  17.621   6.581  0.4087 -0.1105 -0.0082
 1331ERGO    R518064   3.280  17.427   6.504  0.1327 -0.1534 -0.1387
 1331ERGO    C118065   3.141  17.321   6.842  0.4788 -0.1013  0.0253
 1331ERGO    C218066   3.172  17.128   7.146  0.2811 -0.2353 -0.3001
 1332ERGO   ROH18067  16.728  15.887   6.146  0.0736 -0.4092  0.0657
 1332ERGO    R118068  16.929  15.862   6.344  0.0280 -0.2335  0.1349
 1332ERGO    R218069  17.005  16.072   6.506 -0.1658 -0.1512  0.1140
 1332ERGO    R318070  16.949  15.896   6.705 -0.1063 -0.1458  0.1365
 1332ERGO    R418071  17.182  16.047   6.801 -0.1846 -0.0071  0.1386
 1332ERGO    R518072  17.165  15.830   6.788 -0.0773 -0.0244  0.1722
 1332ERGO    C118073  17.234  15.868   7.161 -0.1397  0.0818  0.1741
 1332ERGO    C218074  17.444  16.010   7.455 -0.0341 -0.2906 -0.2132
 1333ERGO   ROH18075   7.541  15.029   5.444 -0.0723 -0.0166 -0.0066
 1333ERGO    R118076   7.640  15.110   5.697 -0.2637  0.1797  0.0084
 1333ERGO    R218077   7.487  15.099   5.926 -0.2543 -0.2139  0.0000
 1333ERGO    R318078   7.696  14.954   6.021  0.0945  0.2542 -0.0124
 1333ERGO    R418079   7.555  15.048   6.261 -0.3486 -0.3528 -0.0013
 1333ERGO    R518080   7.768  15.073   6.216 -0.3645  0.2755  0.1592
 1333ERGO    C118081   7.791  14.880   6.545 -0.0760  0.0058 -0.0138
 1333ERGO    C218082   7.623  14.815   6.934 -0.1208  0.4792 -0.4527
 1334ERGO   ROH18083  11.978  15.551   6.118 -0.5485  0.1990 -0.1268
 1334ERGO    R118084  11.752  15.407   6.210 -0.3263 -0.1306 -0.0805
 1334ERGO    R218085  11.739  15.131   6.202  0.1030 -0.1625 -0.0028
 1334ERGO    R318086  11.684  15.158   6.467  0.0696 -0.1707 -0.0089
 1334ERGO    R418087  11.625  14.878   6.407  0.3269 -0.2345  0.0349
 1334ERGO    R518088  11.491  15.021   6.503  0.1930 -0.3412  0.0075
 1334ERGO    C118089  11.508  14.755   6.775  0.4261 -0.2841  0.0511
 1334ERGO    C218090  11.388  14.522   6.765  0.1756  0.3058  0.0666
 1335ERGO   ROH18091  11.168  16.041   6.007 -0.2593 -0.0839 -0.1101
 1335ERGO    R118092  11.188  16.078   6.287 -0.2129 -0.2206 -0.0954
 1335ERGO    R218093  11.182  16.328   6.405  0.0690 -0.2601  0.0058
 1335ERGO    R318094  10.980  16.218   6.551 -0.0530 -0.0943 -0.0347
 1335ERGO    R418095  11.081  16.438   6.717  0.0753 -0.1567 -0.0276
 1335ERGO    R518096  11.057  16.230   6.777 -0.0996 -0.1356 -0.0160
 1335ERGO    C118097  10.832  16.399   7.035 -0.0358  0.0592 -0.0852
 1335ERGO    C218098  10.715  16.618   7.366 -0.0023 -0.2282  0.2107
 1336ERGO   ROH18099  12.610  10.679   6.161 -0.2784 -0.0608 -0.2975
 1336ERGO    R118100  12.526  10.804   6.401 -0.1339 -0.2141 -0.1644
 1336ERGO    R218101  12.379  11.039   6.404  0.1565 -0.0288  0.0830
 1336ERGO    R318102  12.208  10.892   6.555 -0.0347  0.0160 -0.0865
 1336ERGO    R418103  12.128  11.170   6.601  0.3983  0.0899  0.3185
 1336ERGO    R518104  12.177  11.022   6.753  0.2115 -0.2050  0.1060
 1336ERGO    C118105  11.820  11.108   6.858  0.3597  0.2011  0.2966
 1336ERGO    C218106  11.542  11.309   6.798  0.2004  0.3139 -0.1942
 1337ERGO   ROH18107   7.350  16.151   5.513  0.1453  0.2422 -0.0808
 1337ERGO    R118108   7.399  16.240   5.778  0.1352  0.0536 -0.0148
 1337ERGO    R218109   7.232  16.177   5.989  0.0131  0.0775 -0.1060
 1337ERGO    R318110   7.461  16.085   6.101 -0.1012 -0.1807 -0.0768
 1337ERGO    R418111   7.313  16.206   6.323  0.0074  0.0043 -0.0980
 1337ERGO    R518112   7.519  16.251   6.265  0.0696 -0.2323 -0.0795
 1337ERGO    C118113   7.576  16.136   6.624 -0.1031 -0.2805 -0.0658
 1337ERGO    C218114   7.518  16.031   6.975 -0.3412 -0.0372 -0.0385
 1338ERGO   ROH18115  18.287  10.966   6.207  0.0398  0.1859  0.2066
 1338ERGO    R118116  18.236  10.976   6.485  0.0241 -0.1116  0.2178
 1338ERGO    R218117  18.363  10.811   6.666  0.2626 -0.0789  0.0810
 1338ERGO    R318118  18.428  11.046   6.787 -0.0722 -0.0795  0.2732
 1338ERGO    R418119  18.542  10.839   6.960  0.2219 -0.0711  0.1050
 1338ERGO    R518120  18.408  10.999   7.021 -0.0122 -0.3051  0.2384
 1338ERGO    C118121  18.707  11.075   7.245 -0.1161 -0.0671  0.2994
 1338ERGO    C218122  18.893  11.291   7.434  0.0927  0.0694 -0.5003
 1339ERGO   ROH18123   2.813  12.025   6.358  0.0006 -0.0168  0.0639
 1339ERGO    R118124   2.950  11.966   6.599  0.0720  0.3120  0.1096
 1339ERGO    R218125   2.941  12.131   6.821 -0.5601  0.2163  0.1734
 1339ERGO    R318126   2.859  11.904   6.946  0.0704 -0.1061  0.0402
 1339ERGO    R418127   2.935  12.085   7.163 -0.5111  0.0259  0.1495
 1339ERGO    R518128   3.007  11.882   7.132  0.1008  0.2370  0.0629
 1339ERGO    C118129   2.855  11.844   7.480  0.1093 -0.3877  0.0104
 1339ERGO    C218130   2.856  11.887   7.786  0.2233 -0.0756  0.1233
 1340ERGO   ROH18131  10.894  10.113   7.152  0.0639  0.1287 -0.0816
 1340ERGO    R118132  10.773  10.368   7.172 -0.0433  0.0745 -0.0330
 1340ERGO    R218133  10.591  10.462   6.987 -0.1676 -0.0108  0.0453
 1340ERGO    R318134  10.435  10.498   7.207 -0.0887 -0.0777  0.1130
 1340ERGO    R418135  10.388  10.736   7.042 -0.1856 -0.0498  0.1779
 1340ERGO    R518136  10.449  10.733   7.251 -0.1046 -0.0840  0.1549
 1340ERGO    C118137  10.124  10.930   7.280 -0.1221 -0.1355  0.3187
 1340ERGO    C218138   9.782  11.022   7.459  0.3956 -0.2133 -0.2907
 1341ERGO   ROH18139   4.819   0.182   9.680 -0.1705 -0.2043 -0.0856
 1341ERGO    R118140   4.882   0.281   9.423 -0.1635 -0.1151 -0.0500
 1341ERGO    R218141   5.140   0.338   9.344 -0.1778  0.0632  0.0297
 1341ERGO    R318142   5.080   0.170   9.138 -0.0175  0.0643 -0.0199
 1341ERGO    R418143   5.158   0.421   9.009 -0.1523  0.1444  0.0508
 1341ERGO    R518144   4.973   0.310   8.976 -0.0723  0.0275 -0.0164
 1341ERGO    C118145   5.112   0.313   8.621  0.0130  0.1928  0.0167
 1341ERGO    C218146   5.105   0.297   8.192  0.2453  0.0262 -0.2541
 1342ERGO   ROH18147   5.904   0.719   9.393  0.0580  0.1204  0.0849
 1342ERGO    R118148   6.005   0.773   9.134  0.1622 -0.1436  0.0669
 1342ERGO    R218149   5.987   0.592   8.926 -0.2882 -0.1343  0.0866
 1342ERGO    R318150   5.870   0.800   8.798  0.1813  0.1393  0.0806
 1342ERGO    R418151   5.972   0.629   8.583 -0.4257 -0.2478  0.0797
 1342ERGO    R518152   6.012   0.841   8.609  0.1729 -0.3289 -0.0384
 1342ERGO    C118153   5.854   0.846   8.262 -0.0650 -0.0570  0.0701
 1342ERGO    C218154   5.821   0.991   7.846 -0.3174  0.4529  0.2418
 1343ERGO   ROH18155   8.366   5.995   5.902 -0.0423 -0.2493 -0.0580
 1343ERGO    R118156   8.446   6.017   6.172 -0.0297 -0.1722 -0.0672
 1343ERGO    R218157   8.267   6.070   6.376 -0.0187 -0.0920 -0.0740
 1343ERGO    R318158   8.374   5.845   6.484 -0.0348 -0.0691 -0.0119
 1343ERGO    R418159   8.363   6.036   6.707  0.0334  0.0075 -0.0789
 1343ERGO    R518160   8.538   5.925   6.639  0.0029 -0.0418 -0.0688
 1343ERGO    C118161   8.519   5.804   7.001  0.0486  0.0869 -0.0235
 1343ERGO    C218162   8.292   5.615   7.342 -0.0420  0.0678 -0.2109
 1344ERGO   ROH18163   7.115  18.064   9.048 -0.0685 -0.3197  0.0759
 1344ERGO    R118164   7.272  18.180   8.843 -0.0502 -0.1539  0.1834
 1344ERGO    R218165   7.313  18.057   8.600  0.1728 -0.0695  0.1802
 1344ERGO    R318166   7.218  18.292   8.501  0.0443 -0.1202  0.1785
 1344ERGO    R418167   7.338  18.157   8.270  0.2500  0.0012  0.2061
 1344ERGO    R518168   7.382  18.359   8.339  0.0723  0.0257  0.2619
 1344ERGO    C118169   7.263  18.435   7.985  0.1742 -0.0054  0.2197
 1344ERGO    C218170   7.277  18.489   7.594 -0.0404 -0.0477 -0.0631
 1345ERGO   ROH18171  16.042  17.949   6.505 -0.0587 -0.1250  0.0521
 1345ERGO    R118172  16.289  17.901   6.633  0.0376 -0.0152 -0.0894
 1345ERGO    R218173  16.499  18.081   6.625 -0.1412  0.2020  0.0172
 1345ERGO    R318174  16.487  18.057   6.896 -0.0221 -0.0908  0.0008
 1345ERGO    R418175  16.773  18.048   6.833 -0.0319  0.2570 -0.1166
 1345ERGO    R518176  16.661  17.902   6.950  0.1537  0.0224 -0.2233
 1345ERGO    C118177  16.921  18.007   7.208  0.1437  0.0141 -0.2099
 1345ERGO    C218178  17.200  18.055   7.338 -0.2194  0.0096 -0.0531
 1346ERGO   ROH18179  11.625   6.284  10.032  0.0250  0.1269  0.0672
 1346ERGO    R118180  11.696   6.297   9.758 -0.0301  0.1436  0.0544
 1346ERGO    R218181  11.792   6.078   9.619 -0.0199  0.1657  0.0353
 1346ERGO    R318182  11.587   6.137   9.450 -0.0601  0.1307  0.0699
 1346ERGO    R418183  11.807   6.054   9.275 -0.1453 -0.0760  0.0435
 1346ERGO    R518184  11.694   6.240   9.262 -0.0808 -0.0354 -0.0398
 1346ERGO    C118185  11.624   6.096   8.915 -0.2560 -0.2496  0.0808
 1346ERGO    C218186  11.682   6.101   8.574 -0.2366  0.0064  0.1312
 1347ERGO   ROH18187   0.331  10.779   6.053 -0.1601 -0.0411  0.0050
 1347ERGO    R118188   0.314  10.622   6.288 -0.1951  0.0103  0.0370
 1347ERGO    R218189   0.537  10.514   6.411 -0.2199 -0.0117  0.0596
 1347ERGO    R318190   0.438  10.642   6.629 -0.1932  0.0523  0.0345
 1347ERGO    R418191   0.667  10.489   6.730 -0.0304  0.2658  0.0067
 1347ERGO    R518192   0.464  10.484   6.808  0.0103  0.1719  0.1170
 1347ERGO    C118193   0.651  10.595   7.121  0.1050  0.4873 -0.0476
 1347ERGO    C218194   0.846  10.573   7.543  0.0975  0.1718  0.1402
 1348W        W18195  15.687   0.078  14.701  0.3445  0.0540 -0.1298
 1349W        W18196  15.444   8.107   2.287 -0.0736 -0.3813 -0.0688
 1350W        W18197   2.574  14.824  12.975 -0.0200  0.0070  0.0183
 1351W        W18198   1.532  14.360  13.839 -0.0878 -0.1173  0.2048
 1352W        W18199   8.881  11.328  12.023 -0.1005 -0.0712  0.1117
 1353W        W18200  18.237   4.952   2.135 -0.4269 -0.1797 -0.0479
 1354W        W18201  10.819   9.734  12.828  0.1206 -0.0202  0.3378
 1355W        W18202  15.873   5.812   3.390  0.0014 -0.1288 -0.1442
 1356W        W18203   1.343  14.963   1.404  0.0426  0.1343  0.2961
 1357W        W18204  14.180  10.285  13.775 -0.0172 -0.1449  0.0697
 1358W        W18205   6.276  14.662  12.897 -0.3644  0.0183  0.0524
 1359W        W18206   0.438  11.182   2.800  0.1573  0.4035 -0.0589
 1360W        W18207   4.111   5.864   4.735 -0.0252  0.2726  0.1493
 1361W        W18208  15.141  17.272   1.650 -0.0503  0.4952  0.3003
 1362W        W18209  10.343  14.328  13.925 -0.1242 -0.1144  0.0559
 1363W        W18210   5.932  11.376   4.218  0.0214 -0.0260  0.1080
 1364W        W18211   8.321   2.880   2.141  0.1776  0.0048  0.1553
 1365W        W18212  11.891   9.072   0.123  0.1345  0.3814  0.0513
 1366W        W18213  10.501   6.154   4.957  0.3412 -0.0698  0.1651
 1367W        W18214   9.411  16.416   3.953  0.0027  0.0565 -0.0715
 1368W        W18215   9.931   8.363  13.191  0.0829 -0.1066  0.3041
 1369W        W18216  17.828   3.249   3.571  0.1210 -0.1010  0.1608
 1370W        W18217  13.506   2.012   4.659  0.2514  0.1002 -0.2112
 1371W        W18218   4.234  15.047  12.390  0.2243 -0.0163  0.0505
 1372W        W18219   3.897   1.955   2.503 -0.0804 -0.1984  0.2098
 1373W        W18220  13.010   7.169   2.153  0.2403 -0.0489 -0.2857
 1374W        W18221  13.451  15.815  14.636 -0.5096  0.0714  0.2869
 1375W        W18222  10.076  12.051  14.090  0.2017 -0.4857 -0.0559
 1376W        W18223   1.725   0.346   4.539 -0.0493  0.0800 -0.0433
 1377W        W18224   8.047  18.078   2.588  0.0368 -0.1346 -0.1521
 1378W        W18225   3.339   9.668   2.710  0.2654 -0.2704 -0.1493
 1379W        W18226   1.527  15.644  12.106 -0.0128  0.1012  0.1293
 1380W        W18227  16.355   0.753   2.444  0.0879  0.0183  0.0744
 1381W        W18228   0.579   4.093   1.824 -0.1914 -0.0305 -0.1590
 1382W        W18229   0.937   1.920  13.016 -0.0473  0.0383  0.1795
 1383W        W18230  16.209  16.418   4.288  0.0501 -0.2122  0.0295
 1384W        W18231  16.031  11.581   3.751 -0.1016  0.1197  0.2354
 1385W        W18232   8.991   0.538   2.537  0.2277  0.3337  0.1757
 1386W        W18233   7.026   6.921   0.089  0.1001  0.0009  0.2517
 1387W        W18234   8.164  10.328  13.847  0.0665  0.0722  0.0826
 1388W        W18235   5.024   3.334  15.012 -0.2070  0.1611 -0.1789
 1389W        W18236   0.724  17.741   0.628 -0.1392 -0.2101 -0.0292
 1390W        W18237   3.987  10.128  11.867 -0.0065  0.0919  0.2659
 1391W        W18238   8.162   6.204  12.579 -0.2482 -0.3591  0.3721
 1392W        W18239   8.603   2.163  14.509 -0.2667  0.2259  0.0991
 1393W        W18240   2.737  16.087   5.123  0.0393  0.2978 -0.2155
 1394W        W18241  17.708   7.576   3.123  0.0459  0.0959  0.0906
 1395W        W18242   3.834   2.441   2.704  0.0867  0.1919  0.0101
 1396W        W18243  16.278  15.935   1.570  0.2373 -0.2094  0.0919
 1397W        W18244   2.967   3.898  13.534 -0.1086  0.2051 -0.0735
 1398W        W18245  13.970  10.869  12.274  0.0674 -0.0318  0.0131
 1399W        W18246   8.278  11.858   4.098 -0.3087  0.1346 -0.1757
 1400W        W18247   0.930   3.508   5.005  0.4417  0.4493  0.0606
 1401W        W18248   8.630  18.330  11.847  0.0428 -0.0144  0.0396
 1402W        W18249   9.904   6.158   0.113  0.1139  0.1501 -0.2918
 1403W        W18250   4.690   3.838   2.368 -0.2978 -0.0664  0.2603
 1404W        W18251   2.758  14.715  14.410 -0.0596 -0.0538 -0.1978
 1405W        W18252   1.103  12.628  15.610  0.0513  0.1852 -0.1326
 1406W        W18253  14.936   9.575   4.303 -0.1041  0.1459  0.0538
 1407W        W18254  17.001   1.496   1.473 -0.2573  0.0458 -0.0354
 1408W        W18255  18.647  15.757   3.216 -0.2390  0.0667 -0.2413
 1409W        W18256   3.723   6.119   4.206 -0.0586  0.2237 -0.0498
 1410W        W18257  14.336  15.035  10.203  0.2051  0.0773  0.0996
 1411W        W18258   8.283  17.967  10.968  0.0202 -0.2899  0.0548
 1412W        W18259  15.537  14.335  14.214 -0.1028 -0.0181 -0.2392
 1413W        W18260   7.178   8.968   4.658  0.1785  0.0871 -0.0629
 1414W        W18261  15.410   4.999   1.635 -0.0287  0.0683 -0.1875
 1415W        W18262   8.670   6.586  12.805 -0.0524 -0.2110  0.1611
 1416W        W18263   6.701  17.685  14.953 -0.0030  0.2028 -0.1001
 1417W        W18264   9.006   3.606  12.923 -0.1795 -0.2123  0.0784
 1418W        W18265   2.100  17.784  13.121 -0.1689 -0.2090 -0.0755
 1419W        W18266  12.504  11.169  13.112 -0.0761 -0.1432  0.1266
 1420W        W18267  13.761   8.469  13.817  0.0401  0.2618 -0.3451
 1421W        W18268  18.142   3.907   4.087  0.0324  0.0264  0.1007
 1422W        W18269  15.591  14.642   6.129 -0.0450  0.0072  0.4886
 1423W        W18270  14.431  16.357  12.385 -0.2303  0.0054  0.0633
 1424W        W18271  12.561  11.500  10.903 -0.3211  0.0157  0.0114
 1425W        W18272  14.754  12.194   2.820 -0.1195  0.0982  0.0943
 1426W        W18273  16.674   1.325   4.085  0.1502 -0.0172 -0.1355
 1427W        W18274  18.817   6.649  14.537  0.1531 -0.1780 -0.1121
 1428W        W18275   4.534  11.449   4.348  0.3316  0.1824  0.2074
 1429W        W18276   1.213   1.783   5.509 -0.0443  0.1264 -0.1371
 1430W        W18277  18.697  17.333  14.833 -0.1284 -0.0974  0.2172
 1431W        W18278  17.771   3.172   4.887 -0.2020  0.0473  0.2004
 1432W        W18279   4.748   4.549  14.179 -0.1044 -0.3305  0.1593
 1433W        W18280  15.511  18.712   4.854  0.0111 -0.3880  0.0690
 1434W        W18281  18.232  10.067  14.794 -0.1277 -0.2800  0.2086
 1435W        W18282   9.510   3.676  12.961 -0.0403  0.1706 -0.1529
 1436W        W18283  14.766  15.855   5.104 -0.0406  0.0868  0.1066
 1437W        W18284   5.420  17.918   2.622  0.1065 -0.5104 -0.0148
 1438W        W18285  10.608   1.794  12.245 -0.0521 -0.2093 -0.2219
 1439W        W18286   5.273  10.328   0.487  0.0126 -0.1101  0.1610
 1440W        W18287   1.987  17.545  13.633 -0.1264  0.1200 -0.1201
 1441W        W18288  18.450   0.977   2.187  0.1479  0.1011  0.2033
 1442W        W18289   1.118   1.818   0.723  0.1303 -0.1923  0.3971
 1443W        W18290   9.846   9.522   3.721 -0.2868  0.0826 -0.0164
 1444W        W18291   5.631   7.091   3.269 -0.1840  0.1410  0.2775
 1445W        W18292  11.123   8.417   2.079  0.1193  0.1933  0.0924
 1446W        W18293   5.051   0.560  12.073 -0.0160 -0.2392 -0.1347
 1447W        W18294   6.929  16.836   3.887  0.1331 -0.2079 -0.1011
 1448W        W18295   2.529   1.356   3.076  0.1127 -0.6201 -0.2890
 1449W        W18296   9.290   6.570   5.003  0.0960  0.2679 -0.0696
 1450W        W18297  15.351  10.932  12.002 -0.0551 -0.1507  0.1845
 1451W        W18298   3.887  11.507  13.126  0.0778 -0.0761  0.0630
 1452W        W18299  12.829  17.888   4.372  0.2300 -0.0490  0.0833
 1453W        W18300   8.308  16.091  14.597 -0.0134 -0.1483 -0.0615
 1454W        W18301   3.908   0.128  10.706  0.3606 -0.1585 -0.1713
 1455W        W18302  17.188   3.570   4.679  0.1962 -0.0152  0.1089
 1456W        W18303  17.952  10.066   5.089  0.0358  0.0162 -0.4088
 1457W        W18304  11.017   4.034   1.366 -0.2637  0.3131 -0.2150
 1458W        W18305  14.218  15.866   4.964 -0.0580  0.0426 -0.0314
 1459W        W18306  10.770   0.073   1.692  0.1853  0.2081 -0.5046
 1460W        W18307   2.124  12.146   6.235  0.0702  0.4280  0.1374
 1461W        W18308  12.833  15.044   5.234 -0.3014  0.0376 -0.1864
 1462W        W18309  11.663  13.806   3.040  0.1020 -0.3578 -0.3229
 1463W        W18310  17.645   1.049  12.527  0.1665  0.0388 -0.0812
 1464W        W18311   6.612   4.745   5.913 -0.0317 -0.2364 -0.0439
 1465W        W18312  18.300  15.816   2.723  0.1515 -0.0020 -0.1271
 1466W        W18313  18.740  15.791   3.758 -0.0521  0.2691  0.0226
 1467W        W18314  15.300   7.543   1.368  0.0770  0.7342  0.4378
 1468W        W18315   2.652   0.959  14.227 -0.0055  0.0682 -0.0426
 1469W        W18316   3.700   0.272  13.069  0.0586  0.1667 -0.0936
 1470W        W18317  10.930   9.459  14.011  0.0514 -0.3607 -0.1058
 1471W        W18318   0.946   2.011  14.336 -0.0967 -0.1679  0.0504
 1472W        W18319   4.534  13.791   3.152  0.0759  0.3089  0.0877
 1473W        W18320  15.978   9.692  15.061  0.2209 -0.1238 -0.2314
 1474W        W18321  12.464   4.652   5.290 -0.1804  0.4670 -0.0655
 1475W        W18322   1.758  12.766   5.059  0.1068  0.2229 -0.1777
 1476W        W18323   1.237  12.276  13.464 -0.3571 -0.1379 -0.2605
 1477W        W18324   4.346   1.288  10.789  0.0970  0.0403 -0.2264
 1478W        W18325  13.011  12.112  12.284 -0.0064 -0.0059 -0.1016
 1479W        W18326   8.523   9.133  14.864  0.2496  0.3586 -0.0637
 1480W        W18327  18.853  13.106  15.334  0.0901 -0.0805  0.1149
 1481W        W18328   6.948   8.441   1.772 -0.1706  0.0198 -0.3431
 1482W        W18329   9.397  15.615   0.317 -0.2012 -0.1722  0.1440
 1483W        W18330   2.960  16.539   1.860 -0.0874  0.0540 -0.3188
 1484W        W18331  17.643  12.243   3.529  0.1242 -0.1205  0.0558
 1485W        W18332  13.744   4.665   1.946 -0.0683 -0.0263 -0.0447
 1486W        W18333  11.739  16.367   0.826 -0.2451  0.1738  0.0531
 1487W        W18334  13.638   3.325   3.715 -0.1888  0.0295 -0.1435
 1488W        W18335  10.064   6.946  12.565  0.3633 -0.2225 -0.0085
 1489W        W18336  14.403   7.962   3.753 -0.1301 -0.0500 -0.0170
 1490W        W18337   6.464  10.946   2.726 -0.1182  0.0384 -0.2297
 1491W        W18338   9.614  13.204  13.747 -0.0004 -0.1971 -0.0512
 1492W        W18339   9.332  16.514   0.717 -0.2390  0.1610  0.1871
 1493W        W18340  11.671   4.985  11.453  0.0359 -0.3406  0.2632
 1494W        W18341   3.188  14.527   4.108 -0.1207  0.0944  0.1580
 1495W        W18342  16.368  10.349   3.818  0.2667  0.0168 -0.0471
 1496W        W18343  10.562   0.832   1.958  0.0002 -0.3243 -0.1384
 1497W        W18344   9.825   7.308  15.170 -0.0097 -0.1317 -0.1581
 1498W        W18345   0.398   8.929  13.214 -0.0584 -0.1955  0.2020
 1499W        W18346  13.794  16.176   5.036  0.1504  0.0936  0.3524
 1500W        W18347   4.960   9.587  15.629 -0.2118  0.0390  0.0179
 1501W        W18348  10.439   2.551  11.752  0.0647  0.1424  0.0936
 1502W        W18349  15.235   0.951   2.112 -0.0780  0.0956 -0.2558
 1503W        W18350   0.671   9.092   3.498  0.3184  0.0897  0.0541
 1504W        W18351   0.289  12.898  13.932  0.2679  0.0858 -0.1214
 1505W        W18352  14.469   8.010   3.286 -0.1126  0.1508 -0.4189
 1506W        W18353  17.036  17.090  14.445  0.3280 -0.1774 -0.0010
 1507W        W18354   8.672   1.537   4.533 -0.0490  0.0580  0.0817
 1508W        W18355   3.013   0.465  15.052  0.1435 -0.0227  0.2479
 1509W        W18356   2.385   7.383  14.861 -0.0821  0.2756 -0.0252
 1510W        W18357  11.298   1.563  13.296 -0.0795  0.4214 -0.2474
 1511W        W18358   9.573   8.970  14.059  0.2144  0.2738 -0.0886
 1512W        W18359  11.221  10.271  13.400  0.1893  0.0985  0.0484
 1513W        W18360   0.867  17.010  14.227  0.1311 -0.0604  0.1325
 1514W        W18361  16.695  11.886  14.558  0.0713  0.0694 -0.0333
 1515W        W18362   1.711  18.436   3.724  0.0415 -0.4439 -0.2848
 1516W        W18363   1.320  18.472   2.183  0.1657 -0.0697 -0.0743
 1517W        W18364   5.212  17.112   0.920  0.3886 -0.0840 -0.2522
 1518W        W18365  11.146   1.928   2.756  0.1300 -0.3026 -0.0466
 1519W        W18366   2.093  16.795   1.903 -0.1728 -0.0281  0.0554
 1520W        W18367  16.246   7.777  14.963  0.0456 -0.1217  0.1429
 1521W        W18368  14.161   1.212   0.951 -0.0066  0.3457 -0.0653
 1522W        W18369  16.489  15.357   3.785 -0.0101 -0.1890 -0.1829
 1523W        W18370   2.795   2.521  11.147 -0.1570  0.1408  0.1662
 1524W        W18371   4.854  15.087  14.588  0.1162 -0.0858  0.2055
 1525W        W18372   0.783  11.973  14.803  0.1638  0.0494 -0.1006
 1526W        W18373   6.522   5.109   3.855 -0.0653  0.0924 -0.1178
 1527W        W18374  14.493  11.630  12.338 -0.1913  0.0768 -0.1936
 1528W        W18375  12.120  16.742   4.171  0.1669  0.1045  0.1171
 1529W        W18376   0.676  18.555   2.687 -0.1284 -0.2523  0.0795
 1530W        W18377   1.721   8.819   1.901  0.0423  0.2025 -0.1883
 1531W        W18378  16.991  13.425   1.315 -0.3577 -0.2370 -0.0059
 1532W        W18379   5.960  12.354  12.309 -0.1405  0.1314 -0.0100
 1533W        W18380   2.357   0.131  13.636 -0.2657  0.0244 -0.0746
 1534W        W18381   0.691   9.457  10.965  0.1678  0.1609  0.1438
 1535W        W18382  15.120   5.349  13.214  0.2291 -0.1458  0.0650
 1536W        W18383   6.309  15.958  10.805 -0.0042 -0.2657  0.1616
 1537W        W18384   0.940   2.504  14.134 -0.1966  0.0502 -0.0322
 1538W        W18385   9.542  16.479   4.566 -0.2329  0.0027 -0.0448
 1539W        W18386   5.818   6.919  12.964 -0.2434  0.2726  0.0983
 1540W        W18387   2.440  13.152  13.663 -0.1257 -0.1305 -0.2616
 1541W        W18388  17.882   0.268   1.051 -0.1448  0.2786  0.1240
 1542W        W18389  16.737  12.465  13.642  0.0905  0.1107  0.0750
 1543W        W18390  17.476   6.602   4.002  0.3104 -0.0726 -0.1209
 1544W        W18391   9.423  11.228   2.210 -0.1282 -0.0532 -0.2324
 1545W        W18392  15.803   2.102   2.716  0.2200  0.2056 -0.0927
 1546W        W18393   0.758  16.064   0.289  0.2195  0.0630 -0.1058
 1547W        W18394  13.996   5.192   1.625  0.3589 -0.1297  0.0676
 1548W        W18395  14.743   8.835   3.439  0.0211  0.2138 -0.0288
 1549W        W18396  14.758  11.150   4.854 -0.1908  0.0006 -0.0092
 1550W        W18397   5.089   2.398   3.345  0.1379  0.0457  0.0951
 1551W        W18398   7.155  17.058   4.845 -0.1734  0.2599  0.1531
 1552W        W18399  17.195   5.162   0.994 -0.0082  0.0091 -0.2865
 1553W        W18400  12.487  15.933  14.731 -0.1939 -0.0118  0.4546
 1554W        W18401   4.537   4.461  15.655 -0.2904  0.1897 -0.0944
 1555W        W18402   3.377   2.268   2.479  0.1042 -0.0381  0.1198
 1556W        W18403   1.808  16.048  14.427  0.0761 -0.0910  0.1426
 1557W        W18404   9.652   6.702  12.382 -0.0845 -0.0716  0.0101
 1558W        W18405   3.139   4.605   3.370 -0.0450 -0.1112  0.1276
 1559W        W18406   9.251   3.301   1.334 -0.1323  0.1692 -0.0634
 1560W        W18407  17.199   3.912   5.085 -0.0957 -0.0336 -0.4327
 1561W        W18408   1.629   3.024  12.582 -0.2926 -0.0997  0.2026
 1562W        W18409  14.093  17.149  15.461 -0.0975  0.1351 -0.0323
 1563W        W18410   2.609  16.107  11.797 -0.2616 -0.0322  0.0153
 1564W        W18411  13.888  12.222  14.418 -0.1666 -0.0390  0.0372
 1565W        W18412   5.247  13.556   4.731 -0.1279  0.0136 -0.0039
 1566W        W18413   4.532  12.291   4.453  0.0907  0.0372 -0.0126
 1567W        W18414   7.296   7.119   4.347  0.0759 -0.0415  0.0975
 1568W        W18415   5.377   9.642  12.323  0.2443 -0.1980  0.1714
 1569W        W18416  10.241   0.288   2.500  0.1331  0.1525  0.1143
 1570W        W18417   4.464   7.151   0.325 -0.0746 -0.2898 -0.0833
 1571W        W18418  10.092   8.336   4.453 -0.0183 -0.0243 -0.2410
 1572W        W18419   6.274   2.411  12.141  0.1538  0.0339 -0.0915
 1573W        W18420   3.868   9.811  12.248  0.0324 -0.0406 -0.1950
 1574W        W18421  18.211  10.018  15.442 -0.2307  0.3124 -0.0845
 1575W        W18422  11.054  13.887  14.006 -0.2977 -0.2194 -0.0233
 1576W        W18423  10.643  16.745   0.127  0.3053  0.1661  0.3309
 1577W        W18424   3.313  13.322   3.641  0.0089 -0.0880 -0.3863
 1578W        W18425  13.548   1.119  12.327  0.2349 -0.1319  0.2559
 1579W        W18426  12.153  13.580   2.146  0.1059 -0.2605 -0.1605
 1580W        W18427  12.623  12.464  10.941 -0.2674  0.0952 -0.1333
 1581W        W18428   2.312  14.128  12.670 -0.0001 -0.2218 -0.3528
 1582W        W18429   9.794  11.574  12.160 -0.1125 -0.3197 -0.5460
 1583W        W18430  18.216  17.631  12.590 -0.2096  0.1217  0.0759
 1584W        W18431  14.900   4.051  13.443  0.1358  0.0133 -0.2263
 1585W        W18432   2.012   3.402   3.711 -0.0684  0.4265  0.0674
 1586W        W18433   9.407  17.853  13.947  0.0160  0.0430 -0.0553
 1587W        W18434  16.401  16.512  11.867  0.1494  0.0147 -0.1987
 1588W        W18435  14.535   2.542   4.818 -0.1367 -0.4383 -0.1106
 1589W        W18436   9.008   3.212  12.628  0.0162 -0.0187 -0.2154
 1590W        W18437  17.555   0.549   1.460  0.0273  0.1284  0.0572
 1591W        W18438   0.565   2.215  14.645  0.0428  0.4577  0.3016
 1592W        W18439   7.540  18.032   1.052 -0.1374  0.1860 -0.0729
 1593W        W18440  15.493  11.483   1.662 -0.2176  0.0707 -0.1120
 1594W        W18441  10.791   5.128  12.874  0.2831 -0.0249 -0.1613
 1595W        W18442  16.148   6.451   2.703  0.1056  0.2793  0.1061
 1596W        W18443   2.110  16.111  11.732 -0.0027  0.1662 -0.1047
 1597W        W18444   3.967  11.035  12.920 -0.0865  0.2173  0.0968
 1598W        W18445  15.104   5.203   4.789  0.0714 -0.4200  0.0327
 1599W        W18446  10.118   5.329   2.627  0.0756 -0.1710  0.0274
 1600W        W18447   6.118   1.001  15.500  0.0482 -0.1470 -0.0564
 1601W        W18448   6.071  10.168  15.480 -0.2778  0.0690  0.2010
 1602W        W18449  18.812   4.811   5.177  0.1114  0.5548 -0.1464
 1603W        W18450   5.998  13.986  11.393 -0.0694 -0.4320  0.3334
 1604W        W18451  17.481  13.369  15.287 -0.3042  0.1655  0.0213
 1605W        W18452  10.536   7.926  11.273  0.0257 -0.3385 -0.2276
 1606W        W18453   8.668   7.786   1.681 -0.0404  0.6439 -0.0409
 1607W        W18454  17.979   7.355   3.611  0.1056  0.0091 -0.0174
 1608W        W18455   0.847   9.207  13.793  0.2998  0.2365 -0.1545
 1609W        W18456   3.207  15.082   2.521 -0.4674 -0.4366 -0.4084
 1610W        W18457  18.733   5.801  12.309 -0.1912  0.0206 -0.3898
 1611W        W18458  18.070  14.788   0.764 -0.0921  0.2901 -0.1885
 1612W        W18459   6.901   3.513   4.186  0.2155  0.0456 -0.2069
 1613W        W18460   3.247   4.803  13.182 -0.0618  0.0299  0.1774
 1614W        W18461   9.946  10.522  11.636 -0.1334  0.1072 -0.3445
 1615W        W18462  17.337  10.809   2.429 -0.1062 -0.3932  0.1146
 1616W        W18463   6.742  15.676   0.615 -0.1223 -0.1896  0.1464
 1617W        W18464  16.709   1.730  13.161 -0.0029 -0.2071 -0.1753
 1618W        W18465   2.171   5.867   2.428 -0.6641 -0.0288  0.2113
 1619W        W18466   1.664   1.668   5.556  0.3548 -0.1338 -0.0512
 1620W        W18467  16.778  13.649   5.646  0.1110  0.2593  0.1256
 1621W        W18468   3.025  13.052   5.044  0.0034 -0.1314  0.0123
 1622W        W18469   3.802   0.614  13.422  0.2168  0.3329  0.1129
 1623W        W18470   3.707  15.286  13.402  0.1814  0.0798 -0.0129
 1624W        W18471  10.488   2.590   5.327  0.1968  0.0520  0.1175
 1625W        W18472  11.484   9.117   4.449 -0.0869 -0.2149  0.3118
 1626W        W18473  12.231  16.161   5.371  0.1723 -0.0089 -0.0515
 1627W        W18474   5.987   7.442  13.911  0.0781  0.0335 -0.0082
 1628W        W18475  15.907   9.373  14.065 -0.0041 -0.0489 -0.1842
 1629W        W18476   2.338  16.250  14.450  0.4050 -0.0485 -0.2311
 1630W        W18477  17.948  16.582  13.951  0.1688 -0.0421  0.1571
 1631W        W18478   4.640   5.857   4.557 -0.1075  0.1706 -0.3911
 1632W        W18479  10.060   3.860   2.816 -0.0611 -0.0615  0.1401
 1633W        W18480  11.116  14.963   3.605 -0.1442  0.0760 -0.0820
 1634W        W18481   2.709   9.524   5.897  0.0918  0.2784  0.1373
 1635W        W18482  10.695  15.807   1.534 -0.1817  0.0140  0.1591
 1636W        W18483   5.624  12.266   0.208  0.2964 -0.4152 -0.1949
 1637W        W18484  11.133   3.181   5.152 -0.1512  0.0337  0.3179
 1638W        W18485  15.302   5.876  15.556  0.1697  0.3072  0.1891
 1639W        W18486   1.637  15.896   1.337 -0.2540 -0.6105 -0.1738
 1640W        W18487   0.088   4.735   0.163 -0.0681 -0.0346 -0.0675
 1641W        W18488   5.603  10.960  12.921 -0.1359  0.0932 -0.0408
 1642W        W18489  17.258   7.321   3.457 -0.0827 -0.3167  0.0829
 1643W        W18490  10.406  14.878   2.185 -0.2692  0.1827  0.0107
 1644W        W18491  17.944   4.485   2.902 -0.0109  0.3521 -0.2962
 1645W        W18492  13.067  10.893   2.975  0.0083  0.3287 -0.1185
 1646W        W18493  15.601  16.076  14.210 -0.1562 -0.1488 -0.0104
 1647W        W18494   2.541  15.067  11.717  0.1405  0.1885 -0.0267
 1648W        W18495   9.186   6.828   4.654  0.0996  0.1505  0.2320
 1649W        W18496   7.488   6.082  13.976 -0.1925 -0.2554  0.0401
 1650W        W18497  15.686   9.078   0.507  0.0096 -0.2788  0.2469
 1651W        W18498  10.077   7.987   4.002 -0.4280 -0.1765 -0.2911
 1652W        W18499   0.335   3.678   1.828 -0.0993  0.0607  0.2634
 1653W        W18500  11.442  18.681  14.252 -0.0157 -0.0777  0.3637
 1654W        W18501  12.935  16.031   2.058 -0.1880  0.2628  0.2713
 1655W        W18502   3.157  18.257   2.957  0.0331 -0.2494 -0.3612
 1656W        W18503  12.469  14.304  15.166  0.1230 -0.3260  0.3618
 1657W        W18504   3.560   7.468   0.948  0.0601  0.0775  0.0424
 1658W        W18505  15.712   8.557   1.979  0.0800 -0.0974  0.2653
 1659W        W18506   2.499  10.032  12.472  0.1342 -0.2412  0.0309
 1660W        W18507   0.426   8.182  12.726 -0.0651  0.3896  0.1972
 1661W        W18508   6.911  14.357  15.116 -0.0500 -0.1733 -0.1997
 1662W        W18509  18.401   6.102   4.997  0.1997 -0.3551  0.0748
 1663W        W18510   0.425  12.036  11.631  0.4476 -0.0021  0.1437
 1664W        W18511  17.757   4.151   2.266  0.1352  0.1081  0.2489
 1665W        W18512  13.968  18.247  13.651 -0.2312 -0.0182  0.1344
 1666W        W18513  13.001  14.616  12.149 -0.3187 -0.0976  0.2605
 1667W        W18514   4.488   4.625  10.966  0.1023 -0.2858  0.1433
 1668W        W18515   0.100   1.490   3.175  0.3126 -0.2231 -0.0544
 1669W        W18516  17.294   2.432  15.538 -0.1850 -0.1250 -0.0771
 1670W        W18517   8.210   3.725   3.987  0.0137  0.3040  0.1173
 1671W        W18518  13.817   4.633   1.224 -0.0213 -0.0866  0.2069
 1672W        W18519  14.692   1.339  12.083  0.1030  0.1369  0.0482
 1673W        W18520  16.109  16.699  15.318 -0.1048 -0.0836 -0.2280
 1674W        W18521  15.030   6.521   3.665  0.0122 -0.3383 -0.0201
 1675W        W18522  17.194   0.602   3.991  0.2372  0.0843 -0.0813
 1676W        W18523  11.258  16.365   0.997 -0.3295  0.3558 -0.2162
 1677W        W18524   8.597   1.950   4.342 -0.1262 -0.0702  0.0769
 1678W        W18525   8.592   1.019   1.895 -0.0442 -0.1378  0.0200
 1679W        W18526   3.132   1.435   1.646 -0.0803 -0.1709 -0.2938
 1680W        W18527   4.671   2.623  13.468  0.0799 -0.1357 -0.0736
 1681W        W18528   3.596   2.053   0.743  0.0917  0.0554 -0.0610
 1682W        W18529  10.279  18.311   2.776 -0.0908 -0.2477 -0.1393
 1683W        W18530  11.274  18.178  15.418 -0.0441  0.0235  0.1628
 1684W        W18531   5.807  11.841  14.122  0.1296 -0.2176  0.2089
 1685W        W18532   3.780  16.385  13.431 -0.1316  0.1258 -0.3852
 1686W        W18533  17.548   6.952   2.382  0.1748  0.0098 -0.0642
 1687W        W18534  17.315   2.311   2.825 -0.2284  0.0575 -0.3049
 1688W        W18535   8.765  11.157  15.409 -0.0195  0.0471 -0.1747
 1689W        W18536  16.194  11.002  11.390  0.2412 -0.0911 -0.1959
 1690W        W18537  11.010   5.097   3.480  0.2523  0.0313  0.3334
 1691W        W18538  12.208   9.864   0.047  0.2745 -0.0991 -0.0800
 1692W        W18539  11.092   5.820   4.687 -0.2424 -0.2789 -0.3888
 1693W        W18540  12.385   3.218  15.385  0.0344  0.0604 -0.5106
 1694W        W18541   7.020   9.002  11.593 -0.0928  0.1837 -0.2792
 1695W        W18542  11.329  16.164   0.561 -0.2554  0.3277  0.0195
 1696W        W18543  12.650   0.631  15.104 -0.1454 -0.1171  0.3501
 1697W        W18544   9.197  10.864  13.152 -0.2634 -0.0435 -0.0021
 1698W        W18545   0.704   4.172   5.998  0.0866  0.0399 -0.2665
 1699W        W18546  15.649  18.797  13.601  0.2194  0.0525 -0.1045
 1700W        W18547   5.568   8.515  11.729 -0.3012  0.2498 -0.4217
 1701W        W18548  13.639  10.815   3.934  0.0959 -0.1905  0.1616
 1702W        W18549  18.812   2.125   1.264 -0.0884  0.1091  0.1036
 1703W        W18550  12.834   3.570  12.817  0.0053 -0.0182 -0.0868
 1704W        W18551   1.604   3.081  11.700 -0.1177 -0.0890  0.1037
 1705W        W18552   5.826  12.250  14.593 -0.0998 -0.1518  0.1265
 1706W        W18553   2.326   4.588   1.690  0.3547 -0.0722 -0.0369
 1707W        W18554  15.656  11.259   4.612 -0.1646 -0.0337  0.1258
 1708W        W18555   0.362  10.981  13.587  0.1419  0.3250 -0.1509
 1709W        W18556  15.496   7.379  12.474  0.0304  0.0450  0.4004
 1710W        W18557  15.824  15.651   2.385  0.0306  0.3995  0.0732
 1711W        W18558  18.060   5.073   2.911  0.2386 -0.1021 -0.2867
 1712W        W18559   2.862  14.762   4.389 -0.2573  0.1202  0.0095
 1713W        W18560  18.542   8.385  13.272  0.0134  0.2818 -0.4278
 1714W        W18561   7.284   9.531   5.353  0.1291 -0.0299  0.1563
 1715W        W18562  17.768  11.736   0.728  0.0596  0.0856  0.0349
 1716W        W18563  13.811  15.479   3.747  0.1731  0.0190 -0.1267
 1717W        W18564  15.938   8.176   2.362 -0.1252 -0.1364  0.1050
 1718W        W18565   1.719   5.843  12.578  0.2448  0.0714 -0.2407
 1719W        W18566  14.884  11.298   1.549  0.0970  0.0551 -0.1899
 1720W        W18567   3.607   8.424   4.314  0.3147 -0.0625  0.2328
 1721W        W18568   1.956   9.157  15.676  0.2930  0.5010 -0.1516
 1722W        W18569  12.612   8.893   0.364 -0.2524 -0.0572  0.0294
 1723W        W18570   8.239   6.426   4.594  0.1871  0.0295  0.3209
 1724W        W18571   7.342   0.051   2.510  0.2023 -0.0396 -0.3652
 1725W        W18572  15.186   2.305   3.609  0.0877 -0.1118 -0.0340
 1726W        W18573   0.023   2.358   3.018 -0.0421  0.1193  0.0923
 1727W        W18574   3.685  12.734  14.163 -0.3223 -0.3832  0.1578
 1728W        W18575  11.851  18.594   3.041  0.2296 -0.1197 -0.2861
 1729W        W18576   4.082  16.588   3.938 -0.2663 -0.4950  0.0194
 1730W        W18577   4.189  17.982   3.156 -0.0679  0.0210 -0.1054
 1731W        W18578  18.004   7.065   5.063 -0.1632 -0.0711  0.2034
 1732W        W18579   7.754   0.188   2.298 -0.3960 -0.0399 -0.1490
 1733W        W18580   9.474  12.763  15.531  0.0415 -0.2543 -0.2952
 1734W        W18581  18.162   9.230   0.913  0.4273 -0.0668 -0.1617
 1735W        W18582  10.474   5.605   2.374 -0.2090  0.2817 -0.0683
 1736W        W18583  15.591   5.273  12.414  0.1340  0.0304  0.3141
 1737W        W18584   4.304  16.197   0.513 -0.2712 -0.1414  0.1863
 1738W        W18585   1.385   7.246   3.767  0.1551  0.2694 -0.1427
 1739W        W18586   1.684   7.079   4.106 -0.1064 -0.1798  0.1187
 1740W        W18587   7.119  18.414  15.419  0.2090 -0.3118  0.3449
 1741W        W18588  14.402  14.795   3.607 -0.0505  0.1173  0.1208
 1742W        W18589   9.161  13.612   4.561 -0.1675 -0.1890 -0.1515
 1743W        W18590   9.260  16.856   1.705  0.3653 -0.2176 -0.1685
 1744W        W18591   1.956  13.161   3.108  0.1629  0.0673 -0.0742
 1745W        W18592   1.028  12.321  10.785  0.0544  0.1436 -0.0825
 1746W        W18593   7.181   5.570  14.039 -0.3631 -0.2648 -0.0398
 1747W        W18594   0.712  13.128   2.149  0.2682  0.1153 -0.1453
 1748W        W18595   2.309   0.998   1.757 -0.1187 -0.0305  0.1937
 1749W        W18596   2.942   8.822   3.015  0.1208 -0.0378  0.3625
 1750W        W18597   2.656   3.694   3.307 -0.0291 -0.0245  0.0333
 1751W        W18598  14.115  15.370   2.627 -0.2084 -0.4689  0.0074
 1752W        W18599  18.759  11.941  13.840 -0.0715 -0.1792 -0.3127
 1753W        W18600   3.838  14.193   0.983 -0.0747  0.2095  0.0875
 1754W        W18601  15.366   5.537   0.112  0.0948  0.2032 -0.0315
 1755W        W18602  13.172   7.547   4.430 -0.1384 -0.1056  0.0475
 1756W        W18603  15.696  13.404  13.837  0.0968  0.0995 -0.1327
 1757W        W18604  16.969   4.243  12.917 -0.2244  0.1383  0.2002
 1758W        W18605  11.565   0.081   4.845  0.2061 -0.0037 -0.1267
 1759W        W18606  17.383   1.252  14.852  0.0387  0.5727  0.0449
 1760W        W18607  17.360  10.688  15.560 -0.0390  0.1192  0.2299
 1761W        W18608   7.324   5.524  13.512 -0.1455  0.1452 -0.0593
 1762W        W18609   3.519   5.110  14.791 -0.5216 -0.1069 -0.3157
 1763W        W18610  16.474  14.855  12.378 -0.1040 -0.0059  0.2095
 1764W        W18611  11.904  16.833   5.678 -0.0728  0.3460  0.0545
 1765W        W18612   3.231   3.185   2.911 -0.1662 -0.3965  0.0668
 1766W        W18613  13.838  10.561   1.398  0.0044  0.1711 -0.1298
 1767W        W18614   7.843  18.129   4.200 -0.0449  0.0127  0.1043
 1768W        W18615   1.919  11.326  14.352 -0.2441  0.1265  0.2992
 1769W        W18616   7.640  14.462  11.715  0.0627 -0.0401  0.2478
 1770W        W18617   3.176   3.249  10.885  0.0493  0.3184  0.0788
 1771W        W18618  13.424   3.594  11.178 -0.3455 -0.2814  0.0040
 1772W        W18619   9.730  11.140  14.946 -0.0183 -0.1773 -0.0930
 1773W        W18620   0.089   5.511  15.566  0.0170 -0.1404  0.0497
 1774W        W18621   2.026  17.334   4.143  0.0913  0.2485  0.0864
 1775W        W18622  11.335  12.362   1.222 -0.1124  0.1200  0.0630
 1776W        W18623   6.152   2.460  12.991  0.0793  0.1611 -0.1022
 1777W        W18624  11.152   6.350  13.798 -0.0492 -0.2900  0.0875
 1778W        W18625   2.984   3.798   4.366  0.1288 -0.0455  0.1085
 1779W        W18626  11.376  12.782  14.844  0.1979  0.0578 -0.0246
 1780W        W18627   1.961  10.478   2.769  0.1795  0.0278  0.0954
 1781W        W18628   1.843   4.537   1.396 -0.1073  0.0405 -0.1166
 1782W        W18629   1.825   8.105  11.336  0.2457  0.1445  0.1149
 1783W        W18630   4.462  11.690  14.688  0.1954  0.1932 -0.0723
 1784W        W18631  18.266   7.596   2.627  0.1110 -0.5589 -0.1235
 1785W        W18632  16.307  11.618  14.830  0.1768  0.0234 -0.2608
 1786W        W18633   9.629  11.995  13.249  0.2285 -0.1451  0.1734
 1787W        W18634  10.708  14.379   2.091 -0.0003  0.0241 -0.0087
 1788W        W18635  16.393   9.342  14.801 -0.0971  0.0425 -0.0570
 1789W        W18636   3.450   2.517  12.583  0.1369  0.0931  0.0603
 1790W        W18637  10.015   5.956  11.150  0.3364  0.0887 -0.2911
 1791W        W18638   8.226   2.259   4.644  0.1297 -0.4093  0.5726
 1792W        W18639   2.413   2.236   3.301 -0.0397 -0.1313  0.1256
 1793W        W18640   0.132  15.661   4.193 -0.2496 -0.2286  0.0181
 1794W        W18641   4.890  16.304   0.862  0.0207 -0.0397 -0.1176
 1795W        W18642  13.683  16.209  12.850 -0.0352  0.2311 -0.2738
 1796W        W18643  12.998   7.794  12.641 -0.3103  0.0264 -0.1376
 1797W        W18644   1.430   5.937   3.006 -0.2211  0.0954  0.0051
 1798W        W18645  16.377  14.647   0.815  0.2080 -0.0331  0.1067
 1799W        W18646   0.797   5.420   0.626 -0.0351 -0.3121  0.2965
 1800W        W18647   0.417   1.841  12.768 -0.2997 -0.2416  0.0692
 1801W        W18648  10.008   7.274   2.735 -0.1455 -0.3287 -0.0056
 1802W        W18649  18.811  11.212   2.560 -0.1507 -0.1400 -0.1805
 1803W        W18650   6.360   1.571   4.581  0.2333 -0.0494  0.2593
 1804W        W18651   9.232  15.974  13.989  0.1529 -0.0086 -0.0258
 1805W        W18652   0.886   1.169   0.909 -0.0594 -0.1210 -0.0602
 1806W        W18653  14.629  15.998   4.664  0.0027  0.2726 -0.0061
 1807W        W18654  16.793   7.057  15.501  0.2053  0.2157  0.1815
 1808W        W18655   7.742  10.570   0.396 -0.2556  0.1751  0.1930
 1809W        W18656   4.288  17.344  12.445 -0.2185 -0.4567  0.3828
 1810W        W18657   5.151  11.943  15.201 -0.1572 -0.1721  0.4337
 1811W        W18658  13.173  13.607  11.427 -0.1757  0.0608 -0.1339
 1812W        W18659  15.748   4.667  10.310 -0.0116 -0.1755 -0.2363
 1813W        W18660   2.131  16.983  14.908 -0.1247  0.2612  0.2445
 1814W        W18661   9.155   3.074   0.603  0.2278 -0.2324  0.1548
 1815W        W18662  11.427  12.969   5.483  0.3227 -0.0975 -0.0179
 1816W        W18663  17.396  14.078   3.382 -0.0132 -0.2374 -0.2313
 1817W        W18664   5.253  13.332  11.419 -0.0744 -0.0376 -0.2458
 1818W        W18665   6.148   2.451  10.892  0.0966 -0.0335 -0.2357
 1819W        W18666  16.395  13.135  11.143  0.3851 -0.2673 -0.0765
 1820W        W18667   3.098  17.283  13.031  0.0083  0.0253  0.1583
 1821W        W18668  12.288   4.038  12.926  0.3416  0.0016 -0.1881
 1822W        W18669   5.473  12.342  11.226 -0.0231 -0.1044 -0.1093
 1823W        W18670  12.581   4.769  13.221 -0.2992  0.1350  0.1953
 1824W        W18671  10.409  12.264   1.668  0.1289  0.1807  0.2534
 1825W        W18672   2.617   1.985   2.909  0.1842  0.1793  0.1860
 1826W        W18673   8.700   9.051   4.754 -0.0028  0.0951 -0.0801
 1827W        W18674   3.901  14.374  13.780  0.0916 -0.0750 -0.1942
 1828W        W18675   8.105   8.041   0.912 -0.2820 -0.0917 -0.1939
 1829W        W18676  18.274   7.094   1.043  0.1525  0.2415 -0.4094
 1830W        W18677  11.865  13.053   0.515  0.0032 -0.0497 -0.1976
 1831W        W18678   0.678   1.067   0.419  0.0064 -0.1351 -0.0195
 1832W        W18679   0.930  15.971   3.020  0.0075 -0.1276 -0.2163
 1833W        W18680   4.863  15.432  14.253 -0.1439 -0.4572 -0.0516
 1834W        W18681   4.952   2.026   0.579  0.1325 -0.0258  0.1543
 1835W        W18682   7.798  12.251   0.372  0.0504 -0.0326 -0.0012
 1836W        W18683  10.600   7.234  15.442 -0.0770  0.0730  0.1009
 1837W        W18684  10.977   3.028   2.755  0.1185  0.0645  0.0471
 1838W        W18685   8.440   8.153  14.332 -0.2786  0.0846  0.1566
 1839W        W18686   0.780   3.705   1.572  0.0661 -0.3778 -0.1281
 1840W        W18687  12.275   8.472  10.768  0.1261  0.0880  0.2468
 1841W        W18688  11.800   2.817  13.727  0.2596  0.6798 -0.0287
 1842W        W18689   5.321  15.613  13.386  0.0709 -0.1758 -0.0420
 1843W        W18690  12.042  14.648  12.653 -0.1770  0.0652  0.1674
 1844W        W18691   2.741  14.278  11.195 -0.0882 -0.1539 -0.2366
 1845W        W18692  16.217  13.568   4.024 -0.1628  0.0005 -0.1989
 1846W        W18693  11.262  17.438  10.985 -0.1642  0.0070 -0.0755
 1847W        W18694   6.971  12.111  14.494  0.0203 -0.1781  0.1935
 1848W        W18695  13.120  11.903   4.748 -0.3910  0.0185 -0.0611
 1849W        W18696  12.180   1.784  13.103  0.2155  0.3642 -0.0945
 1850W        W18697  16.942   6.915   1.134 -0.0302  0.3753  0.3327
 1851W        W18698   1.379   8.431   4.462 -0.0942  0.1109  0.2732
 1852W        W18699   3.619   2.032  14.392  0.4331  0.0986 -0.1244
 1853W        W18700  17.069   9.973  13.547  0.1778  0.0787 -0.0065
 1854W        W18701   6.638  15.701   5.396 -0.0452 -0.0112 -0.2068
 1855W        W18702   1.618   2.503  12.804 -0.0449  0.0459 -0.1703
 1856W        W18703  14.115   8.879   2.495  0.0951 -0.1126 -0.0350
 1857W        W18704   6.585   5.522  11.609  0.0868  0.2027 -0.2177
 1858W        W18705  11.013  11.890   3.692 -0.2484  0.0353  0.4341
 1859W        W18706   1.704   4.501   3.407 -0.1740  0.2855  0.0908
 1860W        W18707   7.185   1.397   1.925  0.1654 -0.1812 -0.2216
 1861W        W18708   1.839  16.194   4.768  0.0924  0.1884  0.0987
 1862W        W18709  12.257   8.696   2.132 -0.1521 -0.0998 -0.2081
 1863W        W18710  10.807  16.441  11.005 -0.2262  0.0449  0.2939
 1864W        W18711  10.429   3.821  12.038 -0.3049  0.1458  0.1177
 1865W        W18712   2.379  15.308  13.452  0.2632  0.1042 -0.2584
 1866W        W18713   4.487   3.613  15.114 -0.1987  0.1023 -0.0399
 1867W        W18714  16.904   8.011   2.914  0.1289  0.3315  0.0430
 1868W        W18715   9.001   2.914   4.444  0.1513  0.3380 -0.0691
 1869W        W18716  17.664   3.712  14.848 -0.1270  0.3125  0.0058
 1870W        W18717  11.394   6.515   3.371 -0.1049  0.1595  0.2316
 1871W        W18718  14.683   6.490  13.139  0.1084  0.1295  0.1108
 1872W        W18719  16.784  10.027  12.417  0.0695 -0.3775  0.2330
 1873W        W18720   1.189   7.295   0.182  0.4944 -0.1826  0.0924
 1874W        W18721   3.527  13.370   3.156  0.1459 -0.1308 -0.2114
 1875W        W18722   6.308   3.572   4.602  0.2595 -0.3024 -0.0697
 1876W        W18723  18.317   9.136   0.051 -0.0616 -0.0321  0.1747
 1877W        W18724   8.685  12.850   0.308 -0.0494 -0.2359 -0.0106
 1878W        W18725  18.601  13.362  11.660 -0.0709  0.2099 -0.0627
 1879W        W18726   4.256  17.368   3.709  0.0768  0.1356 -0.5166
 1880W        W18727  13.353   9.845   5.022 -0.0524  0.1149  0.0525
 1881W        W18728  17.975  12.383   3.970  0.0327 -0.1031  0.0126
 1882W        W18729  17.886  13.380   1.903  0.1978 -0.1451  0.0054
 1883W        W18730   1.039   5.933  11.610 -0.0203 -0.1866  0.2196
 1884W        W18731  18.319   9.035  11.805 -0.1875  0.2267 -0.1410
 1885W        W18732   7.700  13.697   5.354 -0.4829  0.1580  0.3453
 1886W        W18733   9.955  10.547  14.215 -0.0352  0.1523  0.2387
 1887W        W18734  17.966  15.435  13.406  0.0909 -0.0408  0.0455
 1888W        W18735  17.774   5.220   6.513  0.0589 -0.1148  0.0824
 1889W        W18736  14.973   2.587   2.177 -0.1537  0.0770 -0.3041
 1890W        W18737   7.238   3.349   2.127  0.0074 -0.0675  0.3085
 1891W        W18738   4.739   4.591   0.673  0.0492  0.1441  0.0312
 1892W        W18739  13.280  16.045  13.606  0.2140  0.2900 -0.1195
 1893W        W18740   2.759   6.035  13.487  0.0613 -0.3610  0.0498
 1894W        W18741   0.186   0.545   0.417 -0.4931 -0.0335  0.2300
 1895W        W18742   7.341   1.211  15.179 -0.2210  0.3615  0.1619
 1896W        W18743   1.965  16.097  14.936  0.1537 -0.1785 -0.2288
 1897W        W18744   0.408  10.119   3.833  0.1724  0.1551  0.0308
 1898W        W18745  18.348   6.028   3.705  0.2115  0.0030 -0.0900
 1899W        W18746  16.866   3.883   0.767 -0.0599 -0.4379 -0.1440
 1900W        W18747  18.450  12.795  15.129  0.1202  0.3575  0.0835
 1901W        W18748  12.580  17.717   1.396 -0.0601 -0.0862  0.1685
 1902W        W18749  17.722  10.538   2.227 -0.1116  0.1900  0.0422
 1903W        W18750   4.859  17.151  13.038  0.0777  0.0402  0.0653
 1904W        W18751   0.924  15.039   2.826  0.1545 -0.0358 -0.1739
 1905W        W18752  11.367  18.641   4.429 -0.0351  0.0611 -0.0386
 1906W        W18753  17.313   3.007   1.413  0.3763  0.1617  0.0936
 1907W        W18754   0.989   5.822   2.168  0.1604 -0.2530  0.2720
 1908W        W18755  16.144  12.174   1.651 -0.2342 -0.4151  0.1588
 1909W        W18756  15.168   3.062   3.306  0.0004 -0.1821  0.2089
 1910W        W18757   5.810   7.394   5.368 -0.3544 -0.1796 -0.0295
 1911W        W18758  17.689  12.308  15.082  0.2314 -0.1736 -0.1453
 1912W        W18759   8.100   9.425  15.164  0.1255 -0.0623  0.0079
 1913W        W18760  13.984   3.403  11.360 -0.1890  0.4054  0.0782
 1914W        W18761   0.061   8.927   4.270 -0.3340  0.2179  0.0594
 1915W        W18762  18.808   0.868  12.624 -0.3058 -0.3000  0.1789
 1916W        W18763   8.219  11.058   3.086  0.2561  0.0136 -0.1732
 1917W        W18764  12.794   0.099  12.504 -0.0799  0.0273  0.4707
 1918W        W18765   0.804   9.643   1.862 -0.1047 -0.1938  0.0768
 1919W        W18766   3.720   4.942   3.512 -0.1767 -0.0421  0.0087
 1920W        W18767   9.116  12.721   4.574 -0.0748  0.1029  0.0286
 1921W        W18768   4.912  15.303  11.269 -0.0791  0.2162 -0.3198
 1922W        W18769  11.452   0.478   0.349  0.2768  0.1625 -0.1786
 1923W        W18770   9.138  17.600  11.516  0.1020 -0.1913 -0.1366
 1924W        W18771   4.546  13.988  15.306 -0.1395  0.1810 -0.2060
 1925W        W18772   7.748   2.888  15.264 -0.1766 -0.0401  0.1976
 1926W        W18773   0.441  13.095   1.390 -0.2266  0.0010 -0.0126
 1927W        W18774   1.076  17.967  12.210  0.3705  0.0117  0.1948
 1928W        W18775   5.448  16.579  11.177  0.0038 -0.1200 -0.1902
 1929W        W18776   1.117  16.632  15.746  0.0127  0.0999  0.1071
 1930W        W18777  15.652  13.119   3.777  0.0502  0.0269 -0.1693
 1931W        W18778  15.016   9.633  15.070 -0.0873 -0.0788  0.2864
 1932W        W18779   1.416  17.615  15.752  0.0079  0.0264 -0.2222
 1933W        W18780   8.662  18.552  13.762 -0.2326 -0.0964  0.0696
 1934W        W18781   3.130   7.526  12.061 -0.0854 -0.4233 -0.2002
 1935W        W18782   9.434   7.847   3.323  0.0954  0.0848  0.1057
 1936W        W18783  15.804   2.085   4.573 -0.2036 -0.3014 -0.1696
 1937W        W18784   0.345   1.836   2.308  0.3392  0.0825 -0.1172
 1938W        W18785   9.776  16.838   4.129  0.3324  0.3350  0.0385
 1939W        W18786   4.476  15.810  14.970 -0.1087  0.0613 -0.2413
 1940W        W18787  12.986   4.386  12.381  0.1022 -0.1810  0.2986
 1941W        W18788   2.607  10.750  12.593  0.0967 -0.2455  0.2589
 1942W        W18789   1.276   8.993   4.699  0.3211  0.1792  0.0241
 1943W        W18790  14.916  13.302  12.119  0.2426  0.1194  0.0800
 1944W        W18791  14.362   6.108   5.153  0.0993 -0.0823 -0.0896
 1945W        W18792   5.043  15.690  10.930 -0.2843  0.2000  0.1425
 1946W        W18793   2.167  15.547   3.631 -0.0535 -0.0072 -0.0986
 1947W        W18794   8.917  18.094  13.762  0.1379  0.1653  0.2983
 1948W        W18795  16.485  13.083   1.528 -0.0875  0.2489  0.0505
 1949W        W18796   7.664   8.699  12.993  0.0844  0.0700 -0.1928
 1950W        W18797   6.339  13.999   0.889 -0.0341  0.0119 -0.1880
 1951W        W18798   7.357   9.513   0.729  0.0502  0.1154 -0.1795
 1952W        W18799   2.790  18.629   2.453 -0.0453 -0.3766  0.2478
 1953W        W18800  15.339  17.842  15.476 -0.2854 -0.0457 -0.2069
 1954W        W18801   7.786   6.167  14.532 -0.1576  0.0964 -0.0116
 1955W        W18802  10.470  11.527  15.641 -0.0276  0.0654  0.1274
 1956W        W18803  13.935   8.342  14.333 -0.2107  0.0534  0.0008
 1957W        W18804  16.302   7.760  11.943 -0.0421  0.1161 -0.2831
 1958W        W18805   5.446  10.553  14.453  0.2106 -0.3536 -0.2582
 1959W        W18806  15.781  18.488   2.151  0.0064  0.0960 -0.3079
 1960W        W18807   8.251  15.275   2.696  0.2092 -0.1173  0.1359
 1961W        W18808  13.306  13.376   5.365 -0.0914 -0.0906 -0.1534
 1962W        W18809   1.429  12.106   4.409 -0.1134 -0.4448 -0.2185
 1963W        W18810   6.012   5.396   2.645 -0.0733  0.0725  0.0906
 1964W        W18811   3.451   4.257  15.726  0.3237 -0.0064  0.1207
 1965W        W18812   1.133   3.715   3.534 -0.0259  0.2164 -0.1008
 1966W        W18813   4.108  17.329  11.934 -0.1890  0.1528  0.2389
 1967W        W18814  11.331   4.560  14.505  0.0790 -0.0738  0.0517
 1968W        W18815   1.591  13.679   4.349 -0.1945 -0.2790 -0.2536
 1969W        W18816  13.082  17.590  14.059 -0.2246  0.0526 -0.0448
 1970W        W18817  12.652   1.007  11.339 -0.0258  0.2055 -0.0925
 1971W        W18818   1.798   3.114   0.659  0.3515 -0.1748 -0.0321
 1972W        W18819  18.836   0.989  13.106  0.1579 -0.2940  0.2354
 1973W        W18820   9.540   8.432  12.814  0.1503  0.2998  0.0993
 1974W        W18821   3.243   3.990   4.759 -0.1924  0.1463 -0.0776
 1975W        W18822  18.322   8.202   6.116  0.1354 -0.1478  0.1354
 1976W        W18823  14.765   9.313   3.679 -0.2565  0.0677 -0.0481
 1977W        W18824  11.515   7.977   2.182  0.1202  0.0070 -0.5392
 1978W        W18825  16.617   5.486  14.829 -0.3683 -0.4304  0.3279
 1979W        W18826   4.728  13.302  11.041  0.1356  0.2629 -0.1724
 1980W        W18827  15.094  13.638   2.119 -0.3183 -0.0256 -0.0733
 1981W        W18828   3.971  15.312  12.764  0.3432 -0.2249 -0.0762
 1982W        W18829   1.169   1.930   2.647  0.0430  0.1680 -0.2071
 1983W        W18830  12.440   7.060   4.632 -0.3269 -0.1074  0.3654
 1984W        W18831   1.833   1.317   1.218 -0.1956 -0.1321  0.0022
 1985W        W18832   5.079   8.532  13.340  0.0110  0.2137  0.0714
 1986W        W18833   3.169   1.182  15.440 -0.0383  0.0689  0.1683
 1987W        W18834   6.970  12.708   4.221  0.2144 -0.1045 -0.0574
 1988W        W18835   5.213  14.403   2.926  0.4675  0.2557  0.0020
 1989W        W18836   9.190  12.935  12.229 -0.2204  0.2249  0.0698
 1990W        W18837  13.137  10.871  14.195 -0.3105 -0.0269 -0.1790
 1991W        W18838  13.195   0.681  13.239  0.1654 -0.2203  0.0943
 1992W        W18839   0.637  18.638   0.620  0.0607  0.3293 -0.1723
 1993W        W18840  10.234  17.748  14.229  0.2690 -0.2378 -0.5340
 1994W        W18841   3.909   4.015   3.113  0.3415  0.0016  0.1740
 1995W        W18842  14.541   4.545  14.095  0.0381 -0.2119  0.1821
 1996W        W18843  17.545   1.856   0.331  0.3223 -0.0500 -0.0996
 1997W        W18844  17.966   8.478   0.655  0.6073  0.0501  0.0989
 1998W        W18845   5.267  15.894  12.448 -0.0719  0.0214  0.0722
 1999W        W18846   0.055  18.440   1.599  0.1817 -0.0705  0.0783
 2000W        W18847   3.119   2.064   3.748 -0.3608 -0.0721  0.0092
 2001W        W18848  12.126   4.379   4.483  0.0965 -0.1748  0.0366
 2002W        W18849   4.884   1.833   2.378  0.1608  0.3090  0.2715
 2003W        W18850  13.888   9.385  13.708 -0.1319  0.0690 -0.1329
 2004W        W18851   0.458   9.889  15.118  0.1546 -0.8244 -0.1832
 2005W        W18852  12.043   7.342  14.963  0.1177 -0.1415  0.1469
 2006W        W18853  15.593   6.168   0.021  0.0519 -0.0929  0.2520
 2007W        W18854   5.018  16.246   3.510  0.1429  0.3725  0.3966
 2008W        W18855   9.263  16.447   2.524  0.1873  0.0925 -0.1112
 2009W        W18856  14.106   1.825   2.386 -0.1459 -0.1162 -0.2351
 2010W        W18857   5.647   0.487  13.808  0.0015  0.2580 -0.3000
 2011W        W18858   8.421   3.300   4.284  0.1438  0.2364 -0.0416
 2012W        W18859   9.579   0.003  11.893 -0.2369 -0.0908  0.0949
 2013W        W18860   5.729   5.292   0.494  0.1507  0.2540 -0.0453
 2014W        W18861  17.938   4.542  13.870 -0.2885  0.0546  0.2018
 2015W        W18862  16.444   9.546   0.403  0.0320 -0.3076  0.1842
 2016W        W18863   2.654   0.314   1.267 -0.0366 -0.0393 -0.1675
 2017W        W18864  18.678   7.887   6.251 -0.2357  0.1557 -0.2280
 2018W        W18865   1.227   4.385   2.189 -0.0930 -0.1255 -0.0878
 2019W        W18866  14.679   1.170   1.315 -0.0840 -0.0305 -0.3321
 2020W        W18867   7.096  14.886  13.902 -0.1057 -0.0045 -0.0390
 2021W        W18868   2.319  11.935  11.786  0.0398  0.5009  0.0128
 2022W        W18869   3.131  12.961  14.829  0.2337  0.0061 -0.0552
 2023W        W18870   1.842  14.708   1.655 -0.0038 -0.0770 -0.3066
 2024W        W18871   0.166  14.924  15.599 -0.1528  0.0175  0.0243
 2025W        W18872   9.638  15.985  14.366 -0.1167  0.0280 -0.0026
 2026W        W18873  17.350   4.887   1.454  0.1631  0.0889  0.0637
 2027W        W18874   8.333  11.251   4.766 -0.2934  0.1595  0.1294
 2028W        W18875  10.819  15.448  11.192 -0.0097 -0.2522  0.2053
 2029W        W18876  10.001  12.385   2.576  0.2836  0.1829 -0.1273
 2030W        W18877   1.638  11.024   2.101  0.3087  0.3276  0.0792
 2031W        W18878  18.510  11.685   4.279 -0.1793 -0.1488  0.2582
 2032W        W18879   3.958   0.259  15.154 -0.2882  0.3202 -0.0639
 2033W        W18880   2.519   1.426   0.688 -0.2480 -0.0629  0.2130
 2034W        W18881  18.526   3.123   0.936 -0.1478  0.1738 -0.0544
 2035W        W18882   5.828   4.243  11.894 -0.0227 -0.0378 -0.2107
 2036W        W18883   7.945   8.835  11.990  0.0135  0.0996  0.1183
 2037W        W18884   8.956   7.596  12.040  0.1638  0.1155 -0.0283
 2038W        W18885   9.238   2.191   1.439 -0.1441 -0.1261 -0.3334
 2039W        W18886  10.337   1.824  14.825 -0.0098 -0.2183 -0.1330
 2040W        W18887  14.520   8.884  13.473  0.0237 -0.3147 -0.0499
 2041W        W18888   5.179  13.850   2.642  0.3089  0.0652 -0.0982
 2042W        W18889   2.705  12.647   4.918 -0.2596  0.3577 -0.1531
 2043W        W18890   1.603  11.375  12.072  0.1387 -0.1279 -0.0280
 2044W        W18891   6.872   2.716  12.244 -0.2916  0.1620 -0.0888
 2045W        W18892  16.865  11.399  11.930 -0.2166  0.2058  0.3051
 2046W        W18893  15.014   7.212   5.772 -0.0291 -0.0655  0.0901
 2047W        W18894   4.172  12.861   4.754 -0.0635 -0.0501 -0.0411
 2048W        W18895   9.463  18.694   1.011 -0.1097 -0.1433 -0.1119
 2049W        W18896   1.637  17.052   4.056 -0.1261 -0.1418  0.0573
 2050W        W18897   0.566   8.499  12.364  0.0274  0.1135 -0.4827
 2051W        W18898  13.246   0.142   4.536 -0.3597 -0.0612  0.2041
 2052W        W18899  17.130  18.826   0.341  0.1537  0.0620 -0.2807
 2053W        W18900  18.325   0.779  11.954  0.3716 -0.1075 -0.0066
 2054W        W18901  10.910   5.512   5.620 -0.1932 -0.2123  0.0228
 2055W        W18902   2.604  18.804   2.985 -0.0930  0.0056  0.0595
 2056W        W18903   6.722  10.361  14.024  0.0889  0.1496 -0.1998
 2057W        W18904   8.581   6.496  11.838 -0.3090  0.0270 -0.1592
 2058W        W18905  11.476  13.957   1.750 -0.3107 -0.1234 -0.2328
 2059W        W18906  13.885   1.640  14.389  0.1027 -0.1983  0.0042
 2060W        W18907   3.355  18.152  11.199 -0.1626 -0.1478 -0.0186
 2061W        W18908  14.647   7.099   3.002 -0.2069  0.0693  0.0806
 2062W        W18909   0.109   9.403   1.280  0.0865  0.0294 -0.1502
 2063W        W18910   9.189  16.079  14.665  0.4405 -0.1033 -0.2392
 2064W        W18911   9.715   5.141   2.405  0.3568  0.0414  0.1119
 2065W        W18912   8.963  16.327  11.962  0.3921  0.0274 -0.1978
 2066W        W18913  14.037  14.488   3.661 -0.1377  0.1650  0.0844
 2067W        W18914   7.956  11.674  13.642  0.3131  0.0648  0.2144
 2068W        W18915  10.451   3.975   3.256 -0.2828 -0.2121  0.0395
 2069W        W18916  13.914   8.541   2.851 -0.1500  0.2208 -0.0127
 2070W        W18917  16.298  11.173   4.000  0.2331 -0.1175  0.1052
 2071W        W18918  10.794  14.640  14.662  0.1423  0.1280  0.1693
 2072W        W18919   3.486   9.702  14.272 -0.1594 -0.0968 -0.1783
 2073W        W18920   2.638  13.564  10.858  0.0939  0.0941  0.3028
 2074W        W18921   1.346  15.222   2.523 -0.1084  0.0695 -0.0252
 2075W        W18922   6.549  11.939   1.608  0.0494  0.3200  0.4254
 2076W        W18923  17.694   8.387   2.786  0.2761 -0.0974 -0.2023
 2077W        W18924  11.543  12.341   0.745 -0.0236 -0.1273  0.2767
 2078W        W18925  17.096  18.663  13.262 -0.3092  0.1931  0.1427
 2079W        W18926  12.909  15.832  15.434 -0.1823  0.0098 -0.0940
 2080W        W18927   4.656   6.959  15.674 -0.4886 -0.1786  0.4167
 2081W        W18928  12.267  13.271   0.808 -0.0400  0.3553 -0.0869
 2082W        W18929  17.606   7.307  14.862  0.2884  0.3566  0.1942
 2083W        W18930   7.576  11.881   1.636  0.1117 -0.2993  0.2338
 2084W        W18931  11.329   7.751   1.297  0.1807  0.0901  0.0599
 2085W        W18932   5.225  17.713  15.430  0.2020 -0.4196 -0.0126
 2086W        W18933   4.155   6.587  14.647  0.2208 -0.0011 -0.0912
 2087W        W18934  14.408  13.435   3.300 -0.0648 -0.3068 -0.1300
 2088W        W18935  16.724   7.285  13.887  0.0605 -0.0777 -0.1061
 2089W        W18936  11.601  14.942  12.734 -0.0122 -0.1587 -0.0108
 2090W        W18937   1.051   4.579   2.590 -0.1187 -0.1623 -0.0869
 2091W        W18938   5.577   3.372   3.176 -0.0243  0.0352  0.3538
 2092W        W18939  10.808   4.366   2.612 -0.2294  0.1665 -0.1879
 2093W        W18940  16.853  10.508  12.521 -0.0439 -0.2169  0.0044
 2094W        W18941   2.631   1.212  13.797  0.2617  0.0302 -0.3478
 2095W        W18942  15.056   7.582   2.247 -0.2720  0.0740  0.1074
 2096W        W18943   8.702   5.351  12.457  0.1749  0.0618  0.1334
 2097W        W18944   8.185   4.519   3.511  0.1618  0.0539  0.3677
 2098W        W18945  13.601   2.961   0.383 -0.2017 -0.3175  0.0457
 2099W        W18946  13.608  16.419   1.712 -0.1180 -0.0247 -0.2856
 2100W        W18947  18.513   0.596  13.090  0.0497  0.0209  0.2327
 2101W        W18948  15.922   5.828   5.842  0.1060  0.0303  0.0055
 2102W        W18949  17.238  11.763  11.214 -0.0698  0.1602 -0.3716
 2103W        W18950   3.286  16.071   0.174 -0.0748 -0.0752  0.0429
 2104W        W18951   6.178   7.932  11.084  0.5671  0.0840 -0.0927
 2105W        W18952  12.654  16.525   0.259 -0.1017 -0.1228 -0.1695
 2106W        W18953  16.610  11.630  13.997 -0.2817  0.0444 -0.1632
 2107W        W18954  15.264  13.609   3.040 -0.2103  0.0342  0.0566
 2108W        W18955   9.463   1.866   4.938  0.0913  0.0178  0.2350
 2109W        W18956   5.849  18.025   1.613 -0.0101 -0.1899  0.0959
 2110W        W18957   0.554  16.856  11.459  0.1330 -0.4424  0.1314
 2111W        W18958   4.817  17.742  11.726 -0.0187  0.0337 -0.1490
 2112W        W18959   2.344  17.319  12.378  0.2007  0.0435  0.0308
 2113W        W18960   6.534  13.862  10.573 -0.0289  0.2298  0.2262
 2114W        W18961   4.477   2.245  13.898 -0.2582 -0.2138  0.4983
 2115W        W18962  17.463  16.858  14.205  0.2402 -0.2032 -0.2323
 2116W        W18963  12.939  10.238  13.441 -0.0313 -0.0403 -0.2520
 2117W        W18964   7.687  13.295  12.536 -0.0069  0.4258 -0.3820
 2118W        W18965  14.907  17.322  13.436  0.0266  0.3000  0.0954
 2119W        W18966  17.634   9.031   3.448 -0.2254  0.2903  0.1716
 2120W        W18967  12.370  10.279   0.842  0.2088 -0.2065  0.1068
 2121W        W18968  16.079   6.749   4.380  0.1611 -0.1336  0.3299
 2122W        W18969  14.916  14.039   3.601 -0.2393 -0.0136  0.1242
 2123W        W18970  10.955   8.783   5.883 -0.0028 -0.1053 -0.1181
 2124W        W18971  13.045  12.625   4.418 -0.0860  0.0052 -0.1455
 2125W        W18972  10.956  14.418  10.888  0.2914  0.2663  0.2036
 2126W        W18973   4.520  16.649   1.501 -0.1943 -0.2819  0.2301
 2127W        W18974   5.206   8.130  15.589  0.0885  0.1337  0.1200
 2128W        W18975   0.649   5.644   3.990 -0.0574 -0.1713 -0.0652
 2129W        W18976   1.858   8.219  12.206  0.0879  0.1003  0.2339
 2130W        W18977   3.494  10.671  14.883 -0.0217  0.1186 -0.1023
 2131W        W18978   5.594   5.488   4.697 -0.4007  0.2056  0.0061
 2132W        W18979   9.946  14.617  14.923  0.0462  0.0007 -0.0686
 2133W        W18980   3.026  11.830   1.652 -0.1881  0.1892  0.0500
 2134W        W18981   1.680   1.149   0.180 -0.0294  0.1257 -0.2531
 2135W        W18982  13.140  16.736   1.610 -0.0169 -0.2657  0.0216
 2136W        W18983  17.998   4.737  12.350  0.0042  0.2203  0.1000
 2137W        W18984  11.472  11.337   4.475 -0.2848 -0.1913  0.1059
 2138W        W18985   1.563   7.721  13.985 -0.0868 -0.2220  0.3457
 2139W        W18986   6.410  16.058  14.180  0.0279  0.0241  0.1890
 2140W        W18987   7.687   0.621   3.050  0.1452  0.0324 -0.1245
 2141W        W18988  13.407   3.490  14.113  0.1397  0.2057  0.1598
 2142W        W18989  15.922   1.916  14.279  0.0325  0.1843 -0.1744
 2143W        W18990   8.898   3.235   4.857 -0.1557 -0.0124  0.0337
 2144W        W18991  15.135   3.819   2.590  0.1860  0.0424  0.1617
 2145W        W18992   2.706  12.054  14.800  0.0044 -0.1827  0.0927
 2146W        W18993  12.840  17.005  15.067  0.0311  0.0914  0.0327
 2147W        W18994  17.268   0.307  14.210  0.0788 -0.0918 -0.0189
 2148W        W18995  11.999   3.957   2.200  0.0474 -0.2064 -0.3586
 2149W        W18996  11.557   4.294   3.199  0.0697 -0.3683  0.0254
 2150W        W18997  15.089  13.038   3.972 -0.1889  0.2064 -0.0687
 2151W        W18998   8.061  12.705  13.006 -0.1295 -0.1269  0.1596
 2152W        W18999   7.884  11.883  14.145  0.2644  0.0200 -0.0812
 2153W        W19000   6.188   0.259  13.067  0.1942 -0.2976  0.0276
 2154W        W19001   4.018  13.852  13.640  0.0024 -0.1247 -0.1498
 2155W        W19002   8.041   1.249  11.771 -0.1806  0.0418 -0.0116
 2156W        W19003  18.545   7.908  15.634  0.0243  0.2354  0.0562
 2157W        W19004   2.861   8.426   3.314  0.3111  0.3268 -0.3810
 2158W        W19005  16.867   2.377  14.681  0.1847 -0.1951  0.0173
 2159W        W19006   3.163   2.742   4.029 -0.0758 -0.1387 -0.4929
 2160W        W19007  11.206   7.186   5.378 -0.1405  0.0561  0.1691
 2161W        W19008  16.384  14.280  10.440  0.0658 -0.0579 -0.1238
 2162W        W19009  12.658  10.765  12.738 -0.1154  0.0998  0.0742
 2163W        W19010   0.601   8.109   2.792  0.1720 -0.0686 -0.1742
 2164W        W19011  10.742  12.663   1.768  0.0794 -0.0934 -0.2021
 2165W        W19012  15.793   8.384   1.015  0.0910 -0.0206  0.2319
 2166W        W19013  14.779  13.820   3.092  0.2543 -0.1245 -0.1058
 2167W        W19014  16.531   9.268  12.032 -0.0099  0.1597  0.0572
 2168W        W19015   9.247   4.036  12.665 -0.4586 -0.1864 -0.2260
 2169W        W19016  12.952  14.570   4.889  0.1816 -0.1968 -0.0796
 2170W        W19017  17.549   1.439   1.284 -0.1211 -0.1229 -0.1490
 2171W        W19018  11.934  11.351   2.211 -0.2033 -0.2856 -0.1020
 2172W        W19019   8.405  12.390   3.114 -0.0347  0.1368 -0.3198
 2173W        W19020   3.100   9.100  14.597 -0.2092  0.3957 -0.1034
 2174W        W19021  13.918  10.722  13.144  0.3550 -0.4877  0.1025
 2175W        W19022  12.909   2.496  13.427  0.3700 -0.1029 -0.1304
 2176W        W19023   0.098   4.103   3.533  0.1392  0.2570 -0.2296
 2177W        W19024  14.105  14.850  15.775 -0.2819 -0.0182 -0.1438
 2178W        W19025  15.307  12.610   1.871 -0.1926 -0.0048  0.0237
 2179W        W19026  17.653   5.936   6.018 -0.0949 -0.0330  0.2191
 2180W        W19027   2.744   0.669  12.864  0.0646  0.0854 -0.0210
 2181W        W19028  11.051  12.138  10.621 -0.3253 -0.2739  0.2479
 2182W        W19029  12.901  17.928  12.963  0.2687  0.1693  0.0859
 2183W        W19030   8.984  13.145   2.917 -0.1413  0.0737  0.2695
 2184W        W19031   2.770  16.264   4.342 -0.0593 -0.0047 -0.0780
 2185W        W19032   1.621   5.893  14.185  0.1106  0.0394 -0.0919
 2186W        W19033  13.627   6.360  14.113 -0.3316 -0.1110  0.2680
 2187W        W19034   6.418  16.007   3.541  0.2223  0.0860  0.0976
 2188W        W19035   2.769   3.552  13.872  0.0354  0.0442  0.1040
 2189W        W19036  11.717   7.647  14.386  0.0848  0.3739  0.0495
 2190W        W19037   5.042  18.467  14.946 -0.0180  0.1483 -0.0264
 2191W        W19038   9.562   9.175   4.024 -0.0054  0.5183 -0.0626
 2192W        W19039   8.594  10.782   3.458 -0.0421 -0.2716 -0.2724
 2193W        W19040   4.290   8.671  14.908 -0.3567 -0.2566 -0.0846
 2194W        W19041   2.205  13.858  11.967 -0.0149 -0.0846  0.1544
 2195W        W19042  17.370   5.386   3.197  0.1163 -0.2177  0.0324
 2196W        W19043   9.248  17.290  10.477 -0.2505 -0.0939  0.1395
 2197W        W19044  10.552  17.829  12.439 -0.1789  0.1403  0.1618
 2198W        W19045  12.289  16.107   4.042  0.1425 -0.1461 -0.2561
 2199W        W19046   8.409  11.011  15.764  0.0184  0.0511 -0.1609
 2200W        W19047   6.252  11.020  14.451 -0.3361  0.0410  0.3458
 2201W        W19048   7.626  11.457   0.455 -0.0285 -0.1067 -0.3114
 2202W        W19049  11.711   5.741   9.973  0.1744  0.0583  0.4753
 2203W        W19050  18.214   7.851   3.664 -0.1614  0.0699 -0.0895
 2204W        W19051  17.311  18.142   1.014 -0.1338  0.2198 -0.0757
 2205W        W19052  11.399  12.184   3.783 -0.2303 -0.2911  0.2479
 2206W        W19053  10.776   2.495  14.575 -0.0076 -0.3580 -0.0657
 2207W        W19054  13.908  11.857  12.276 -0.3264  0.2287 -0.1093
 2208W        W19055   0.051  13.913   2.912 -0.2729 -0.3361 -0.0319
 2209W        W19056   4.319  16.053  10.763  0.0004  0.0449  0.4959
 2210W        W19057   0.404   9.868   4.998  0.1473 -0.0118  0.2585
 2211W        W19058  13.337  18.708   1.139 -0.0333  0.1742  0.3096
 2212W        W19059   7.333  17.762   0.029  0.1320 -0.1099  0.2186
 2213W        W19060   7.269  12.719   0.630  0.0499 -0.1516  0.2999
 2214W        W19061  10.311   3.494   3.861 -0.1163 -0.0248  0.4489
 2215W        W19062  13.519  18.202  14.678  0.1381 -0.4504 -0.0606
 2216W        W19063   1.190  10.717   1.997  0.1384  0.1068 -0.1778
 2217W        W19064  17.515  12.826  15.132  0.0144  0.2853 -0.0006
 2218W        W19065  16.371  17.990   1.222  0.1479 -0.1625 -0.0323
 2219W        W19066  10.928   0.477   0.408 -0.2062  0.1404  0.1511
 2220W        W19067   2.489   9.984  13.848 -0.1104  0.3392  0.0934
 2221W        W19068  15.743   6.190   0.993 -0.0405  0.0476 -0.0726
 2222W        W19069  13.588   6.551   0.348  0.0913 -0.1595  0.1848
 2223W        W19070   5.053   2.093   4.490  0.3515 -0.3013  0.0498
 2224W        W19071   1.355   3.488   5.384  0.0191  0.1475  0.0451
 2225W        W19072   3.812   6.913  14.950  0.3412 -0.3107  0.1853
 2226W        W19073  13.551  17.672  13.883  0.0333  0.0990  0.0298
 2227W        W19074  15.566   8.907  12.264  0.2606  0.0882 -0.0713
 2228W        W19075  12.509   4.153   4.233 -0.0732 -0.0160 -0.0537
 2229W        W19076   7.414   6.961  12.848  0.1484 -0.0961  0.3205
 2230W        W19077  12.194   9.180  13.156 -0.0759 -0.3956 -0.0977
 2231W        W19078  11.413   1.416   4.521 -0.3204  0.0627 -0.1476
 2232W        W19079  15.883  10.614  11.494 -0.1893 -0.1395  0.1062
 2233W        W19080   5.105  10.935  12.662 -0.0978 -0.2008  0.3946
 2234W        W19081   3.678  11.147  13.441 -0.3535  0.0292 -0.0936
 2235W        W19082  11.503  17.443   0.322  0.5224  0.0907 -0.0074
 2236W        W19083   1.221  17.990  11.202  0.0459 -0.1098  0.0812
 2237W        W19084   5.450  18.068  15.080  0.2072 -0.1706  0.0052
 2238W        W19085   8.457   7.322  13.642  0.0304 -0.0626  0.1200
 2239W        W19086  13.143   9.288  13.220 -0.1658  0.1464 -0.0585
 2240W        W19087   0.986   0.116   0.922 -0.0932  0.3970 -0.0762
 2241W        W19088   4.875  17.853  15.772 -0.0035 -0.2065 -0.0333
 2242W        W19089   7.416   3.784  15.010  0.1316 -0.1242  0.2420
 2243W        W19090   2.532  15.950  12.245  0.3557  0.0253  0.1853
 2244W        W19091   2.311   7.405  12.572 -0.0316 -0.0384 -0.0021
 2245W        W19092  10.433  17.955  12.927  0.2100 -0.1126  0.1219
 2246W        W19093   2.545  11.347   2.000 -0.1446 -0.0354  0.0804
 2247W        W19094  15.378   4.640   4.234 -0.2042  0.0623 -0.1940
 2248W        W19095   3.909  13.656   4.977  0.1076  0.1390 -0.2875
 2249W        W19096  13.510   8.761   1.137  0.1859  0.1079  0.4109
 2250W        W19097  15.830  13.138  12.448 -0.0504 -0.3822 -0.2082
 2251W        W19098  14.182   3.778   2.579  0.3439  0.0405  0.0149
 2252W        W19099   8.311  14.739   2.678 -0.2211 -0.2036 -0.0920
 2253W        W19100   5.375  15.141   4.886  0.0516 -0.0344 -0.0294
 2254W        W19101  11.763  14.869  13.201  0.0273  0.2618 -0.0873
 2255W        W19102   2.754  14.319  14.730  0.1450  0.0990  0.3219
 2256W        W19103  14.278   0.448  11.873 -0.1793 -0.1570 -0.1309
 2257W        W19104   9.536  16.835   2.747 -0.0796 -0.0376 -0.0883
 2258W        W19105  15.385   4.858  12.755 -0.2497  0.0851 -0.1001
 2259W        W19106   2.858  16.708   4.621 -0.1812 -0.0541  0.0894
 2260W        W19107   3.841   6.481  11.689 -0.5355  0.1588 -0.3352
 2261W        W19108   0.560  17.607  12.013 -0.0121 -0.3431 -0.0658
 2262W        W19109  14.073   4.572  14.268  0.2243 -0.3839  0.0354
 2263W        W19110   6.566  14.939   0.988 -0.0011 -0.0275  0.0610
 2264W        W19111   7.130  10.876   4.262 -0.1222 -0.0882 -0.1599
 2265W        W19112   0.950   5.088  12.065  0.0541  0.0668 -0.1245
 2266W        W19113  10.614   8.271  15.506  0.2130  0.3699  0.4112
 2267W        W19114   0.715  12.239  12.542 -0.0356 -0.1608  0.0661
 2268W        W19115  14.147   5.068  12.443  0.0221  0.1731 -0.1640
 2269W        W19116   2.134  11.182  13.693 -0.0286 -0.2272  0.0580
 2270W        W19117  15.715   9.508  13.238  0.0543  0.1948 -0.0845
 2271W        W19118  15.401   6.141   3.561  0.3705 -0.2679 -0.0554
 2272W        W19119  10.170  11.950  12.537  0.4479 -0.0207  0.2887
 2273W        W19120   0.226  12.261   2.647  0.0396 -0.3013 -0.0488
 2274W        W19121  10.105  10.473   3.965 -0.0652 -0.5056 -0.1383
 2275W        W19122   1.886  18.370  15.443  0.0342  0.0528 -0.1391
 2276W        W19123   4.419   8.274   3.712 -0.0557 -0.0070  0.2442
 2277W        W19124   7.735   5.347   3.144 -0.1451 -0.2930  0.3284
 2278W        W19125   5.271   1.270   1.886  0.2003 -0.0651 -0.0873
 2279W        W19126  15.958   7.816  13.850  0.1609 -0.0139  0.1959
 2280W        W19127  10.144   3.719  15.674  0.1012 -0.1605 -0.1617
 2281W        W19128  14.784   2.072  13.391 -0.3776 -0.3924  0.1726
 2282W        W19129   6.675   0.287   2.019 -0.0188 -0.4560  0.0827
 2283W        W19130  15.360  11.970   1.552 -0.2939 -0.1344 -0.0577
 2284W        W19131  18.270   4.163   1.542 -0.2393 -0.1590  0.0253
 2285W        W19132  10.644  11.450   9.625 -0.1454 -0.0086  0.0269
 2286W        W19133  10.037  17.636  12.282 -0.0681  0.3620 -0.2280
 2287W        W19134   2.398   4.597  12.861 -0.0897  0.1461  0.0419
 2288W        W19135  17.994  11.944  13.968  0.1943 -0.2614 -0.0959
 2289W        W19136  11.144   8.873  15.338 -0.2009  0.0917 -0.2421
 2290W        W19137  16.912   1.636  12.316 -0.2649  0.1739 -0.0445
 2291W        W19138   6.151   0.305  10.763  0.0869  0.1643 -0.3385
 2292W        W19139  16.767   0.510  14.368 -0.2287 -0.0988 -0.0004
 2293W        W19140  17.895   1.949  12.371  0.0817  0.1794  0.2367
 2294W        W19141   8.126   2.541  14.522  0.0598 -0.1307  0.0106
 2295W        W19142  14.842   6.095   3.091 -0.0660 -0.0840 -0.1405
 2296W        W19143   1.341  13.156  10.888 -0.0900 -0.2698 -0.1726
 2297W        W19144   0.151  11.011  15.196 -0.0343  0.0799 -0.0857
 2298W        W19145  12.235  15.958   0.086 -0.0128 -0.1100 -0.1779
 2299W        W19146   6.125   1.747   3.999 -0.2295  0.0095 -0.0380
 2300W        W19147  11.513  11.556   2.059  0.1415 -0.1520 -0.0454
 2301W        W19148   2.975   1.416  14.171 -0.0419  0.0325 -0.0116
 2302W        W19149   8.878   7.323  15.753  0.1242 -0.2583  0.2882
 2303W        W19150   7.423   7.104  14.618 -0.4893 -0.0268  0.1334
 2304W        W19151  15.722   6.236  11.254  0.4232  0.1775  0.2012
 2305W        W19152  15.537   6.043  13.809 -0.0006 -0.1306  0.1287
 2306W        W19153  17.415   8.139  15.331  0.0691 -0.2976 -0.0357
 2307W        W19154  16.656  16.710   0.391 -0.1398 -0.3501 -0.2205
 2308W        W19155   9.357   9.604   2.493  0.3301  0.0372 -0.2104
 2309W        W19156  14.738  17.535   5.059 -0.2349  0.3726  0.0754
 2310W        W19157   3.668  13.558  11.950 -0.1529 -0.1558 -0.0321
 2311W        W19158   5.095   4.702  11.715 -0.0417  0.2111 -0.4312
 2312W        W19159  10.659  11.182   1.597 -0.0331  0.0831  0.0784
 2313W        W19160   3.298  10.923   2.122 -0.2419 -0.0656 -0.3246
 2314W        W19161   7.766   2.133   3.396 -0.1123  0.1384 -0.0186
 2315W        W19162  14.441   1.688  15.365  0.1351 -0.2006 -0.0395
 2316W        W19163  12.437   2.011   1.736  0.1302  0.0004 -0.1233
 2317W        W19164  12.211  10.123  13.424  0.3067  0.1132 -0.0289
 2318W        W19165  14.718  16.923  14.579 -0.1060  0.2043 -0.1990
 2319W        W19166  15.314  18.557   5.895 -0.0227  0.2722 -0.1722
 2320W        W19167   9.428  13.161   1.510 -0.4324 -0.1783 -0.1694
 2321W        W19168   9.265   2.611   1.780 -0.0066  0.1523  0.0944
 2322W        W19169  16.747  18.294   3.469 -0.2687  0.0005 -0.1040
 2323W        W19170   0.144  14.695   1.702 -0.0004 -0.1614  0.0473
 2324W        W19171   5.818  15.300   2.001  0.0794 -0.1533 -0.1519
 2325W        W19172   9.517   9.664  13.412 -0.0745 -0.1054 -0.2725
 2326W        W19173   6.828  13.318  14.270 -0.4108 -0.6385  0.0297
 2327W        W19174   6.239   5.800  14.853  0.0380  0.0325  0.1312
 2328W        W19175  17.045   7.476   2.992  0.1180 -0.0828  0.1523
 2329W        W19176  17.388  17.465   0.366  0.2631 -0.1058  0.1394
 2330W        W19177   1.868   3.849   4.629 -0.0064 -0.2296 -0.1521
 2331W        W19178   5.921  13.879  12.744 -0.0064 -0.0214 -0.1099
 2332W        W19179  14.344   5.488   5.230  0.1200 -0.0949  0.1276
 2333W        W19180  13.571  12.525  10.282 -0.0608  0.0520  0.1058
 2334W        W19181  15.673  13.487  12.810 -0.0155  0.0794 -0.1972
 2335W        W19182  14.836   2.569  12.868 -0.1332  0.0485 -0.0242
 2336W        W19183   2.902   1.316   4.759  0.2388 -0.1281 -0.2885
 2337W        W19184   7.474   0.985   1.637  0.4043  0.1138  0.3314
 2338W        W19185  13.772   5.894   3.832  0.0544  0.0147  0.3132
 2339W        W19186  17.064  12.055  12.578  0.0012 -0.0065  0.1604
 2340W        W19187   8.224   4.064  15.601 -0.0750 -0.0457 -0.0205
 2341W        W19188  12.375   8.843  12.276 -0.1441 -0.0623  0.0916
 2342W        W19189   1.212   6.037  12.050 -0.1394  0.2649  0.1091
 2343W        W19190   4.744  14.923   2.079  0.1375 -0.1494 -0.1260
 2344W        W19191   6.621  15.909  15.400 -0.0452 -0.2476  0.0672
 2345W        W19192  11.866  10.484  11.010 -0.0423 -0.2461  0.0894
 2346W        W19193  17.984  18.342  13.400  0.0385 -0.0733 -0.1688
 2347W        W19194  14.960  16.390  13.708  0.0367  0.2771  0.6311
 2348W        W19195  11.797   2.205  11.532 -0.2060  0.0017 -0.2491
 2349W        W19196   4.024   1.575  12.768 -0.0123 -0.2791 -0.1431
 2350W        W19197   9.940  15.978   3.103 -0.1744 -0.0304 -0.0400
 2351W        W19198   9.502  10.328   1.652  0.1210  0.1550 -0.1155
 2352W        W19199   1.016   6.101   1.701  0.0878  0.3447  0.0594
 2353W        W19200   9.562   4.719   0.229 -0.2469  0.1160 -0.0099
 2354W        W19201  12.435   8.344  12.983  0.1313 -0.2210  0.0931
 2355W        W19202   0.691  10.410   3.482  0.4617  0.1727 -0.0157
 2356W        W19203   6.229  17.537  13.415  0.2442  0.5222  0.0097
 2357W        W19204  15.032  16.267   4.041 -0.2158  0.3477 -0.1416
 2358W        W19205   9.506   8.529  13.861  0.0719  0.0804 -0.0803
 2359W        W19206   6.962  16.000  12.709  0.0149 -0.0808 -0.2557
 2360W        W19207  11.806   6.990  12.934  0.0418 -0.0410  0.1273
 2361W        W19208  10.712  18.464   3.289  0.2095 -0.5055 -0.2918
 2362W        W19209  13.652   3.557  15.012  0.2096  0.0636 -0.2053
 2363W        W19210   7.118  14.927   3.375  0.0379 -0.1024 -0.0002
 2364W        W19211   3.489   2.816   0.758 -0.1449  0.1816 -0.0523
 2365W        W19212   6.875   5.170   2.541 -0.1413  0.0568 -0.1567
 2366W        W19213   3.998  12.611   2.012 -0.3536 -0.0833  0.0588
 2367W        W19214  13.315   6.181   4.539  0.1542  0.0663  0.1061
 2368W        W19215   1.516   2.658   0.435  0.1889  0.0991  0.0691
 2369W        W19216   7.663   5.380  12.476 -0.1430  0.2810  0.2338
 2370W        W19217  10.835  10.743   4.460 -0.2167  0.6221 -0.1052
 2371W        W19218   2.090  11.349  15.404  0.1053  0.0346  0.1727
 2372W        W19219   0.665   1.802  11.733 -0.1288  0.2725  0.1030
 2373W        W19220  16.242   7.000  14.948 -0.3585 -0.1346  0.1569
 2374W        W19221   8.924  14.509  13.944  0.0057  0.2529  0.0434
 2375W        W19222  15.174   2.387  13.572  0.2871  0.3376  0.1284
 2376W        W19223  14.839   8.146   5.630  0.2536  0.0215 -0.5126
 2377W        W19224   0.449  11.824   3.693  0.1653  0.3991 -0.0204
 2378W        W19225   1.186   2.876  12.821  0.0030  0.0807  0.1341
 2379W        W19226   6.653  16.296   1.113  0.1116  0.1607 -0.2824
 2380W        W19227   3.253  14.731   2.865 -0.1495  0.1150  0.2353
 2381W        W19228   3.225   7.467   2.454 -0.1731 -0.1259 -0.1331
 2382W        W19229   6.231  15.835   0.377 -0.0897  0.3142 -0.0495
 2383W        W19230   3.639   3.985   1.991  0.2225  0.2578 -0.1390
 2384W        W19231  10.789   9.452   2.124 -0.3417 -0.1180 -0.1381
 2385W        W19232   3.332  10.258   3.285 -0.1768  0.0670  0.0899
 2386W        W19233  16.698   3.909  12.496 -0.1235  0.1158  0.1209
 2387W        W19234   2.536   5.898  11.708 -0.0187 -0.0189  0.2738
 2388W        W19235  18.160   1.463   4.546 -0.0838  0.1533  0.0111
 2389W        W19236  17.177   5.677   0.223 -0.1498  0.1090 -0.1434
 2390W        W19237  10.318  11.722  10.571 -0.2973  0.1070 -0.0242
 2391W        W19238  14.119   8.911  14.172 -0.0968 -0.0932  0.1164
 2392W        W19239   3.520  14.049  13.688 -0.1915 -0.0928 -0.0609
 2393W        W19240   8.300  14.280   0.610  0.2270  0.0322  0.3155
 2394W        W19241  16.043  17.177  14.317 -0.0927  0.0225  0.1489
 2395W        W19242   6.485  15.234  12.098 -0.3225 -0.0389  0.0823
 2396W        W19243   1.668   6.713   4.691  0.0003 -0.2498  0.3640
 2397W        W19244  13.889   2.190  13.120  0.0881  0.0257 -0.2088
 2398W        W19245  14.595   1.443  13.103  0.2404  0.1254  0.0925
 2399W        W19246  13.284   4.153  14.762  0.0040 -0.1810  0.1187
 2400W        W19247  18.032  13.436   0.347 -0.1793 -0.1771  0.0242
 2401W        W19248   8.197  11.429   2.639  0.0804 -0.0304  0.2301
 2402W        W19249   3.098   7.599  14.299  0.1951  0.2019 -0.0815
 2403W        W19250   9.104  14.372  11.425 -0.4391  0.0032  0.0036
 2404W        W19251   5.984  14.474   2.531  0.1640 -0.2059  0.3183
 2405W        W19252  12.139   3.236  12.988 -0.0218  0.2180  0.3179
 2406W        W19253   8.935   5.785  12.296 -0.2782  0.2214 -0.0204
 2407W        W19254  12.660  18.408   3.993 -0.0657  0.4144  0.0917
 2408W        W19255   2.220   9.627  12.378  0.1893  0.0079  0.0432
 2409W        W19256   4.137  11.908  12.335 -0.0824  0.1195  0.1795
 2410W        W19257  18.227   9.292  10.975  0.1594  0.0050 -0.6402
 2411W        W19258   4.083   4.647   2.299  0.1274 -0.2476  0.0350
 2412W        W19259   9.030  13.201   4.773 -0.2583  0.1039  0.1032
 2413W        W19260  16.838  15.290   2.274  0.2730 -0.0129 -0.0906
 2414W        W19261  15.402  11.728   4.562  0.0377  0.0467 -0.0967
 2415W        W19262  16.639  16.851   5.128 -0.0464 -0.1534 -0.1359
 2416W        W19263  17.324   5.053   6.159 -0.2061  0.0333  0.0022
 2417W        W19264  11.733  11.291  12.853 -0.0080  0.3477  0.2696
 2418W        W19265  17.993   0.357   5.339 -0.0740  0.1976  0.1668
 2419W        W19266  11.345   1.504  12.768  0.2254  0.1374 -0.2718
 2420W        W19267   0.938  18.450  12.129  0.0791  0.1194  0.2021
 2421W        W19268  14.342   2.981   5.233 -0.2672  0.2316  0.0488
 2422W        W19269  17.522   7.511   1.249 -0.2949 -0.0565  0.1542
 2423W        W19270  18.386   0.973   3.736  0.1772  0.0664  0.2013
 2424W        W19271  11.870  14.759  14.466  0.1963  0.0630  0.3075
 2425W        W19272  14.375   5.653   4.390  0.2949 -0.1835 -0.1760
 2426W        W19273  12.003   3.824   1.681 -0.2156 -0.3145 -0.3557
 2427W        W19274  10.099  11.492  15.082 -0.1449  0.0266 -0.1510
 2428W        W19275   4.723   7.288  15.186 -0.1713 -0.1724  0.1513
 2429W        W19276   2.596   6.022   2.148 -0.4663 -0.2130  0.0611
 2430W        W19277  16.424  14.598   1.830 -0.3240  0.1853 -0.1575
 2431W        W19278  18.263  16.294  13.579 -0.1411 -0.0978  0.0910
 2432W        W19279   8.968  14.498  13.258  0.0031 -0.1338 -0.1009
 2433W        W19280   1.072  12.422  12.153  0.4851 -0.0861 -0.2384
 2434W        W19281  15.978  12.150   3.948  0.1705  0.1768 -0.1201
 2435W        W19282   8.001   1.616  12.723 -0.0976  0.4261  0.1894
 2436W        W19283  17.196   3.533  11.497 -0.0673 -0.0899  0.1494
 2437W        W19284  17.612  12.550  14.653 -0.1426  0.0566 -0.2602
 2438W        W19285  13.493   9.125   1.574 -0.0781 -0.2392 -0.1924
 2439W        W19286   0.228   9.781   0.939 -0.1606 -0.1662 -0.0116
 2440W        W19287  11.321  15.856  12.482  0.0872 -0.3213 -0.3496
 2441W        W19288  16.692   9.637  13.987 -0.1996 -0.1872 -0.0365
 2442W        W19289   8.985  12.614   3.163  0.1270 -0.0362  0.0000
 2443W        W19290   6.316  10.972   5.901 -0.1266 -0.0201 -0.4602
 2444W        W19291  16.717   9.653   0.955  0.2754 -0.0106 -0.2317
 2445W        W19292  11.397  13.025   2.807  0.0702  0.1137 -0.0929
 2446W        W19293   2.270   2.083   4.221 -0.0060  0.0327 -0.4098
 2447W        W19294   7.379   4.700   1.354  0.0980 -0.0144 -0.0950
 2448W        W19295  10.231  12.998  13.775  0.2578  0.0157  0.1496
 2449W        W19296   7.781  18.492   2.760  0.2077  0.0561  0.2485
 2450W        W19297  10.124  10.942  11.911 -0.1744  0.4100  0.3046
 2451W        W19298  12.457   8.027   2.198 -0.1655  0.2857  0.0393
 2452W        W19299  16.594   2.954  13.017 -0.0054  0.2355  0.0780
 2453W        W19300   9.387  12.209  11.680 -0.0554 -0.0513 -0.0110
 2454W        W19301   4.317   4.233   0.696 -0.1435 -0.0177 -0.0892
 2455W        W19302  14.835   2.450  15.233 -0.1496  0.0844  0.0158
 2456W        W19303   5.090   2.704  12.613 -0.0605 -0.0225  0.0333
 2457W        W19304   3.804  11.448   1.299  0.1562 -0.0975 -0.1278
 2458W        W19305   6.406  18.639   2.094  0.0279 -0.2817 -0.4134
 2459W        W19306  16.947  12.151   4.798  0.0226 -0.0509  0.1699
 2460W        W19307  12.629   7.831  11.656  0.1072  0.1166 -0.0081
 2461W        W19308  10.261   8.860  12.501 -0.0187 -0.1818 -0.4098
 2462W        W19309   0.798   6.554  14.742  0.1217  0.2093  0.3495
 2463W        W19310  13.242   1.902  12.588 -0.1655  0.3059  0.1145
 2464W        W19311   4.119   6.271  15.542 -0.2044 -0.1007  0.2275
 2465W        W19312   1.633  14.960   0.339  0.1783 -0.2436  0.1252
 2466W        W19313   7.781   2.129  12.728  0.2359 -0.4796  0.0459
 2467W        W19314   3.780   7.979  12.705 -0.0050  0.1693  0.1076
 2468W        W19315   4.672   9.037   0.691  0.3085  0.1292  0.0968
 2469W        W19316  14.718   8.660  12.544 -0.3648 -0.1318 -0.2546
 2470W        W19317  11.903   8.986  15.383  0.0409  0.3341  0.1453
 2471W        W19318   7.374   9.952   1.026 -0.1442 -0.3121 -0.1564
 2472W        W19319   8.906  12.973  11.446  0.1292  0.0369 -0.0581
 2473W        W19320  14.090  16.411  12.761 -0.0870  0.2995  0.0269
 2474W        W19321   8.045   2.236   2.261 -0.2237  0.0862 -0.1122
 2475W        W19322  11.940   1.472   2.953  0.0653 -0.1425 -0.4338
 2476W        W19323   4.942  13.603   3.525 -0.0343  0.0351  0.3394
 2477W        W19324   4.314   8.108   0.929  0.1888  0.2894 -0.0529
 2478W        W19325  18.050   1.547  13.297 -0.2669 -0.0841 -0.0005
 2479W        W19326  13.528  13.300  10.919 -0.1829 -0.1202  0.0900
 2480W        W19327   5.487   9.568   5.086  0.1136  0.2041  0.0925
 2481W        W19328  18.744   1.301   3.958  0.1367  0.2471 -0.0440
 2482W        W19329  17.139   8.915  13.232 -0.2272  0.1108 -0.3530
 2483W        W19330  14.527   3.097   2.798 -0.0460  0.0895 -0.1684
 2484W        W19331  14.253  14.808  14.592 -0.4287  0.0244 -0.1373
 2485W        W19332   3.291  13.517   5.197 -0.2723  0.3715  0.0093
 2486W        W19333   6.838  14.641  12.897 -0.0208 -0.3431  0.2316
 2487W        W19334  16.108  14.164   4.076 -0.2341 -0.2477 -0.0985
 2488W        W19335   0.948  16.445  14.884 -0.1373 -0.1980  0.0584
 2489W        W19336  13.964   4.102   4.055  0.0807 -0.0819 -0.0010
 2490W        W19337   6.933  16.936  14.241 -0.1041 -0.1105  0.4865
 2491W        W19338   5.384  17.259  15.498  0.1853  0.4964  0.2298
 2492W        W19339   9.041   5.726   5.480  0.3081 -0.0551  0.0803
 2493W        W19340   4.370  10.273  11.468  0.1290 -0.1366  0.2262
 2494W        W19341  11.415  12.160   1.744  0.0965 -0.1032  0.4104
 2495W        W19342  17.803  17.691  11.699  0.0369  0.0666 -0.0620
 2496W        W19343   4.057  15.606  13.559 -0.1142  0.1935 -0.0242
 2497W        W19344   6.364  17.981  13.263  0.1476 -0.1909  0.0482
 2498W        W19345   9.965   7.152   4.380 -0.1287 -0.1072  0.1721
 2499W        W19346   1.616   2.348   6.138 -0.1748 -0.0866  0.2372
 2500W        W19347   3.309   2.643  12.081  0.1151  0.3112 -0.0361
 2501W        W19348   4.686  11.377  13.539  0.1415 -0.0830 -0.0844
 2502W        W19349   0.567  10.880  11.778  0.0236 -0.0104  0.0068
 2503W        W19350   4.051   5.699  15.421  0.3053  0.1145  0.0626
 2504W        W19351   1.271  13.569   0.389  0.6880  0.0537  0.0435
 2505W        W19352   7.929   2.941  14.207  0.3383  0.3296  0.0295
 2506W        W19353   4.185  10.746   2.780  0.1390 -0.1573  0.3109
 2507W        W19354   6.596  15.461  10.561  0.3238 -0.2153 -0.1532
 2508W        W19355  11.467   4.303  12.392  0.1972  0.0185  0.0652
 2509W        W19356  17.246  16.438   4.549  0.0562 -0.2378 -0.1159
 2510W        W19357   8.527   1.050   3.297  0.0688 -0.3367  0.1887
 2511W        W19358  16.721   1.936   2.908 -0.2245  0.2575 -0.1628
 2512W        W19359  12.912  18.771   4.267 -0.1646 -0.2073 -0.5021
 2513W        W19360  17.859  11.178   3.905  0.3587 -0.0111 -0.0018
 2514W        W19361   4.938  18.619  14.365  0.1818 -0.0963 -0.4245
 2515W        W19362   6.417  15.303   2.090 -0.0041  0.4389  0.1032
 2516W        W19363   3.527   2.931   5.870  0.3494 -0.2387 -0.0304
 2517W        W19364  15.985   9.623   3.397  0.1174 -0.1134 -0.1545
 2518W        W19365   1.062  13.123   1.765  0.1375  0.3485  0.0217
 2519W        W19366   7.645  18.849  12.072 -0.2197  0.2309 -0.0610
 2520W        W19367  13.821  15.193   0.848  0.1845 -0.1775 -0.3282
 2521W        W19368   0.060  17.174  15.733 -0.0187 -0.0823 -0.0061
 2522W        W19369   7.262   3.496  11.710 -0.0142 -0.1456  0.0017
 2523W        W19370  10.905   3.866   3.105  0.1151  0.1417  0.0091
 2524W        W19371   8.423   7.993  11.044 -0.1431 -0.0602  0.4729
 2525W        W19372  13.697  14.057   3.816 -0.1066  0.0505 -0.2230
 2526W        W19373  18.603   8.898  10.998  0.3812 -0.0210 -0.2689
 2527W        W19374  18.467  15.999  11.309 -0.2242  0.0632  0.1390
 2528W        W19375  16.581  12.012  12.526  0.1477 -0.3198  0.3236
 2529W        W19376   1.147   9.432  13.342 -0.1329  0.0966  0.0655
 2530W        W19377  15.241   7.621  14.673  0.0243  0.2442 -0.0817
 2531W        W19378  13.991  16.669  11.666  0.0645 -0.3586 -0.0128
 2532W        W19379   0.769   9.949   3.337 -0.1849  0.5500  0.3717
 2533W        W19380   3.267   0.060  15.777  0.0589  0.2383 -0.1081
 2534W        W19381  18.776   4.741  14.424  0.1278 -0.3000  0.2341
 2535W        W19382   2.306   3.567   1.768 -0.0601 -0.2866 -0.2649
 2536W        W19383  16.720   8.226   5.038 -0.0702 -0.2852 -0.0444
 2537W        W19384   8.657   9.536  11.411 -0.0930 -0.0196 -0.4046
 2538W        W19385  17.422   3.963   0.343 -0.2144 -0.1788  0.1089
 2539W        W19386   9.872   8.599   0.402 -0.2787 -0.2276  0.1403
 2540W        W19387   7.082  13.013  14.640  0.0419 -0.0769  0.0747
 2541W        W19388  11.457  17.998   5.096 -0.2370  0.1131 -0.1832
 2542W        W19389  14.130   0.742  11.475 -0.2046 -0.0204 -0.1195
 2543W        W19390   5.826   3.347  11.614  0.1364 -0.2918 -0.0919
 2544W        W19391  17.337   6.575   1.363 -0.0775  0.0371 -0.1945
 2545W        W19392  12.595  15.001   3.931  0.1078  0.0398  0.0479
 2546W        W19393   4.690   6.477  14.575  0.2305 -0.0780 -0.0066
 2547W        W19394  11.513  14.215  11.664 -0.1387  0.0137  0.0679
 2548W        W19395   5.880  12.895  14.258  0.3329 -0.2642 -0.2081
 2549W        W19396  10.808  17.818  15.498  0.0879 -0.1119 -0.0830
 2550W        W19397   3.340  16.199   1.580 -0.0915 -0.2949  0.1377
 2551W        W19398  12.601  17.894  14.887 -0.1976  0.0417  0.1519
 2552W        W19399   6.871  17.221   0.075  0.0106  0.4192 -0.0058
 2553W        W19400   0.863  18.178   3.632 -0.0551 -0.2254 -0.1192
 2554W        W19401   1.389  15.246  11.539  0.1469  0.1404  0.1059
 2555W        W19402   2.838  17.302   2.820 -0.2067  0.0671 -0.1726
 2556W        W19403  17.649   5.308   1.365 -0.0368 -0.0170  0.1114
 2557W        W19404  14.993   0.321  11.358  0.3898 -0.0779 -0.0450
 2558W        W19405  14.969  18.646   1.797  0.0137 -0.0926 -0.0911
 2559W        W19406   8.844   3.321   0.947  0.0117 -0.1392  0.0479
 2560W        W19407  17.918   8.195  11.801  0.1532  0.1261  0.0501
 2561W        W19408   0.208  12.982   4.131 -0.2637 -0.2677  0.0483
 2562W        W19409  10.934  15.167   3.190 -0.0252  0.0279 -0.2699
 2563W        W19410  13.267  11.103  11.598  0.2819  0.3449  0.1477
 2564W        W19411  13.889   6.248  13.692 -0.1529  0.1884 -0.2424
 2565W        W19412   7.207   7.522  11.523 -0.0989  0.1967 -0.0890
 2566W        W19413  15.458  17.741   4.408  0.2082  0.0079 -0.2575
 2567W        W19414   8.567   8.762   1.292 -0.0962 -0.0281 -0.0264
 2568W        W19415  12.687  17.426   5.649  0.0412 -0.1462 -0.1529
 2569W        W19416  12.297   3.741   3.167  0.3884 -0.1863  0.2160
 2570W        W19417   8.062   2.174   2.869  0.0243 -0.1149  0.1942
 2571W        W19418   6.171  17.392  12.869 -0.1067  0.0938 -0.0271
 2572W        W19419   8.675   2.475  12.179 -0.3203  0.0790 -0.0263
 2573W        W19420   3.855   4.404   4.853  0.0846  0.4406  0.4039
 2574W        W19421  13.412  10.168  13.466 -0.0976 -0.1808 -0.1353
 2575W        W19422  15.379   6.998   4.946  0.1746  0.1165 -0.1374
 2576W        W19423   5.116  13.596   1.892  0.1381  0.2727 -0.0908
 2577W        W19424   7.835  11.297   3.294  0.0107  0.2872  0.0714
 2578W        W19425  15.607  16.113  13.131  0.1516 -0.0913 -0.1166
 2579W        W19426  16.099  12.558   0.216  0.1174 -0.1182  0.0923
 2580W        W19427   8.717   8.256   3.875  0.0092  0.0336  0.3797
 2581W        W19428  16.581   4.424   0.778  0.1978 -0.0557  0.2436
 2582W        W19429   2.598  10.845  13.725 -0.3422  0.0711  0.0444
 2583W        W19430  17.318   2.643  11.340 -0.2042  0.0508  0.1126
 2584W        W19431   1.269  10.346  13.220 -0.3336 -0.0252 -0.1249
 2585W        W19432  12.770   0.160  11.550  0.0758  0.2692  0.0526
 2586W        W19433  15.407  14.675  13.473  0.0594  0.3532  0.0903
 2587W        W19434  13.433   4.431   0.098  0.3392  0.0688  0.2755
 2588W        W19435   8.123   6.047  13.543  0.0459 -0.3404  0.0894
 2589W        W19436   6.273   9.112  13.966  0.1875  0.1797  0.2430
 2590W        W19437   5.339  14.371  11.851  0.0117 -0.1508  0.4493
 2591W        W19438   0.273   0.630   2.597 -0.1770  0.1149 -0.2271
 2592W        W19439  16.325  11.972  15.443  0.2812  0.1854 -0.0600
 2593W        W19440  15.442   1.840   1.852  0.2850 -0.0655  0.0227
 2594W        W19441   4.957  14.345   3.397 -0.0442 -0.2591  0.0889
 2595W        W19442  11.905  13.164  13.735 -0.0990  0.0522 -0.2911
 2596W        W19443  18.722   3.154   2.405 -0.2023  0.0267 -0.0717
 2597W        W19444   3.163   6.050  11.680  0.1421 -0.0655  0.1822
 2598W        W19445   0.929   9.442   4.424 -0.0915  0.0998  0.1058
 2599W        W19446   2.802   2.485   1.392  0.1615 -0.1684 -0.0584
 2600W        W19447  14.626   2.458  11.874 -0.0351 -0.1690  0.4090
 2601W        W19448  18.489   4.013   3.461  0.2119  0.1795 -0.1527
 2602W        W19449   8.061  13.949  11.814 -0.1603 -0.1057 -0.5264
 2603W        W19450  10.601  17.038   4.204 -0.0155 -0.3398  0.0506
 2604W        W19451  10.433  15.511  14.644  0.1550  0.0570 -0.0522
 2605W        W19452   2.030   3.414  11.688 -0.0018 -0.5381  0.0278
 2606W        W19453  15.264  18.322  10.980  0.1724  0.3903 -0.0956
 2607W        W19454  15.298   3.901  12.745  0.2449 -0.3914  0.0588
 2608W        W19455   8.134   0.949  10.043  0.1075 -0.1152  0.4603
 2609W        W19456   1.754  13.655   2.845 -0.1545 -0.1690  0.0679
 2610W        W19457  12.549  14.799  12.375  0.1186  0.0166 -0.3092
 2611W        W19458   2.558   0.813   2.254  0.0160 -0.0845 -0.0735
 2612W        W19459   8.022   2.555  13.889 -0.2194 -0.6826 -0.1699
 2613W        W19460   3.180  10.624  14.038 -0.2627  0.1282 -0.0089
 2614W        W19461  15.905  15.774  13.893 -0.3844 -0.2012  0.1262
 2615W        W19462   7.286  16.649   2.770  0.2477 -0.4593 -0.2124
 2616W        W19463  16.812  10.962   2.390  0.0632  0.2075 -0.0998
 2617W        W19464   9.327   9.630   4.544  0.1208 -0.0886  0.0309
 2618W        W19465  14.894   4.035  12.944  0.1991 -0.1188  0.1860
 2619W        W19466  16.183  14.816  14.808  0.0859  0.2341 -0.2364
 2620W        W19467   8.729  15.025   2.712 -0.0067 -0.1651  0.0162
 2621W        W19468  15.207   1.821   3.749 -0.2133 -0.2952  0.0934
 2622W        W19469   7.243   5.803  12.206 -0.1040 -0.0954 -0.0363
 2623W        W19470  11.662   3.406   0.302  0.1826 -0.1406  0.2097
 2624W        W19471   2.927   9.188   3.965 -0.5515  0.2761  0.0920
 2625W        W19472   2.653  18.105  10.647 -0.1374 -0.1811 -0.0512
 2626W        W19473  14.905  14.131   0.206 -0.1505  0.2380 -0.0278
 2627W        W19474   2.592  10.279   0.477 -0.1614  0.5171 -0.0234
 2628W        W19475  14.872  11.183  14.388 -0.0296  0.1356  0.0548
 2629W        W19476   9.419  18.163   4.131 -0.0338  0.0971 -0.2574
 2630W        W19477  17.919  13.836  13.302 -0.3026 -0.2550  0.2012
 2631W        W19478  16.880  14.473  15.593  0.1879  0.1563 -0.3004
 2632W        W19479   7.202  13.547  13.395  0.1918  0.0784  0.0379
 2633W        W19480  11.455  16.136  11.088 -0.1972 -0.0881 -0.0617
 2634W        W19481  15.016   6.851   0.102  0.2137  0.2042 -0.1873
 2635W        W19482   7.824   8.268   4.913 -0.2422  0.0443 -0.1434
 2636W        W19483  10.047   7.085   1.513 -0.3699 -0.0029 -0.1277
 2637W        W19484  11.286   0.810   4.274  0.0351 -0.4398 -0.1371
 2638W        W19485   3.838   5.434   1.845 -0.2721  0.1071  0.1945
 2639W        W19486   9.129   3.822   3.224 -0.3255  0.0100 -0.0837
 2640W        W19487   5.773   4.266   5.023  0.1594 -0.2328 -0.0958
 2641W        W19488  11.247  17.998   0.264 -0.0336 -0.0832  0.0042
 2642W        W19489  17.968   2.544   2.013  0.1440 -0.1579 -0.0229
 2643W        W19490  12.020   9.000   2.481  0.1488 -0.0938 -0.2620
 2644W        W19491   1.870  10.522  14.508 -0.1586  0.3115 -0.1850
 2645W        W19492   3.408  13.157  11.911  0.0502 -0.1233 -0.0254
 2646W        W19493  16.502  13.976   4.899 -0.1826  0.1274 -0.0837
 2647W        W19494   0.437  17.903  13.507 -0.3294  0.1132 -0.0244
 2648W        W19495   1.891  16.420  10.776 -0.2182 -0.1014 -0.2197
 2649W        W19496  12.299   7.452   2.268  0.0211 -0.0015 -0.0175
 2650W        W19497   0.618   3.604  11.671  0.2777  0.1291 -0.2382
 2651W        W19498   3.219  11.528   0.530  0.0931  0.0687 -0.2314
 2652W        W19499  17.566   6.535   4.505 -0.1564  0.3670  0.0528
 2653W        W19500  15.023   9.697   4.855  0.1816 -0.1704 -0.0826
 2654W        W19501  18.014  10.476   0.430 -0.1883  0.0229 -0.1470
 2655W        W19502   7.137   6.701  13.275  0.2151  0.0506 -0.0013
 2656W        W19503   6.868  10.379   4.435 -0.3251  0.0959 -0.2633
 2657W        W19504   8.407   2.941  14.448 -0.2439 -0.3092  0.3008
 2658W        W19505  13.908  11.342  12.577 -0.2269 -0.1341  0.3015
 2659W        W19506  11.830  13.679   3.539 -0.3613 -0.2832 -0.2038
 2660W        W19507   9.944  12.216  11.613 -0.0652  0.1538  0.2358
 2661W        W19508   5.418   5.001   4.542  0.0008  0.0743  0.3265
 2662W        W19509   7.738   1.227  13.189  0.1812  0.0040  0.1734
 2663W        W19510  11.440  10.389   2.864  0.0288  0.2095  0.2134
 2664W        W19511  17.497  13.985  12.160  0.0338  0.0238 -0.0884
 2665W        W19512   4.100  10.632   4.639  0.0282 -0.0277 -0.1623
 2666W        W19513  10.292   2.454   2.530  0.0709  0.0991  0.3671
 2667W        W19514  16.077   1.181  14.312 -0.3486 -0.1583  0.3021
 2668W        W19515   3.039  14.121  12.322 -0.2004 -0.2134 -0.2871
 2669W        W19516   8.801  15.816  11.800 -0.0938 -0.0751  0.0438
 2670W        W19517  10.269   1.654  13.115  0.0625 -0.2890 -0.0172
 2671W        W19518  17.892  15.649  15.129 -0.0487  0.0293 -0.4775
 2672W        W19519   3.778  16.158  14.510  0.1959 -0.2089  0.0388
 2673W        W19520  14.233  13.561   2.476  0.2911 -0.1012 -0.3645
 2674W        W19521  14.939  15.689   2.390 -0.0467 -0.2094  0.1054
 2675W        W19522   9.183   9.407  14.841 -0.0455 -0.1540  0.4980
 2676W        W19523   8.539   5.544   5.739  0.1444 -0.2206  0.3889
 2677W        W19524   9.951   9.645   0.742 -0.3144  0.0517 -0.1345
 2678W        W19525   1.965   7.334   0.614  0.0265 -0.2658 -0.2313
 2679W        W19526   5.040   9.011   1.817  0.2134 -0.0174  0.0058
 2680W        W19527  15.218  14.560  13.911 -0.1435  0.0273  0.3501
 2681W        W19528  10.659   6.188   3.744 -0.2729 -0.1306  0.0879
 2682W        W19529   8.487  13.746  11.844 -0.1253 -0.2431 -0.1678
 2683W        W19530   2.330   2.141   2.441 -0.2364  0.0827  0.4702
 2684W        W19531   8.516  16.526   1.437  0.0561 -0.2281 -0.1008
 2685W        W19532   0.703   0.874   2.607  0.0714  0.0290  0.3658
 2686W        W19533   0.781   0.847  14.620 -0.1542  0.3195 -0.2289
 2687W        W19534   4.213   3.498   0.201  0.2178 -0.0643  0.0836
 2688W        W19535  11.282  18.264  10.688  0.0451  0.1535  0.0775
 2689W        W19536   2.391   0.320  15.106  0.1472 -0.1605 -0.0139
 2690W        W19537   2.235   5.344  14.265 -0.2124 -0.2790  0.3392
 2691W        W19538   3.885  10.428   3.098 -0.2290  0.0920 -0.2374
 2692W        W19539   1.895  17.658   2.506  0.0653  0.1649 -0.0631
 2693W        W19540   0.409   8.603   1.440 -0.1548  0.0136 -0.1336
 2694W        W19541   3.411   2.715  14.994 -0.2402 -0.1295  0.0005
 2695W        W19542  14.966  17.026   0.905  0.0537 -0.3531 -0.1324
 2696W        W19543  16.596  18.156  14.007 -0.1413 -0.2033 -0.2659
 2697W        W19544   2.028  15.849  15.764 -0.1628  0.1257  0.3375
 2698W        W19545   1.980  16.672  11.360  0.0406 -0.3669  0.4768
 2699W        W19546   9.939   7.015  15.652  0.1025 -0.0401  0.1749
 2700W        W19547   8.926  10.135   3.802 -0.0745 -0.0164  0.2130
 2701W        W19548   6.821  16.845  11.279 -0.2069  0.4871 -0.2302
 2702W        W19549   1.758   8.479   0.391  0.2368 -0.3669 -0.1269
 2703W        W19550   3.914  14.639  15.574  0.0927 -0.1242 -0.0752
 2704W        W19551  11.712   6.170   1.460  0.0032 -0.0439 -0.1835
 2705W        W19552   7.936   0.097   3.882 -0.0572 -0.0783 -0.1224
 2706W        W19553  10.468  10.172  12.758 -0.1950  0.1084 -0.1829
 2707W        W19554   5.408   3.178  12.878  0.0617  0.1260  0.1488
 2708W        W19555  13.542   4.287  11.498  0.3362  0.0419  0.5296
 2709W        W19556  12.235   1.936   5.218  0.1557 -0.0667 -0.1126
 2710W        W19557  10.787  17.732  11.984 -0.2298 -0.0879  0.0468
 2711W        W19558  10.160  15.062   3.776  0.0120  0.1611  0.4029
 2712W        W19559  17.070   8.756   4.455  0.0666  0.1001  0.1577
 2713W        W19560  13.559  16.459  11.401  0.1604 -0.1649 -0.1535
 2714W        W19561   1.328   9.051   1.826  0.2352  0.1237  0.2102
 2715W        W19562  10.729   8.714   2.438 -0.0782 -0.0153  0.0468
 2716W        W19563   3.551  16.445   2.809 -0.3018  0.0204 -0.0395
 2717W        W19564   5.993   3.551   2.595  0.0996 -0.0192 -0.3654
 2718W        W19565   7.744   8.977   4.740 -0.2244  0.0169  0.1669
 2719W        W19566   4.804   4.397   5.094 -0.0793 -0.0006  0.1326
 2720W        W19567   0.400  11.456   3.359 -0.0848 -0.2924 -0.1437
 2721W        W19568   0.183   9.037  15.505 -0.3806  0.2409 -0.1952
 2722W        W19569  17.924   0.669   0.092  0.0456  0.0184 -0.1889
 2723W        W19570  11.156  14.210   0.698  0.1631 -0.0912 -0.6170
 2724W        W19571   9.616  17.078   0.015  0.2043 -0.0352 -0.1155
 2725W        W19572   9.684   2.673  13.599 -0.1885 -0.0428  0.0050
 2726W        W19573   8.072  11.435  14.936  0.0766 -0.1667  0.3799
 2727W        W19574   2.355  13.734   2.902  0.2697 -0.0983 -0.1587
 2728W        W19575   8.434  11.251  11.608  0.2047  0.1031 -0.5440
 2729W        W19576   3.199   3.965   3.936  0.3169  0.0223  0.2484
 2730W        W19577   5.089   1.915  12.369 -0.1115 -0.2931  0.0397
 2731W        W19578  18.670   7.090   3.221  0.0976  0.0081  0.1474
 2732W        W19579   8.251   2.176  14.838 -0.1572  0.2178 -0.3907
 2733W        W19580  18.095   8.669   2.595 -0.1254 -0.2508 -0.0616
 2734W        W19581  18.503  14.219  11.291 -0.0089 -0.2826  0.1560
 2735W        W19582  15.902   6.975  12.362 -0.0088  0.1913 -0.1343
 2736W        W19583   9.369  12.415  13.398  0.2548  0.0867  0.2300
 2737W        W19584   3.844   8.005   1.228 -0.1098  0.1246  0.2412
 2738W        W19585  14.102  16.197   1.580 -0.2254 -0.0378 -0.1371
 2739W        W19586   3.598  13.886  13.183  0.1896  0.0173  0.1466
 2740W        W19587  17.826   6.495   2.398 -0.1504 -0.3088  0.3042
 2741W        W19588  17.047  10.050   4.945  0.1457  0.0088 -0.2545
 2742W        W19589  17.025  17.051  11.411 -0.1303 -0.0329 -0.4712
 2743W        W19590  15.394  15.854   3.199 -0.0066 -0.0273 -0.0435
 2744W        W19591  16.467   0.262  15.635 -0.0985 -0.1290 -0.1431
 2745W        W19592  11.143   5.483  13.938  0.4255 -0.1561  0.1392
 2746W        W19593   4.055  17.735  12.301  0.1347 -0.1032 -0.5756
 2747W        W19594  17.524  16.553  12.909 -0.1137  0.0404  0.3223
 2748W        W19595  12.241   1.727  13.609 -0.1767 -0.0557 -0.0643
 2749W        W19596  11.068   8.678  11.797 -0.0379  0.0743 -0.0631
 2750W        W19597  16.183   1.698  14.633  0.0507 -0.3224  0.0466
 2751W        W19598   8.652  16.225  11.275 -0.2063 -0.0257 -0.0307
 2752W        W19599   3.581   2.943  11.010  0.0194 -0.0261 -0.2472
 2753W        W19600  11.148   7.812   0.832 -0.1625  0.0056  0.2276
 2754W        W19601  18.469   5.156   2.670 -0.2626 -0.0401 -0.2163
 2755W        W19602  11.830  12.944  10.602 -0.1371  0.3138  0.3876
 2756W        W19603  13.357   6.151  11.136 -0.1316 -0.0284  0.0378
 2757W        W19604   4.363   7.826   3.499 -0.1645  0.0068 -0.0631
 2758W        W19605   2.635   3.542  15.303 -0.1516  0.0948 -0.0958
 2759W        W19606   3.279  11.900   2.112  0.0979  0.1606  0.0565
 2760W        W19607   8.342  11.821  14.047  0.0162  0.2622  0.4750
 2761W        W19608   5.540   6.010   3.875 -0.2374 -0.2482 -0.1216
 2762W        W19609  10.562  17.736  15.031 -0.0747 -0.3561 -0.0883
 2763W        W19610  13.780  10.589  13.686  0.1572  0.1324  0.0190
 2764W        W19611  13.788  18.574  14.529 -0.0203 -0.3587 -0.2064
 2765W        W19612  14.199  15.719  11.109  0.0238 -0.3405  0.0626
 2766W        W19613   9.528   8.753   3.668 -0.1876  0.2695  0.0686
 2767W        W19614  13.623  16.098   1.327 -0.3212 -0.0302  0.0140
 2768W        W19615  16.070   8.648   3.366  0.2198 -0.0979 -0.0496
 2769W        W19616  17.546   1.470   0.041  0.0921  0.3346  0.3758
 2770W        W19617   0.793  13.711  12.428  0.3856  0.0188  0.1347
 2771W        W19618  16.781  12.994  15.420  0.0182 -0.2423 -0.0505
 2772W        W19619  10.428  11.578  12.981 -0.1063 -0.0331  0.1178
 2773W        W19620   1.543   5.240  13.430 -0.0428  0.3716  0.2510
 2774W        W19621  16.657   7.661  11.590 -0.0609 -0.2010 -0.1206
 2775W        W19622   7.987  10.033   2.660 -0.4533  0.0516  0.1235
 2776W        W19623   9.299   7.400  15.296 -0.4387  0.1858 -0.3316
 2777W        W19624   1.739   0.950  13.376 -0.1955 -0.1554 -0.0048
 2778W        W19625   4.305  17.965   1.659  0.3379 -0.2008 -0.0364
 2779W        W19626  16.255   7.389  14.162  0.0249 -0.3057 -0.4687
 2780W        W19627   4.079   0.313   2.070  0.3311 -0.0192  0.0150
 2781W        W19628  11.827   9.482   2.314 -0.1244  0.2766 -0.1021
 2782W        W19629  16.141   2.442   4.728  0.2100  0.1438  0.0487
 2783W        W19630   7.666  10.606  13.946  0.1326  0.0679  0.1952
 2784W        W19631   4.480   0.895  13.317 -0.3078 -0.0928  0.1264
 2785W        W19632   0.913  17.767  14.648 -0.0173 -0.0662  0.2951
 2786W        W19633   8.537  14.160  14.204  0.2520  0.0886  0.0697
 2787W        W19634  12.586  15.340   0.400  0.0851  0.0280  0.2486
 2788W        W19635  17.116  18.324   5.593  0.3324 -0.0012 -0.1348
 2789W        W19636  15.686  14.300  14.955  0.2669 -0.1629  0.2513
 2790W        W19637   5.464  13.812  12.882  0.0743 -0.1865  0.1650
 2791W        W19638   8.883   8.475   4.251  0.1175 -0.1984 -0.0882
 2792W        W19639  11.775   7.520   1.365 -0.4694 -0.0926  0.1898
 2793W        W19640  11.637   1.077   0.993  0.2776  0.0422 -0.0832
 2794W        W19641  13.158  18.508   5.318 -0.0120  0.0166  0.3245
 2795W        W19642   9.733   1.191   4.310 -0.2271  0.3364  0.0445
 2796W        W19643   8.198   3.188   2.631 -0.1556  0.1054 -0.0200
 2797W        W19644   9.394   0.122   3.768  0.0965 -0.1414  0.1211
 2798W        W19645   1.977  17.961   0.613  0.1796  0.4718  0.1930
 2799W        W19646   2.144  11.003   0.390  0.1157  0.4149  0.1458
 2800W        W19647   5.839   9.825  12.504 -0.3861  0.0428  0.1510
 2801W        W19648   4.807  11.733   1.622 -0.0672  0.2565  0.1006
 2802W        W19649  15.388  12.454  15.759 -0.2768 -0.1941 -0.0518
 2803W        W19650   4.985   1.675  13.020 -0.1748  0.0756  0.1443
 2804W        W19651   3.660   1.216  11.950  0.1125  0.1082 -0.3915
 2805W        W19652   2.011   9.631  13.181  0.0272  0.0761 -0.1529
 2806W        W19653  18.524   5.421  13.890 -0.0558 -0.1427  0.1825
 2807W        W19654   9.020   7.437  11.464 -0.1116 -0.0131  0.1831
 2808W        W19655   7.150  13.388  12.443 -0.0915 -0.0361 -0.2881
 2809W        W19656  14.969  13.527   3.452 -0.0270 -0.3747  0.1683
 2810W        W19657  17.856   7.783   4.038  0.1700 -0.3810 -0.0663
 2811W        W19658  16.248   4.259   0.440 -0.2632  0.1891 -0.1200
 2812W        W19659  13.933   7.361  12.126 -0.1854  0.1315  0.0187
 2813W        W19660   4.993   7.989   4.192  0.3575  0.0470 -0.1636
 2814W        W19661  16.820  11.222   3.917 -0.0668 -0.0396 -0.0302
 2815W        W19662   5.585  10.768  11.964  0.1117  0.0195 -0.0509
 2816W        W19663   6.897  14.935   4.833  0.0786 -0.3752  0.2223
 2817W        W19664  16.736   0.779  13.333  0.2578  0.0961 -0.1557
 2818W        W19665  11.861   1.277  12.558 -0.2244 -0.5125  0.1146
 2819W        W19666   5.055   0.175  12.387  0.3974  0.0786 -0.2216
 2820W        W19667   6.537  16.574   1.538  0.0444 -0.0614  0.2912
 2821W        W19668   1.870   5.643   2.791  0.0188  0.1854  0.1925
 2822W        W19669   1.719  11.059  11.288  0.0557 -0.1179 -0.3064
 2823W        W19670   0.099   9.600  14.852 -0.0683  0.0944  0.2790
 2824W        W19671   7.348   3.998  10.673  0.1653 -0.1111  0.0738
 2825W        W19672  14.506  15.000  15.058  0.2376 -0.0319  0.0803
 2826W        W19673   4.743   9.704   2.322 -0.1427  0.1417 -0.4513
 2827W        W19674   0.525  14.262   0.532  0.0844  0.3397 -0.4265
 2828W        W19675  12.146   4.642   4.895 -0.0751 -0.1401  0.1101
 2829W        W19676  18.789  15.721   2.698  0.0311  0.0937  0.0816
 2830W        W19677  18.275  18.184  12.918 -0.3715 -0.2435 -0.0262
 2831W        W19678   4.192  15.788   1.246 -0.3531 -0.3846  0.2492
 2832W        W19679  15.470   2.941  12.303  0.0523 -0.2216 -0.0302
 2833W        W19680  12.622   0.642  15.730 -0.2161  0.0544 -0.2063
 2834W        W19681   1.783  12.016  15.552  0.0620  0.0149  0.1070
 2835W        W19682   5.081  16.352   2.397 -0.0501 -0.2316  0.0428
 2836W        W19683   9.320   2.026   2.498 -0.3814 -0.3239 -0.0287
 2837W        W19684   2.306   1.028   0.589  0.1083  0.1380  0.2673
 2838W        W19685  17.604   4.985  13.843 -0.0630  0.1795  0.0175
 2839W        W19686   0.115  11.687  11.037 -0.0914  0.1339  0.1287
 2840W        W19687  11.801   4.996   4.762 -0.0621  0.0295 -0.1298
 2841W        W19688   5.988  16.916  12.942 -0.3119  0.0404  0.1009
 2842W        W19689   1.007  10.563  12.359  0.1329 -0.0645 -0.4124
 2843W        W19690  15.135  10.680  14.382  0.2050 -0.2184 -0.2353
 2844W        W19691  13.520  15.110   4.732  0.2595  0.3133 -0.0593
 2845W        W19692  17.725   7.631  15.237 -0.4656  0.2754 -0.0358
 2846W        W19693  17.188   5.625   5.520  0.1726  0.1742  0.1546
 2847W        W19694  16.176   0.002   3.749  0.1033 -0.0973  0.0350
 2848W        W19695  11.668   3.151   4.066  0.0591 -0.0620 -0.1708
 2849W        W19696   2.140   6.328   1.930 -0.0857 -0.0395  0.5370
 2850W        W19697  17.620  10.082   1.155 -0.3040 -0.0169 -0.0939
 2851W        W19698  18.851  14.597  14.487  0.0455 -0.5255 -0.3198
 2852W        W19699   6.340  11.887  10.747  0.1993  0.2006  0.0912
 2853W        W19700   3.247  11.107  14.764 -0.1133 -0.1225 -0.3878
 2854W        W19701   4.800  14.468   3.909  0.3154 -0.1849  0.0469
 2855W        W19702  14.032  16.932  14.991  0.2931 -0.0095 -0.0131
 2856W        W19703  16.617   1.866  15.703  0.0230  0.0202 -0.0684
 2857W        W19704  16.584   2.043   0.416 -0.0384 -0.3223  0.0561
 2858W        W19705  18.146   8.674   0.152  0.1408  0.3251 -0.0323
 2859W        W19706  14.596   9.314  11.061 -0.0193 -0.3505  0.1416
 2860W        W19707   9.847   4.540   4.474  0.2275 -0.1233 -0.1955
 2861W        W19708   4.475  13.717  14.889  0.0304 -0.2602 -0.0613
 2862W        W19709   7.795  14.666  12.731  0.1804 -0.0697 -0.2197
 2863W        W19710  18.837   1.789   4.785  0.0279  0.3372 -0.0021
 2864W        W19711   9.995  14.192  14.679 -0.1115  0.2944 -0.1965
 2865W        W19712   2.536  11.794  11.279  0.0941 -0.4143  0.1552
 2866W        W19713   1.146  18.559   0.763 -0.0158  0.0135 -0.0760
 2867W        W19714  16.104   5.493  12.707  0.0471 -0.1472  0.0597
 2868W        W19715   5.572   1.961  11.479  0.1213 -0.2126  0.1949
 2869W        W19716  13.479   1.677  15.451  0.1554  0.1629  0.1961
 2870W        W19717  15.987  12.990   2.826  0.0441  0.5064 -0.2091
 2871W        W19718   7.228  12.784  12.469  0.2924  0.0862 -0.3364
 2872W        W19719  15.849  10.579   6.061 -0.2208  0.2273  0.0984
 2873W        W19720  14.277   2.069   3.244  0.2386 -0.1243 -0.0094
 2874W        W19721   3.939   1.913  12.003 -0.2062  0.0015  0.1577
 2875W        W19722   8.515  14.409   9.468  0.2488  0.2355  0.4275
 2876W        W19723  14.846   2.389   4.530 -0.3692 -0.0158 -0.1711
 2877W        W19724  14.510  16.236   6.297  0.0090 -0.2159 -0.0140
 2878W        W19725   8.139  16.625   3.940 -0.0666  0.2052 -0.1289
 2879W        W19726  13.347   9.176   5.420 -0.0033  0.0422  0.1331
 2880W        W19727   4.127  16.062   1.986 -0.1388  0.0425  0.0523
 2881W        W19728  17.059  12.131   0.150  0.2018 -0.3073 -0.0039
 2882W        W19729   2.269   0.518   1.894  0.0482 -0.2749  0.1272
 2883W        W19730  17.691   0.941   1.753 -0.2030 -0.2629 -0.0176
 2884W        W19731  15.602  15.369   1.897  0.2771 -0.0515 -0.0308
 2885W        W19732  12.554  17.289  14.116  0.5337  0.3626 -0.1127
 2886W        W19733  11.923   9.717   3.194 -0.1150 -0.2185  0.0173
 2887W        W19734   8.112   2.376   3.627  0.2476 -0.0335  0.2732
 2888W        W19735  11.521   1.403   5.958  0.1377  0.0372  0.2060
 2889W        W19736   9.237   5.121   4.674  0.1191 -0.0139 -0.2478
 2890W        W19737  16.239   3.629   0.870  0.2803 -0.2327  0.0183
 2891W        W19738   9.665  18.750   0.530 -0.3034  0.2106  0.1165
 2892W        W19739   8.296  12.801   3.956  0.5619  0.0783  0.0487
 2893W        W19740   3.875  18.491  13.487  0.1399  0.4034 -0.1022
 2894W        W19741  12.498   1.460  14.026  0.2245 -0.0375  0.2761
 2895W        W19742  16.095   2.576  14.383  0.1434  0.2848 -0.0976
 2896W        W19743  11.492  12.431  12.238  0.0239 -0.0895  0.1235
 2897W        W19744  11.449  14.870  14.199 -0.0990 -0.2396  0.0494
 2898W        W19745  17.957   0.111   3.927 -0.1935  0.0953  0.0608
 2899W        W19746  13.787   4.656   5.213 -0.2253  0.1592  0.2788
 2900W        W19747   2.480  11.861   0.965 -0.3177 -0.1295 -0.0629
 2901W        W19748   3.690  15.807  12.389 -0.0442  0.2254  0.1840
 2902W        W19749  16.540  14.055   1.869 -0.0979  0.4050  0.1032
 2903W        W19750   6.382  11.474  14.606 -0.3329  0.0060  0.2692
 2904W        W19751   9.194  13.166  11.801 -0.1985  0.0068 -0.0566
 2905W        W19752   1.606  18.482  14.475  0.0546  0.2141  0.0495
 2906W        W19753   8.462  16.606  13.721 -0.0035 -0.0303  0.1558
 2907W        W19754  12.174   4.186   5.028 -0.1355  0.1037  0.0591
 2908W        W19755  16.767  12.772   2.531 -0.1682  0.2179  0.0565
 2909W        W19756   6.096   3.325   5.240 -0.2032 -0.4018  0.0477
 2910W        W19757   6.308  12.703  15.232  0.3580  0.1267 -0.1154
 2911W        W19758   0.154   5.870  15.160  0.3399 -0.3568  0.0751
 2912W        W19759   8.084   0.512   4.677 -0.0723 -0.1583 -0.0327
 2913W        W19760   8.697  11.625   1.565  0.1560  0.1014  0.3332
 2914W        W19761   8.075  17.289  10.642  0.0894 -0.0934 -0.1930
 2915W        W19762  13.273   6.943   2.575 -0.0901 -0.0101 -0.1898
 2916W        W19763   5.169   9.988  13.163  0.1177 -0.1710  0.0035
 2917W        W19764   9.996  14.465   4.134  0.1553  0.1592  0.1964
 2918W        W19765   1.599   6.402  14.200  0.0074 -0.0593 -0.1839
 2919W        W19766   7.400   1.516   3.377 -0.0582  0.1079  0.2088
 2920W        W19767  15.425   7.384  15.068  0.1291  0.1104 -0.0741
 2921W        W19768   2.035  13.152  14.611 -0.0516  0.2319  0.2353
 2922W        W19769  11.741  12.325   2.090 -0.1495  0.1888 -0.0688
 2923W        W19770  16.247   0.681  14.329 -0.3542  0.0001 -0.3615
 2924W        W19771   9.800   0.626  14.509 -0.0595 -0.4658  0.3352
 2925W        W19772  14.521  11.243  11.892  0.2691 -0.0675  0.2646
 2926W        W19773  13.237   3.759  13.748 -0.3603  0.2727 -0.2529
 2927W        W19774   4.609   0.649  12.878  0.0359  0.1456 -0.0037
 2928W        W19775  10.712   0.873   0.695  0.0788 -0.0718  0.0543
 2929W        W19776  11.347   5.569   1.964 -0.1742 -0.0999 -0.2410
 2930W        W19777  10.043   0.360   1.165 -0.3100  0.1196 -0.1376
 2931W        W19778   6.827   4.257   4.541 -0.1929  0.0617 -0.0607
 2932W        W19779   6.172   6.712   0.634 -0.0401 -0.1055  0.2185
 2933W        W19780   4.720   9.426   1.921 -0.0309  0.1476 -0.3756
 2934W        W19781  18.852  13.026   3.073 -0.2099  0.2250  0.2605
 2935W        W19782  10.081  13.275  11.831 -0.2237  0.2312  0.2458
 2936W        W19783  14.746  14.451  14.995  0.1303  0.2295  0.0304
 2937W        W19784  13.302  17.826   2.774 -0.1962 -0.0457 -0.1176
 2938W        W19785   0.119  18.159   3.058 -0.0711 -0.0257  0.1783
 2939W        W19786   1.981  18.771  13.381  0.2740  0.1265  0.1803
 2940W        W19787  10.232   7.489   1.771  0.1504 -0.0016  0.1666
 2941W        W19788  18.415   7.161  12.307  0.0572  0.0486  0.1093
 2942W        W19789   1.904  17.762   4.320 -0.5204 -0.0542 -0.3702
 2943W        W19790  16.787   8.392  12.917  0.0304 -0.0130 -0.0552
 2944W        W19791  16.695   2.711   2.186 -0.0849  0.0864 -0.1956
 2945W        W19792   5.850  16.304   1.819  0.0893  0.1958  0.0552
 2946W        W19793  11.481   8.218  14.815 -0.0542 -0.2448  0.1247
 2947W        W19794  11.291   3.528   2.264 -0.1909 -0.1659 -0.2588
 2948W        W19795  11.149   7.370   4.538  0.0387  0.1683  0.2644
 2949W        W19796   2.127   0.851  12.229 -0.3273 -0.1070 -0.2656
 2950W        W19797   2.849   4.884   2.889  0.0428  0.1135  0.2322
 2951W        W19798   9.107  11.777  12.935  0.0588 -0.0679 -0.3420
 2952W        W19799   8.192   5.762   5.035  0.0806 -0.0521  0.1906
 2953W        W19800  12.359   4.576  11.419  0.0719  0.1019 -0.2387
 2954W        W19801  14.396   8.645   4.354  0.1514 -0.1946  0.0795
 2955W        W19802   9.162   8.200  13.113 -0.0240  0.0345  0.1490
 2956W        W19803  15.049   1.933  14.467 -0.0966  0.1213  0.1909
 2957W        W19804  11.942  10.134   2.968  0.1126 -0.3521  0.0525
 2958W        W19805   2.053   6.101  14.275 -0.0946  0.1503  0.0559
 2959W        W19806   9.157  14.077  14.839 -0.1450  0.0352  0.2192
 2960W        W19807  17.515   6.006   2.059  0.2568  0.5772 -0.1084
 2961W        W19808  12.002  11.416   2.904 -0.0726 -0.0057 -0.2929
 2962W        W19809   5.154  14.077  10.576 -0.1813 -0.1246 -0.0709
 2963W        W19810  14.158  13.556  13.592 -0.3013  0.1375  0.1669
 2964W        W19811  15.234   9.924  12.151 -0.1462 -0.0494  0.0654
 2965W        W19812  14.704   4.122   3.403 -0.1006  0.0943 -0.0235
 2966W        W19813   0.799   9.565  11.706 -0.1376  0.0564 -0.1459
 2967W        W19814  14.888   1.373   3.280 -0.0366  0.2493  0.1073
 2968W        W19815   5.298  17.484  13.224  0.1338  0.0451 -0.1809
 2969W        W19816   9.605   5.887  15.090 -0.3879 -0.3352  0.1127
 2970W        W19817   2.485  15.654   0.184 -0.1929 -0.2843 -0.1257
 2971W        W19818  17.640  17.264  12.297  0.0946  0.1881 -0.3611
 2972W        W19819  16.497   8.655   5.572  0.0544 -0.0728  0.3393
 2973W        W19820   7.685   3.872  11.066 -0.1655  0.0037  0.0079
 2974W        W19821  16.446   3.436   3.661 -0.0137  0.2242 -0.5350
 2975W        W19822  10.060   4.157  12.018 -0.1394 -0.1948 -0.2276
 2976W        W19823   4.807  18.599  13.521  0.3905  0.1456 -0.0341
 2977W        W19824   8.712   4.049   5.435  0.2344  0.0812 -0.1534
 2978W        W19825  15.325   2.358   2.505  0.2126  0.0337  0.1237
 2979W        W19826   8.880  15.867   0.191  0.1944  0.1065 -0.0084
 2980W        W19827  12.844   3.214  15.048 -0.3516 -0.1159  0.1026
 2981W        W19828  10.783  14.472  12.224 -0.1397 -0.2042 -0.0079
 2982W        W19829   2.853   1.141  14.696  0.1035  0.0426 -0.0231
 2983W        W19830  15.546   1.687   5.228 -0.1578 -0.0387 -0.2961
 2984W        W19831   9.128   0.383  12.540 -0.1177 -0.4874 -0.2938
 2985W        W19832  13.987   9.476   3.817  0.2055 -0.0466  0.0629
 2986W        W19833  16.758   9.166  14.005  0.3078 -0.1128 -0.1096
 2987W        W19834  13.647  16.646  15.229 -0.1892  0.0519  0.0523
 2988W        W19835  18.403   5.529   4.192  0.0697  0.0737  0.1889
 2989W        W19836   7.368   7.575  11.050 -0.1979  0.1039  0.0703
 2990W        W19837   3.540   7.258  12.143  0.0522  0.3221 -0.1507
 2991W        W19838  15.057  12.784   0.116 -0.1310  0.0634  0.3550
 2992W        W19839  14.548  12.113  12.611  0.0465 -0.1631 -0.1436
 2993W        W19840   6.592   0.776   2.123 -0.0477  0.0598 -0.2875
 2994W        W19841   2.263   4.633   3.621  0.2580 -0.1063  0.2335
 2995W        W19842  13.603  11.830   4.606 -0.0473 -0.2017  0.0808
 2996W        W19843  11.700  16.555   5.176 -0.0500  0.1210 -0.2143
 2997W        W19844   3.236  14.396   2.028 -0.0658  0.0219 -0.0555
 2998W        W19845  15.567  16.514   3.706 -0.2550 -0.1851  0.0532
 2999W        W19846   6.191   1.889  12.757 -0.0518 -0.2862 -0.3641
 3000W        W19847  18.363  14.928   1.106 -0.1748 -0.1582 -0.2462
 3001W        W19848  18.221   6.228   3.222 -0.1381 -0.0694 -0.5503
 3002W        W19849   8.415   2.828  11.835 -0.0514  0.1480 -0.0907
 3003W        W19850   7.373   3.075  12.816 -0.1640 -0.0765  0.2475
 3004W        W19851  17.658   8.920   1.990  0.1466 -0.2249 -0.1866
 3005W        W19852  12.990  18.616   0.248 -0.1313  0.0610  0.1204
 3006W        W19853  14.731   3.137   0.103 -0.1501 -0.2734 -0.1464
 3007W        W19854  18.751   5.081  15.679  0.2692 -0.2156  0.0004
 3008W        W19855  13.270  17.321   2.892  0.1887  0.2268  0.1583
 3009W        W19856  16.882  16.184  14.507 -0.3707  0.0944  0.0472
 3010W        W19857   2.452  14.404   3.029  0.0223  0.2184 -0.2149
 3011W        W19858  13.821  15.120  11.870  0.0438  0.1811 -0.1801
 3012W        W19859   0.668   6.646  12.938  0.1598 -0.2231  0.2433
 3013W        W19860  16.414  10.237   2.587 -0.1834  0.0722 -0.0120
 3014W        W19861   2.341  18.097   1.607  0.0285 -0.0219  0.0956
 3015W        W19862   6.394  17.605  14.117  0.3197 -0.3001 -0.2191
 3016W        W19863  11.111  11.713   1.790  0.1980  0.4035 -0.0595
 3017W        W19864  17.892   4.429  11.984 -0.1349  0.2990 -0.1911
 3018W        W19865  15.769   2.420  15.369 -0.1969  0.0752 -0.0391
 3019W        W19866   2.320   5.813  13.466 -0.1674 -0.0095  0.1866
 3020W        W19867   0.758  12.707   1.546 -0.2746 -0.1255  0.0883
 3021W        W19868   9.771   2.697   0.456 -0.0982  0.1817 -0.1662
 3022W        W19869   6.255  18.690   1.054 -0.1188  0.2719 -0.1339
 3023W        W19870   9.391   2.636   6.015  0.4171  0.2538 -0.1520
 3024W        W19871   5.267  14.601  13.306  0.1725  0.0100  0.0942
 3025W        W19872   1.582  14.011  13.488  0.2760 -0.1524 -0.0635
 3026W        W19873   1.515  18.808   1.006 -0.2758 -0.1362 -0.2990
 3027W        W19874  11.841   6.629   0.427  0.0674  0.1280  0.0335
 3028W        W19875   1.289  15.641   4.813  0.3069  0.1801  0.2391
 3029W        W19876  14.466   2.980  11.248 -0.1000 -0.2502  0.2806
 3030W        W19877   1.685   9.832   3.445 -0.0911  0.0147 -0.2515
 3031W        W19878  13.696   8.617  14.731 -0.0340 -0.0486 -0.0637
 3032W        W19879   7.083  11.622   0.225  0.1981  0.1344 -0.1289
 3033W        W19880  18.172   5.820   5.744 -0.3399 -0.0227 -0.0772
 3034W        W19881   3.966   8.486   2.548  0.1074  0.0699 -0.1986
 3035W        W19882   9.789  17.777   4.344 -0.2027  0.1527 -0.1788
 3036W        W19883   3.550   9.826   0.651  0.2231  0.1940 -0.0931
 3037W        W19884  13.072  11.051   3.459 -0.1896  0.1939  0.0036
 3038W        W19885  14.471   4.974  12.067 -0.0012  0.2106 -0.1322
 3039W        W19886  17.235  11.888   4.416 -0.0432  0.2856  0.2789
 3040W        W19887   7.883  10.852   5.013  0.6293  0.0902 -0.1450
 3041W        W19888  11.691   7.847  11.903 -0.0227 -0.1275  0.0767
 3042W        W19889   9.597   0.762  13.489 -0.1063 -0.0972  0.1451
 3043W        W19890  17.158  12.513  14.778  0.1685 -0.1957 -0.0616
 3044W        W19891  11.618  10.272  13.821 -0.0396 -0.1720  0.0711
 3045W        W19892   5.143   3.638   1.122 -0.1864 -0.1278 -0.1211
 3046W        W19893  18.799  12.694   2.657  0.0098  0.2713 -0.1710
 3047W        W19894   4.612  14.188   5.265 -0.1500 -0.2805 -0.1318
 3048W        W19895   5.510   7.433   4.649 -0.5088 -0.1878 -0.1331
 3049W        W19896   3.085  11.108   1.306  0.2854 -0.0263  0.1537
 3050W        W19897   3.473   3.114  12.258 -0.0175 -0.1307  0.3124
 3051W        W19898  17.055  18.422   3.028 -0.1643 -0.0586  0.0998
 3052W        W19899  17.363   4.316   4.210 -0.0500 -0.1094 -0.0989
 3053W        W19900  15.279   5.175   4.358 -0.1374  0.0776  0.3115
 3054W        W19901  18.775  13.816  11.749 -0.1693  0.2411 -0.0232
 3055W        W19902  14.586  17.716   4.660 -0.0194 -0.1557  0.1278
 3056W        W19903   5.560   9.555  12.898  0.3147  0.2867 -0.1608
 3057W        W19904  11.219   6.585   0.984  0.0799 -0.0055  0.0710
 3058W        W19905  16.521  16.561  15.555 -0.0392 -0.1275  0.1342
 3059W        W19906   4.968  16.789   4.285 -0.1722  0.2116  0.1322
 3060W        W19907  11.529   3.920   1.598 -0.2249 -0.1397 -0.0486
 3061W        W19908   9.957  16.386   4.384 -0.0430  0.3251 -0.2717
 3062W        W19909   2.586   2.088   1.568 -0.2666 -0.0157 -0.0523
 3063W        W19910   6.573  13.264   3.603 -0.1208 -0.0951  0.0017
 3064W        W19911   7.320   6.588  14.838  0.1998  0.0227  0.0492
 3065W        W19912  16.739  10.183  14.290  0.0193 -0.1449 -0.2345
 3066W        W19913  13.248  15.317   2.587  0.1061  0.3194  0.1010
 3067W        W19914  16.459   6.393  15.439 -0.2643  0.0015  0.3576
 3068W        W19915   6.034   0.738   3.631 -0.0232  0.1692 -0.3946
 3069W        W19916   2.711   7.002   3.656 -0.0413 -0.5122  0.1459
 3070W        W19917   7.180  13.835  11.181  0.0088 -0.0215  0.1883
 3071W        W19918  15.230  13.237  13.697 -0.1218  0.3389 -0.1521
 3072W        W19919   9.725   4.450  12.388  0.0981 -0.1103  0.1522
 3073W        W19920  13.932   2.949  12.486 -0.0431 -0.0321 -0.2581
 3074W        W19921   2.213  17.524  14.546 -0.4249 -0.1860  0.0098
 3075W        W19922  11.324  13.773   3.595  0.2114  0.1023 -0.1567
 3076W        W19923  12.176   2.823   0.825 -0.0451  0.0143  0.1725
 3077W        W19924   5.096  11.476  15.464 -0.2896 -0.2302 -0.1936
 3078W        W19925  17.653  15.246   0.187 -0.0208 -0.4668 -0.1311
 3079W        W19926  18.648   7.502   2.904 -0.0619  0.0149 -0.1862
 3080W        W19927   3.138   4.901   2.077 -0.0940 -0.0900 -0.0730
 3081W        W19928   9.512   3.044   0.163  0.0379 -0.1897  0.1325
 3082W        W19929   4.482  13.433  10.588  0.1568  0.2275  0.3315
 3083W        W19930  18.796  12.067   3.569  0.1018 -0.0408 -0.0353
 3084W        W19931  14.980   7.820   4.477 -0.0794 -0.1877 -0.0036
 3085W        W19932  13.425  15.184  14.021 -0.0555  0.0557 -0.0499
 3086W        W19933  13.387   4.993  13.326 -0.2706  0.1109 -0.1200
 3087W        W19934  10.629   3.896  12.927 -0.0013 -0.1260 -0.1349
 3088W        W19935   1.887  10.622   4.140  0.3187  0.0324 -0.0693
 3089W        W19936  14.416   1.170  15.411 -0.3709  0.1860  0.3141
 3090W        W19937   6.328  12.946  15.658 -0.2394  0.1039 -0.0770
 3091W        W19938  13.968  18.549  11.325  0.1407 -0.1970 -0.0023
 3092W        W19939   5.766  11.692   0.168 -0.0540  0.2431 -0.0456
 3093W        W19940   3.290  11.364  10.954  0.0577 -0.2863  0.4410
 3094W        W19941  11.013   9.901   3.411  0.1014  0.1407 -0.0019
 3095W        W19942   4.100   7.568   1.043  0.0466  0.4131 -0.2123
 3096W        W19943   2.175  12.951   2.160 -0.2797  0.0774 -0.2873
 3097W        W19944   2.937   3.295  15.622 -0.1079 -0.2099 -0.0740
 3098W        W19945  12.947   2.260  11.829  0.2857 -0.0171  0.2872
 3099W        W19946   6.906  17.412  14.020 -0.1956  0.0293 -0.0462
 3100W        W19947   8.090   8.828  15.158  0.0165 -0.4921  0.0158
 3101W        W19948   8.809   1.337   0.312 -0.0667 -0.4420  0.0227
 3102W        W19949  14.576  14.316   0.619 -0.0700  0.1680  0.2079
 3103W        W19950  15.578   4.682  14.674  0.0206 -0.2091  0.3373
 3104W        W19951   9.813  18.428   3.001  0.1681  0.1852 -0.0775
 3105W        W19952   8.143   2.034   0.443 -0.0801  0.0687  0.1877
 3106W        W19953  14.389  11.006  11.397 -0.0829  0.2307 -0.4750
 3107W        W19954  18.706  16.987   4.430  0.0553 -0.0271  0.1427
 3108W        W19955  12.925   1.491   1.033  0.2444 -0.0405 -0.1853
 3109W        W19956  13.599   2.112  15.623  0.1904 -0.1058 -0.0382
 3110W        W19957  14.336  10.582  13.419 -0.0584  0.1067 -0.5783
 3111W        W19958  15.513   8.456  15.423 -0.2584 -0.0932  0.1680
 3112W        W19959  17.907   0.462   1.840  0.1264  0.0045  0.3176
 3113W        W19960  17.725  13.447  11.178  0.4041 -0.0694 -0.2955
 3114W        W19961  16.758  15.577   4.201  0.1988  0.0067 -0.1169
 3115W        W19962   9.235  18.162  13.358 -0.0072 -0.2122 -0.1003
 3116W        W19963   7.417  13.605  15.613 -0.1137 -0.3523  0.0337
 3117W        W19964   8.061  13.569   4.992  0.0877  0.0389 -0.3761
 3118W        W19965   9.516   3.306   3.581 -0.1093  0.0034 -0.2447
 3119W        W19966   4.694  17.672   2.392 -0.2440 -0.1619  0.0542
 3120W        W19967  13.294  13.873   4.041  0.1365  0.1762  0.3348
 3121W        W19968   6.298   0.930   0.573  0.1586 -0.0304 -0.2518
 3122W        W19969  10.462   3.327   1.507 -0.1797  0.1395 -0.1035
 3123W        W19970   8.118  10.094   0.104  0.0840  0.0880 -0.2259
 3124W        W19971   5.653   2.636   5.965 -0.2221 -0.0674 -0.1453
 3125W        W19972  15.357  10.274  14.444  0.1763 -0.1578  0.1786
 3126W        W19973  16.289   6.584  13.430  0.0423 -0.1001 -0.3534
 3127W        W19974   6.367  17.421  11.313 -0.1049  0.1699  0.4868
 3128W        W19975  10.801   6.469  11.196  0.3028 -0.1409  0.3481
 3129W        W19976   6.790  16.693   2.662 -0.1336 -0.2175  0.0250
 3130W        W19977  11.094  11.337  11.572  0.2550 -0.1102  0.1859
 3131W        W19978   4.577  14.311  11.707  0.1116  0.2014 -0.3441
 3132W        W19979   9.428  16.642  11.854  0.0821  0.3699 -0.0880
 3133W        W19980   4.469   7.440   2.700 -0.1155 -0.4412  0.2806
 3134W        W19981   5.818  12.550   2.547 -0.0245 -0.2152  0.2077
 3135W        W19982   5.172  14.365   0.415  0.1218 -0.3248  0.0697
 3136W        W19983   9.825   3.089  11.081  0.0809 -0.0598 -0.2173
 3137W        W19984   5.093   2.408  13.118 -0.0711  0.1724  0.0627
 3138W        W19985   1.010  12.594   5.453  0.2940 -0.4061  0.2683
 3139W        W19986   8.905   9.929   4.687  0.1666 -0.0161  0.0217
 3140W        W19987  11.286  16.452  14.980  0.2143 -0.1854 -0.0361
 3141W        W19988   9.751  12.396   4.998 -0.1490  0.2020 -0.3844
 3142W        W19989  10.374  12.550   2.183 -0.0349 -0.2894  0.1356
 3143W        W19990  16.092   2.545   0.494 -0.3811  0.2284 -0.1766
 3144W        W19991  17.954  16.365   9.868  0.1548  0.0964 -0.1505
 3145W        W19992   5.049  10.549  14.081  0.1358  0.1754 -0.0133
 3146W        W19993  12.140  15.588   0.411  0.1160 -0.1665  0.1560
 3147W        W19994   7.513   0.472  12.306  0.2655  0.5317  0.0907
 3148W        W19995   7.430   6.050   5.634  0.1503  0.2006  0.0054
 3149W        W19996   6.834  12.932   0.045 -0.0692 -0.2289 -0.2104
 3150W        W19997  10.505   8.773   0.843 -0.3496 -0.1598  0.2605
 3151W        W19998   3.867  17.453   4.988  0.2095 -0.0772 -0.2767
 3152W        W19999   3.181  11.337   0.008 -0.3416 -0.0492 -0.1903
 3153W        W20000   8.278  10.085  10.648  0.0905 -0.0585  0.1966
 3154W        W20001   1.963  16.859   0.455  0.1785 -0.0963  0.1632
 3155W        W20002  11.676  11.957   4.160 -0.0198 -0.0708  0.1047
 3156W        W20003   6.589   9.897   3.757 -0.1446  0.0842  0.0060
 3157W        W20004  18.388   0.029  14.094 -0.1698 -0.0940 -0.0342
 3158W        W20005   5.365  10.667   1.880 -0.2727  0.0726 -0.0185
 3159W        W20006  12.785  14.627   3.546 -0.0502  0.1096 -0.0544
 3160W        W20007   6.429  13.465   2.244  0.0199 -0.0218  0.1123
 3161W        W20008  13.352   7.186  11.002 -0.0908 -0.0253  0.3288
 3162W        W20009   5.695  16.795  13.818 -0.2549  0.1534  0.1364
 3163W        W20010   9.547  12.250  15.328  0.3832 -0.0516  0.1240
 3164W        W20011   7.325  10.311  12.467 -0.0470 -0.2378  0.0778
 3165W        W20012  15.772  12.972   0.086  0.1311  0.0502  0.0661
 3166W        W20013   4.352  10.376   3.433  0.3308  0.0874 -0.2679
 3167W        W20014   7.662   2.566   1.061 -0.1640  0.0835 -0.2648
 3168W        W20015   7.879   6.061  11.433 -0.0716 -0.3008  0.2173
 3169W        W20016  14.966   9.225  11.449 -0.1280  0.0292  0.0879
 3170W        W20017   6.058  14.004  15.422  0.0390 -0.0139  0.0568
 3171W        W20018  10.271  13.550  10.562  0.3631  0.1512 -0.1405
 3172W        W20019  10.024  13.195   1.642  0.1074 -0.1242  0.0192
 3173W        W20020  15.734   3.131   3.242 -0.1483 -0.1892  0.1698
 3174W        W20021   5.477  17.414   3.969 -0.0616  0.0755 -0.1546
 3175W        W20022   8.717   7.774   3.107 -0.0547 -0.1855  0.1848
 3176W        W20023   7.083  10.695  12.724 -0.1469 -0.1554  0.2002
 3177W        W20024   6.477   5.627  12.595 -0.0434  0.1771 -0.1314
 3178W        W20025  13.670   8.540  15.291 -0.1179 -0.2853  0.5275
 3179W        W20026  13.977   0.131   2.373  0.1478 -0.2218  0.0780
 3180W        W20027   4.545   1.890  15.642  0.1101 -0.1798  0.0050
 3181W        W20028   2.234   0.409   4.713 -0.4539  0.4322  0.2280
 3182W        W20029  12.871   1.137  11.857  0.0100  0.1086  0.3430
 3183W        W20030  17.085  12.182  14.364 -0.0038 -0.1184 -0.2706
 3184W        W20031   8.413   9.662   4.460 -0.0711 -0.1273 -0.2056
 3185W        W20032   8.362   0.823  12.113 -0.0901 -0.0659 -0.1542
 3186W        W20033  14.672  10.350   4.859  0.0715 -0.1374 -0.1526
 3187W        W20034  15.849   6.319  12.185 -0.1325 -0.6254 -0.0202
 3188W        W20035   0.690   4.303   3.422  0.0407 -0.0054 -0.0928
 3189W        W20036   3.472   3.659   3.556  0.2189 -0.4068  0.1538
 3190W        W20037  16.844   1.965   5.320 -0.0581  0.0648 -0.1938
 3191W        W20038   6.290   4.910   5.410 -0.1486  0.0043 -0.0425
 3192W        W20039  15.854  15.585   3.197 -0.0299  0.1061  0.0855
 3193W        W20040  16.487   5.083  11.608  0.0653 -0.2249 -0.1768
 3194W        W20041  10.203  11.764  11.499  0.2472  0.1850  0.2518
 3195W        W20042  18.251   2.483   2.461  0.5107  0.1743 -0.1005
 3196W        W20043   4.805   9.599  14.121 -0.3181 -0.0214  0.1683
 3197W        W20044  16.965   9.196  12.446 -0.0867 -0.1316 -0.1445
 3198W        W20045   1.654   9.289   2.739  0.3601 -0.0738  0.0935
 3199W        W20046  16.272  18.690   2.197  0.0845  0.2080  0.2388
 3200W        W20047   1.863  15.423   0.196  0.0884  0.0723 -0.0379
 3201W        W20048   9.274  16.338  13.566  0.0152  0.2806  0.0745
 3202W        W20049  12.370   0.043  14.251 -0.2651 -0.1755  0.0566
 3203W        W20050  10.503  16.920   1.251  0.3400  0.2634  0.2080
 3204W        W20051  16.672  14.216   4.110  0.0109  0.0965 -0.2587
 3205W        W20052  18.662   8.640  15.092 -0.1376  0.1469 -0.1784
 3206W        W20053   0.051  10.107  13.208  0.3922  0.0520 -0.0361
 3207W        W20054   3.586  11.170   2.439 -0.0288  0.3236  0.2481
 3208W        W20055   0.357  15.525   0.716  0.0195 -0.1547 -0.0263
 3209W        W20056  13.588  16.545  11.954  0.3348  0.1773 -0.0084
 3210W        W20057  10.687  15.510  12.364 -0.0546  0.2414 -0.2081
 3211W        W20058   8.257   0.827   4.336  0.1745 -0.0471 -0.0158
 3212W        W20059   8.724   0.449  14.277 -0.1232  0.2259  0.2825
 3213W        W20060  18.407  18.479  12.062 -0.1661  0.2267  0.0380
 3214W        W20061  12.392   2.700   4.782  0.1165 -0.0628  0.0130
 3215W        W20062  17.059   0.322  11.950  0.0634  0.1477  0.0751
 3216W        W20063   9.416   6.348   4.574 -0.1035  0.0622  0.0619
 3217W        W20064  13.338   8.362   0.318  0.2494  0.1643 -0.0822
 3218W        W20065   6.226   6.463   5.012  0.0324  0.0887 -0.0626
 3219W        W20066  12.411   3.065  14.758  0.0941  0.1122  0.1332
 3220W        W20067  16.088  18.852  15.729  0.1461  0.1768 -0.1053
 3221W        W20068  18.055   7.688  14.378  0.2869  0.2636 -0.0523
 3222W        W20069  14.051   6.848   3.826 -0.0874  0.0675  0.1195
 3223W        W20070  18.086  18.529  15.347  0.0994  0.2881 -0.3350
 3224W        W20071   9.051   1.552  13.291 -0.0080 -0.0485  0.0261
 3225W        W20072  10.452   7.034  13.434  0.0952  0.1819  0.0850
 3226W        W20073  14.067  18.116   3.152 -0.3073  0.1232 -0.2137
 3227W        W20074  11.735   9.386  13.307  0.1523 -0.1905 -0.2062
 3228W        W20075  11.512  15.740   5.826 -0.1291  0.4158 -0.0025
 3229W        W20076   1.139  10.981   5.158  0.3503 -0.4017 -0.0308
 3230W        W20077   2.886   2.078  14.716 -0.0905 -0.0907  0.0237
 3231W        W20078  12.059   1.241  13.756 -0.3872 -0.0637 -0.0656
 3232W        W20079  13.457   7.262   5.367 -0.1178  0.1761  0.1069
 3233W        W20080   3.752   0.919   4.510  0.1106 -0.0494 -0.0555
 3234W        W20081  15.777  12.489   1.635 -0.2579  0.3913  0.3993
 3235W        W20082  10.483   1.908  10.847  0.1821 -0.0989  0.2334
 3236W        W20083   5.647  14.449  14.496 -0.0058  0.0506  0.0420
 3237W        W20084  12.165  14.034   2.266 -0.1338 -0.1677 -0.2569
 3238W        W20085  11.368  15.158  11.876 -0.1272  0.1606  0.1591
 3239W        W20086  17.468  18.351  13.534 -0.0368 -0.3174  0.2765
 3240W        W20087  17.301  10.913  15.037 -0.0770  0.1614  0.0191
 3241W        W20088   2.803  14.525   2.680  0.1549  0.3490  0.1695
 3242W        W20089   3.199  13.686  15.276  0.2395  0.2883 -0.4303
 3243W        W20090  11.735   0.574   0.811  0.1483 -0.2010  0.1627
 3244W        W20091  16.950  10.956   5.527 -0.0310  0.0655  0.2744
 3245W        W20092   1.142   5.997   4.882  0.1880 -0.0247 -0.1122
 3246W        W20093   2.616   4.096  13.901  0.1944 -0.3779 -0.2237
 3247W        W20094   8.208   4.886   4.751  0.2016 -0.0733 -0.3532
 3248W        W20095  17.822  18.615   2.285 -0.1443 -0.0834 -0.0081
 3249W        W20096  18.815  15.356   5.483 -0.1225 -0.0492 -0.1297
 3250W        W20097   7.400  10.700  12.106  0.1203  0.1284 -0.3091
 3251W        W20098  15.800  18.317  14.525 -0.2284  0.1991  0.0400
 3252W        W20099   8.016  14.647   0.410  0.0788  0.0934 -0.0334
 3253W        W20100  17.312   1.392   0.441 -0.0076  0.1190  0.1795
 3254W        W20101   5.520   8.003  14.394 -0.0364  0.2295 -0.2259
 3255W        W20102   2.965  18.447   4.651  0.2468  0.0165  0.1808
 3256W        W20103  12.712  15.814   0.740  0.1753  0.0061 -0.2224
 3257W        W20104  16.025   0.061   0.479 -0.1731 -0.0838  0.0473
 3258W        W20105   7.836  11.150   3.891 -0.3401 -0.1600 -0.0058
 3259W        W20106  16.671  17.115  11.808  0.4561  0.1281  0.0795
 3260W        W20107   2.638  15.368   1.156  0.2171 -0.2736  0.1066
 3261W        W20108   1.497  16.555  11.554 -0.0378  0.2127 -0.0928
 3262W        W20109   6.329   1.757  12.211  0.1261  0.1039  0.0138
 3263W        W20110  15.610  14.354   5.145 -0.0874 -0.0711  0.1427
 3264W        W20111  16.048  12.044   2.636 -0.2068  0.0623  0.2924
 3265W        W20112   0.815  16.771   5.469 -0.0491  0.5209 -0.2691
 3266W        W20113   5.324  15.135  11.476 -0.3643 -0.0228  0.1099
 3267W        W20114   7.244   6.967   4.868  0.1849 -0.0378  0.4385
 3268W        W20115   9.549   1.352   4.823  0.0506 -0.1163 -0.3653
 3269W        W20116  11.908   6.018  14.037 -0.1776  0.1497 -0.2464
 3270W        W20117   5.565   1.323  14.691 -0.1931 -0.0144  0.0763
 3271W        W20118   5.029   5.644   1.092 -0.0342 -0.0601 -0.0717
 3272W        W20119   9.352  18.204   0.198  0.2774 -0.4648 -0.0461
 3273W        W20120   8.368  13.406  14.716 -0.0508  0.0252  0.0222
 3274W        W20121   0.640   2.692  14.681 -0.1558  0.0536  0.4772
 3275W        W20122   0.798   2.886   2.696 -0.0779 -0.0751  0.1156
 3276W        W20123  14.557   6.748  12.479 -0.0328 -0.3893 -0.3962
 3277W        W20124   9.162  10.151   4.273 -0.1810 -0.0379  0.1470
 3278W        W20125   2.708   7.262  10.325  0.3095  0.2854  0.1598
 3279W        W20126   6.631  16.975   3.489 -0.0641  0.0718  0.2498
 3280W        W20127   5.570   1.265   0.404 -0.1335  0.0200 -0.1809
 3281W        W20128  15.249   4.736  13.698  0.1006 -0.3336 -0.0402
 3282W        W20129   1.637  16.416   2.925  0.0070  0.0517 -0.3471
 3283W        W20130  16.373  16.061  14.314  0.1392 -0.1411 -0.2131
 3284W        W20131  12.299  17.983  15.759  0.2569 -0.1790 -0.0129
 3285W        W20132   3.088   9.133  12.443 -0.0081  0.0828 -0.2733
 3286W        W20133   1.571   0.847  12.264 -0.3705  0.0104 -0.0095
 3287W        W20134  11.550   8.614  15.428  0.0791  0.6214  0.0818
 3288W        W20135  12.621  16.503   4.108  0.4557 -0.1304  0.1403
 3289W        W20136  11.761   5.938  11.170 -0.1216 -0.1218 -0.4182
 3290W        W20137   0.905  11.063   4.301 -0.0088  0.1789 -0.0272
 3291W        W20138   7.436  17.481  12.960 -0.0031  0.3338  0.1110
 3292W        W20139  11.367   2.178  10.671  0.1355  0.2028  0.2958
 3293W        W20140  12.191   8.835   1.610  0.4820 -0.0004 -0.1295
 3294W        W20141   7.929   1.325   4.673  0.1520  0.0803 -0.0664
 3295W        W20142  15.462  17.041  13.398  0.3853  0.1655 -0.1069
 3296W        W20143   6.406   0.428   4.489  0.2133 -0.1181  0.0072
 3297W        W20144   3.630  10.988   3.258  0.1472  0.0881 -0.2038
 3298W        W20145  17.289  12.551   2.281  0.0164 -0.2250 -0.1313
 3299W        W20146   1.964   8.885  11.976  0.0323 -0.1042  0.0604
 3300W        W20147   6.710  17.964   0.692  0.1005  0.2314  0.0067
 3301W        W20148  10.666   2.120   2.843 -0.0894  0.1044 -0.2161
 3302W        W20149   5.588  11.503   3.753  0.2793  0.1726  0.1596
 3303W        W20150   3.697  17.327   2.217 -0.0651 -0.0075  0.4718
 3304W        W20151  14.742  18.378   3.869 -0.1531  0.1695  0.1731
 3305W        W20152  12.879  13.533  12.264 -0.4171  0.1095 -0.0472
 3306W        W20153  14.699   4.134  15.383 -0.0063  0.2443  0.0662
 3307W        W20154  13.629  13.872   3.044 -0.1417  0.1859  0.3324
 3308W        W20155   9.066  11.163  14.187  0.0883 -0.1715 -0.2141
 3309W        W20156   6.217   8.774   2.340 -0.3199  0.0878 -0.1261
 3310W        W20157   5.397   7.690  11.991 -0.0851  0.2953 -0.0378
 3311W        W20158  17.935   7.811  12.835 -0.4434  0.0312 -0.0685
 3312W        W20159  16.736  14.230  12.244  0.0176 -0.2863  0.1691
 3313W        W20160  17.272   2.006  10.678  0.0213 -0.0117  0.1293
 3314W        W20161   9.149   9.507   4.056  0.1894  0.1581 -0.1123
 3315W        W20162  10.641  16.413  15.468  0.3153 -0.0450  0.0708
 3316W        W20163   1.339  16.212   1.598 -0.1442  0.1881 -0.0446
 3317W        W20164   0.909   5.236   0.154 -0.2570  0.0135  0.0636
 3318W        W20165  10.416  14.826  10.821  0.2602 -0.0324 -0.0885
 3319W        W20166  16.541   8.301  11.550  0.0760 -0.0697 -0.0471
 3320W        W20167   8.395  17.023  12.555 -0.0282  0.2552 -0.1168
 3321W        W20168   8.545  18.418   6.086  0.3222 -0.0067 -0.0634
 3322W        W20169  10.508   4.547  12.228 -0.1864  0.0433 -0.1133
 3323W        W20170   1.420   6.136   2.156 -0.1559 -0.1533 -0.2779
 3324W        W20171   5.051   7.072  12.881 -0.0456 -0.3172 -0.0470
 3325W        W20172   9.182  15.110  14.950 -0.0846  0.1480  0.2151
 3326W        W20173   6.666  13.422  14.792 -0.0486  0.2651 -0.2346
 3327W        W20174  18.676  13.980  15.678  0.1868  0.3281 -0.0505
 3328W        W20175  18.350   7.443  11.295 -0.0219 -0.3281 -0.4611
 3329W        W20176  17.421   4.276  14.667  0.3125 -0.0069  0.0759
 3330W        W20177   7.165  14.016   3.741  0.1519 -0.0495  0.1261
 3331W        W20178   3.195  10.163  15.483  0.1376  0.0139 -0.3904
 3332W        W20179  17.560   6.821  12.114  0.2851 -0.0236 -0.0643
 3333W        W20180  10.797   4.079   3.560  0.0087  0.0471 -0.2622
 3334W        W20181  17.883   8.264   1.114  0.1417  0.2043  0.3731
 3335W        W20182   5.247   4.224  11.812 -0.3400 -0.2599  0.3279
 3336W        W20183  15.562   4.110   1.014 -0.3394  0.0787  0.1545
 3337W        W20184  18.445   7.787  15.159 -0.0929 -0.1324 -0.1358
 3338W        W20185   7.912  10.769  11.185  0.1037 -0.0147  0.1291
 3339W        W20186   8.329  18.271   3.535  0.0352 -0.1370  0.1174
 3340W        W20187  14.808   8.099   4.064  0.3222  0.1004 -0.1582
 3341W        W20188  14.845  18.163   1.745  0.1816  0.0441 -0.0909
 3342W        W20189   6.698  10.339  11.175  0.1186 -0.2429 -0.0275
 3343W        W20190   6.801  13.097   0.537 -0.0287  0.0113 -0.1733
 3344W        W20191  10.954   3.079  14.964 -0.0904  0.0617 -0.1452
 3345W        W20192  14.140  14.099  13.641  0.0443  0.3122  0.0422
 3346W        W20193   8.283   6.368   3.606  0.0436 -0.2919 -0.0810
 3347W        W20194  14.941  10.953   5.692  0.4465 -0.0770 -0.1773
 3348W        W20195  16.681   7.608   4.326 -0.0074 -0.0803  0.2345
 3349W        W20196   5.509  16.372   2.720 -0.3760 -0.0832 -0.2393
 3350W        W20197   5.656   9.271   3.450 -0.0389 -0.0119 -0.0026
 3351W        W20198   8.953   6.108   5.061  0.0937 -0.0543 -0.0881
 3352W        W20199  10.384  18.669   3.611  0.1398  0.1833  0.0439
 3353W        W20200   3.531  15.394   1.628  0.1106 -0.2477  0.1398
 3354W        W20201  15.968  14.673  14.138  0.2244 -0.2883  0.2007
 3355W        W20202  14.441  13.841   3.582  0.0374  0.2587 -0.0136
 3356W        W20203  14.117  14.424  14.925 -0.3613  0.0679 -0.0460
 3357W        W20204   8.087   5.685  12.715  0.3084 -0.2051  0.0206
 3358W        W20205  18.292  11.260   2.377 -0.0341 -0.2133 -0.0232
 3359W        W20206   0.499  11.490   2.399  0.0626  0.1165 -0.1124
 3360W        W20207   0.006   0.158   0.000 -0.1985  0.4258  0.1644
 3361W        W20208   5.394  11.564  10.895  0.1517  0.0286 -0.1906
 3362W        W20209   2.131  13.622  14.348  0.0630  0.0923 -0.0411
 3363W        W20210   8.215   6.504   0.460 -0.0604 -0.0712  0.1274
 3364W        W20211   5.783  15.385   4.364  0.0212  0.0794  0.0200
 3365W        W20212   1.423   2.611  14.182  0.0396  0.1427 -0.0759
 3366W        W20213  14.821  14.617   4.812 -0.2936 -0.0072  0.2566
 3367W        W20214   6.171   9.509  14.294 -0.0559  0.0054 -0.0160
 3368W        W20215   4.503  15.691   4.244  0.4339 -0.1005  0.3856
 3369W        W20216   9.892  12.872   2.093  0.0400 -0.0915  0.2891
 3370W        W20217   8.213   0.593  11.550  0.0187 -0.1581 -0.4993
 3371W        W20218   9.678   5.082  10.736 -0.2397 -0.1246 -0.2093
 3372W        W20219  13.833  10.082   1.605 -0.0155 -0.0447  0.3152
 3373W        W20220   7.112   0.355   0.605  0.1630  0.2203 -0.1733
 3374W        W20221  12.052   1.856   0.009 -0.3577  0.0997 -0.2189
 3375W        W20222   9.594   1.780   1.784 -0.1722  0.0215 -0.1106
 3376W        W20223  13.856  11.839   2.469  0.3904  0.2009 -0.0720
 3377W        W20224   2.239  11.303  11.314  0.0125  0.0426 -0.1272
 3378W        W20225   3.499   4.016  14.863 -0.2351 -0.0985 -0.0542
 3379W        W20226   8.068   9.126  13.580  0.0190  0.0007 -0.2091
 3380W        W20227  13.253  11.534   0.649 -0.2257  0.1434 -0.1532
 3381W        W20228   3.237   7.163   1.277  0.0371  0.2081  0.2354
 3382W        W20229   7.202  17.622  11.938  0.0305  0.0171  0.0356
 3383W        W20230  13.288   4.447   3.949 -0.0532  0.0156  0.1381
 3384W        W20231  10.615  15.993  11.246 -0.0242 -0.0636  0.2540
 3385W        W20232  14.233  18.780   0.497  0.1401 -0.1973  0.3789
 3386W        W20233   5.527  12.077  15.542 -0.2072  0.2550  0.0626
 3387W        W20234   9.638  12.338  14.345 -0.0564  0.3182 -0.1508
 3388W        W20235  14.624   8.254   0.075 -0.1182 -0.0508  0.3926
 3389W        W20236   3.524   4.417  11.380 -0.2276 -0.1973  0.0781
 3390W        W20237   1.932   2.998  13.970  0.0066  0.0720 -0.0328
 3391W        W20238   5.781   2.156   2.248  0.0265 -0.0215  0.1932
 3392W        W20239   8.774   4.597   5.142  0.0694  0.1566  0.2567
 3393W        W20240   2.071   3.099  11.333 -0.1269 -0.0473  0.0679
 3394W        W20241   8.925  10.986   0.975  0.1050 -0.1424 -0.1615
 3395W        W20242   6.151   7.802  11.573  0.0103 -0.1297  0.1531
 3396W        W20243  12.256  13.325  15.124 -0.1563  0.0799  0.1434
 3397W        W20244  16.190   7.448   1.165  0.0753 -0.0997  0.4983
 3398W        W20245   1.932  12.217  11.614  0.1109 -0.1039 -0.1368
 3399W        W20246   3.680   0.123   0.426  0.2429  0.0034  0.0254
 3400W        W20247   6.045  15.358   2.629 -0.2113  0.2946 -0.1713
 3401W        W20248   1.549   3.711  14.542  0.2055  0.3079 -0.1237
 3402W        W20249   7.713   0.955  12.022  0.0486  0.1186 -0.0853
 3403W        W20250   9.523  15.728   3.707  0.1359 -0.0744  0.1337
 3404W        W20251  12.387   3.729   2.035  0.0528  0.3084 -0.0288
 3405W        W20252   6.807  10.864  15.707  0.2441 -0.0754 -0.1888
 3406W        W20253  14.668  14.585   5.343  0.1782 -0.0695  0.1398
 3407W        W20254   6.250  17.554   4.718 -0.1405  0.3269 -0.0205
 3408W        W20255   7.018   6.810  12.495  0.2393  0.2131  0.1157
 3409W        W20256  17.062   4.755   2.525 -0.0396 -0.1160  0.0271
 3410W        W20257  15.272   4.052   1.721 -0.2845 -0.1811  0.0287
 3411W        W20258  12.421   4.513  14.245  0.0303 -0.1228 -0.0198
 3412W        W20259  13.199   8.687   5.537 -0.0848  0.1231 -0.2944
 3413W        W20260  12.763   8.000   0.142 -0.0123  0.2066  0.0068
 3414W        W20261   3.728   2.434  11.796 -0.1246 -0.1535 -0.0689
 3415W        W20262  12.132  11.539  12.614 -0.1721  0.1397 -0.1146
 3416W        W20263   2.856   5.314   2.215 -0.0000 -0.0400 -0.2627
 3417W        W20264   4.767   1.442  13.889  0.2736 -0.0011 -0.0804
 3418W        W20265   0.609  18.479   0.053  0.1540  0.0533  0.0611
 3419W        W20266   4.918  13.945   4.396 -0.0647  0.0025 -0.1769
 3420W        W20267  18.406  13.750  11.421  0.1870 -0.2308  0.3842
 3421W        W20268   7.394   6.131   3.935  0.0314  0.2136 -0.1583
 3422W        W20269  17.257   5.063  12.942 -0.3891 -0.1328  0.1243
 3423W        W20270  11.514   8.612  13.922 -0.0745 -0.1334 -0.5836
 3424W        W20271   3.929  15.310   0.096 -0.1368  0.0639 -0.0215
 3425W        W20272   9.813  16.006   4.646 -0.1427 -0.2912  0.2440
 3426W        W20273   7.993  13.496   4.511 -0.2015 -0.1498 -0.0579
 3427W        W20274  13.138   2.191  13.816 -0.1656 -0.2268  0.0793
 3428W        W20275  13.426  14.924   4.314 -0.2495  0.0046  0.0382
 3429W        W20276  13.750  13.761  14.733 -0.1069  0.0899  0.3517
 3430W        W20277  13.034  12.636  10.678  0.0655  0.2485  0.2833
 3431W        W20278  12.619  10.168  15.700  0.1623  0.0797 -0.1313
 3432W        W20279  13.459   6.590  14.641 -0.0143 -0.1185 -0.0493
 3433W        W20280   8.362   3.122  13.354 -0.3884  0.1249  0.2813
 3434W        W20281  13.324   4.531   1.217 -0.0551  0.3493  0.2092
 3435W        W20282   6.308  13.885   0.149  0.1671  0.0157 -0.0172
 3436W        W20283   2.941  17.565   1.830 -0.0126 -0.3026  0.1098
 3437W        W20284   4.760   7.420   2.278 -0.0916  0.0425  0.0724
 3438W        W20285  14.025   3.593   4.005 -0.0427  0.1023  0.0816
 3439W        W20286  18.316  12.463   2.607 -0.0009 -0.5630  0.0537
 3440W        W20287  10.945   9.097   1.742 -0.0135  0.2507  0.2919
 3441W        W20288   9.921  11.044  14.454  0.1293 -0.0192 -0.1034
 3442W        W20289   3.660  14.264   2.912 -0.0872 -0.1561  0.2898
 3443W        W20290   6.200  15.511   3.644 -0.1516 -0.1038  0.0915
 3444W        W20291   8.726   4.119   4.949  0.0668 -0.0803 -0.0512
 3445W        W20292  16.877   5.362   2.392 -0.3182 -0.0961  0.0583
 3446W        W20293   2.851  18.025   2.248 -0.1943  0.2437  0.4437
 3447W        W20294  13.751   2.857  11.599 -0.3757  0.2929 -0.0931
 3448W        W20295   4.744   8.955   2.159 -0.0250  0.0327 -0.0645
 3449W        W20296   9.653   8.527  14.331 -0.1276  0.3438 -0.2634
 3450W        W20297  16.721   7.440  12.176  0.1247 -0.0873 -0.1467
 3451W        W20298  18.791   0.447  13.924 -0.2718 -0.1560  0.0467
 3452W        W20299   5.420   2.118   1.279 -0.3173 -0.0809  0.3354
 3453W        W20300   7.628  15.543  14.807 -0.3207 -0.0790 -0.2867
 3454W        W20301  10.692   7.834  12.188  0.0229  0.0730 -0.1722
 3455W        W20302   6.807   0.126   4.346  0.0134  0.0491 -0.2802
 3456W        W20303   7.433   6.075  14.845 -0.0081  0.3863  0.0469
 3457W        W20304  17.726   4.912  11.932 -0.1528  0.1492  0.1195
 3458W        W20305  18.489  11.987  14.270 -0.1640 -0.1927 -0.1015
 3459W        W20306   5.636  16.481   5.545 -0.0899 -0.1248 -0.2629
 3460W        W20307  15.534  16.048   4.907 -0.4214 -0.1141  0.1110
 3461W        W20308   5.972  15.819   1.264  0.0627 -0.1392 -0.2050
 3462W        W20309  15.678  17.208   6.014 -0.1394  0.2479 -0.2022
 3463W        W20310   2.063   0.060   3.042  0.0794  0.1823  0.1004
 3464W        W20311  14.514  16.296   4.191 -0.3717  0.1433 -0.1231
 3465W        W20312   5.682  11.187   0.078  0.0661 -0.3405  0.0037
 3466W        W20313   6.385  14.631  11.100  0.2646 -0.2062 -0.2673
 3467W        W20314  10.275   6.394  11.243 -0.1513  0.1300 -0.2423
 3468W        W20315  14.791  15.643   1.218 -0.1193  0.1934  0.1157
 3469W        W20316   8.622   0.132   2.800  0.2447  0.0892 -0.1501
 3470W        W20317  18.193  17.937   0.889 -0.1382  0.1163 -0.2531
 3471W        W20318  17.068   8.337  12.024 -0.0710  0.2828  0.0424
 3472W        W20319   8.686  11.980  15.251 -0.1054  0.0035 -0.0823
 3473W        W20320   9.793  11.494  11.258 -0.1433 -0.1832  0.0999
 3474W        W20321  10.945  14.342  14.216  0.1209  0.0945 -0.1597
 3475W        W20322  18.347   9.288   6.206  0.0209  0.3260 -0.2183
 3476W        W20323  14.156   9.710  15.660 -0.0706 -0.2662  0.0278
 3477W        W20324   1.768  18.554   2.709 -0.1807 -0.1750  0.0835
 3478W        W20325  17.779  17.210  11.840 -0.0382 -0.2418  0.1657
 3479W        W20326  15.139   4.796   2.399  0.2904 -0.4487  0.1458
 3480W        W20327  15.292   9.772   1.896 -0.0924 -0.2868 -0.0046
 3481W        W20328   6.288   8.283   1.365 -0.0289 -0.0542 -0.0971
 3482W        W20329   4.509  12.183   3.754  0.0210  0.0024  0.4652
 3483W        W20330   7.139   8.957   3.933 -0.1999  0.1010  0.1569
 3484W        W20331   1.708  18.527   3.190 -0.3222 -0.0200  0.0617
 3485W        W20332   1.282  15.591  11.186 -0.0179  0.0118 -0.1447
 3486W        W20333  15.166  17.206   3.490  0.0764 -0.2349  0.3487
 3487W        W20334  16.028  18.854   1.234  0.0344  0.1028  0.3036
 3488W        W20335  15.901  13.445  13.238 -0.0848  0.0872  0.3184
 3489W        W20336  17.451  14.164   0.210 -0.1046  0.2002  0.0907
 3490W        W20337   3.845   7.554  13.925 -0.3247  0.0489 -0.0319
 3491W        W20338   6.220  18.432  12.512 -0.1733  0.0118  0.3389
 3492W        W20339  17.778   4.179   1.749 -0.1130  0.0443  0.0287
 3493W        W20340  10.873   4.652  15.750 -0.1959  0.2624 -0.5708
 3494W        W20341   2.586  18.582  13.902  0.1635  0.0473 -0.1806
 3495W        W20342   2.148  10.058  14.669 -0.0717  0.2027  0.2442
 3496W        W20343  18.107  13.552   2.752 -0.0916  0.1691 -0.3980
 3497W        W20344  11.922   6.899   4.674  0.0053 -0.0338 -0.2081
 3498W        W20345  15.886   3.338   1.482  0.2757 -0.1576  0.1942
 3499W        W20346   4.309   2.401  15.596  0.1652 -0.0249  0.1319
 3500W        W20347  11.331   3.703   5.047  0.4216  0.1135 -0.4935
 3501W        W20348  14.253   5.821  15.031 -0.4120  0.0108 -0.1585
 3502W        W20349  17.720  18.795   5.266  0.2736 -0.1176  0.2251
 3503W        W20350   3.720   6.015  11.578  0.1281  0.0088  0.0950
 3504W        W20351  12.356  16.343  11.053  0.5313 -0.3151  0.2100
 3505W        W20352   7.559  10.910   3.421  0.0280  0.1049 -0.1365
 3506W        W20353   3.643  10.921  14.042  0.0576 -0.1103 -0.3965
 3507W        W20354   1.820  18.666   2.072  0.0211  0.2847 -0.0010
 3508W        W20355   1.354  14.621  13.428 -0.0044  0.2198 -0.1348
 3509W        W20356   3.954  16.164   2.959 -0.2636  0.3732  0.2998
 3510W        W20357   5.158  15.142   2.233 -0.0428 -0.4272 -0.0582
 3511W        W20358   2.464  17.433  11.419 -0.0567  0.2880  0.0548
 3512W        W20359  17.345  12.227  13.933 -0.2580  0.0031 -0.0512
 3513W        W20360   1.600  13.215  14.905  0.0751 -0.3728  0.3004
 3514W        W20361  15.884   1.271   6.295 -0.2703 -0.4049 -0.1509
 3515W        W20362   0.874   2.554   2.263  0.1917  0.0041 -0.1090
 3516W        W20363  11.909  16.044   4.839 -0.2708 -0.0069  0.0100
 3517W        W20364   9.854  18.463   0.203 -0.3849  0.2126  0.0517
 3518W        W20365  11.816   0.557  13.158 -0.0585 -0.0135  0.0658
 3519W        W20366  16.033   4.007  14.059 -0.2121  0.2697  0.1925
 3520W        W20367  17.859  17.373   1.842 -0.0829 -0.2316 -0.0856
 3521W        W20368   9.070   2.050   0.932  0.1202 -0.1901 -0.2618
 3522W        W20369   9.509  17.429   2.174  0.4340 -0.1792  0.0678
 3523W        W20370   3.094  12.553  13.451  0.0891  0.0501 -0.2212
 3524W        W20371  11.189   9.364   0.925 -0.1724  0.2898 -0.1386
 3525W        W20372   0.711   2.766   3.470  0.3737 -0.1882 -0.1182
 3526W        W20373  11.834   0.002  14.477  0.2742  0.2566 -0.0672
 3527W        W20374  15.071   1.347   3.753 -0.2033  0.2494 -0.3124
 3528W        W20375   7.299   3.040  15.288  0.0577 -0.1448  0.1341
 3529W        W20376   9.463   5.658  13.853 -0.1887  0.1583  0.2466
 3530W        W20377  10.553   1.353   4.609 -0.1507 -0.2981 -0.0282
 3531W        W20378   4.942   2.582   4.293  0.1603 -0.2569 -0.2831
 3532W        W20379   9.554   7.155  14.440  0.3689  0.1978  0.3770
 3533W        W20380  14.946  10.155   3.120 -0.0880 -0.0091  0.2269
 3534W        W20381   6.274   4.514   2.920  0.0709 -0.0374 -0.0105
 3535W        W20382   0.225   8.062  11.092 -0.1492 -0.0853 -0.1128
 3536W        W20383  13.367   3.108   1.363 -0.0608 -0.0199  0.1305
 3537W        W20384  15.982   2.605   3.760 -0.0583 -0.0478 -0.3772
 3538W        W20385   5.952   7.323   4.893 -0.3408  0.1844  0.0485
 3539W        W20386  12.868   3.209  14.497  0.3088  0.1803  0.1700
 3540W        W20387  17.959   1.143   3.875 -0.2196 -0.2843 -0.1448
 3541W        W20388   3.537   8.139   0.430 -0.0847 -0.2196 -0.1832
 3542W        W20389   2.818   7.430   3.928 -0.2562 -0.0979  0.0006
 3543W        W20390   6.007   1.844   3.549 -0.1424  0.2035 -0.1610
 3544W        W20391   6.661   6.463  11.876 -0.1437  0.2262 -0.1837
 3545W        W20392   0.038   9.539   1.966 -0.0167  0.1026  0.0475
 3546W        W20393  15.432   3.370   3.676  0.0583  0.0058  0.1163
 3547W        W20394   6.170   4.148  12.185 -0.0708 -0.1460 -0.3407
 3548W        W20395   8.366  15.702   4.238  0.2104 -0.0559 -0.1273
 3549W        W20396   2.105   5.128   3.864 -0.0369  0.2331  0.0336
 3550W        W20397  14.803  11.336  13.171 -0.2239 -0.2746 -0.1202
 3551W        W20398   2.899   3.376  14.874  0.1234  0.1787  0.0187
 3552W        W20399  16.667   2.506  14.263 -0.0965 -0.1261  0.0895
 3553W        W20400   3.313  17.756  14.945 -0.1271  0.2029  0.0756
 3554W        W20401   3.568  12.156   4.602 -0.3032  0.1172 -0.0006
 3555W        W20402   7.882  16.734  11.310 -0.1206  0.3850 -0.2560
 3556W        W20403   2.465   7.573   0.542  0.2650 -0.1886 -0.2589
 3557W        W20404   1.925   5.876   2.006  0.0600 -0.0135 -0.0149
 3558W        W20405  13.753   7.631  13.202 -0.1697 -0.0034 -0.1738
 3559W        W20406  15.057   3.200   1.767  0.0849  0.0151  0.5412
 3560W        W20407   4.834   0.432  11.003  0.0674 -0.1285  0.0199
 3561W        W20408  13.811   8.031  14.721 -0.0335  0.0675 -0.3475
 3562W        W20409   0.538  11.469   1.573  0.0989 -0.4654 -0.0784
 3563W        W20410   8.043  14.366  13.282 -0.0044 -0.1938  0.1324
 3564W        W20411   3.750  12.927  15.773 -0.2061 -0.0310 -0.0605
 3565W        W20412   8.128  16.804   4.600 -0.0378 -0.1429 -0.2062
 3566W        W20413   5.198  12.388  13.765 -0.5075  0.2168 -0.0451
 3567W        W20414   3.701  13.628   1.682  0.1523  0.0925  0.0031
 3568W        W20415   4.451  12.788  10.284  0.0887 -0.1208  0.2224
 3569W        W20416  15.131  14.682  14.410 -0.1563  0.0008  0.2935
 3570W        W20417  11.334  10.227  12.775 -0.1186  0.3997 -0.2020
 3571W        W20418   5.978  13.323   0.376  0.0517  0.1748  0.2448
 3572W        W20419   4.062  12.017  14.624 -0.2543  0.1882  0.1598
 3573W        W20420   5.145   3.647   2.543  0.2095 -0.1558 -0.4635
 3574W        W20421  14.514  10.709   3.534 -0.2736 -0.1114 -0.0098
 3575W        W20422   6.000   5.528   0.977  0.1003 -0.0556 -0.3926
 3576W        W20423  12.067   3.651  11.015  0.0862  0.0746 -0.0907
 3577W        W20424   3.586   4.525  12.861 -0.2094  0.2420  0.0155
 3578W        W20425  10.924   4.498  13.749 -0.0658 -0.3344 -0.0065
 3579W        W20426  13.309   5.358   2.687  0.1224 -0.0529 -0.3499
 3580W        W20427  13.117   8.804  13.698  0.2954 -0.0002  0.2251
 3581W        W20428   6.052   3.767   5.000 -0.1071 -0.0837 -0.1440
 3582W        W20429  15.564   3.612  14.760 -0.1949  0.0474  0.0282
 3583W        W20430   9.239  11.034   4.536  0.1641  0.0039  0.1421
 3584W        W20431  11.675   4.199  14.719 -0.0852  0.0934 -0.1374
 3585W        W20432   9.214   7.785   2.809 -0.0070 -0.1330  0.3218
 3586W        W20433  14.519   2.806   3.652  0.2329 -0.0682 -0.0417
 3587W        W20434   0.984   7.975  15.463 -0.0887 -0.2574 -0.0912
 3588W        W20435   8.851   9.730   2.236  0.2557  0.2359 -0.1536
 3589W        W20436   5.734   0.700   2.323  0.0039 -0.2028  0.2516
 3590W        W20437  16.163   9.637   4.795 -0.2342  0.1796  0.1951
 3591W        W20438  12.835  12.894   2.575 -0.2690 -0.0261 -0.0627
 3592W        W20439   6.391  11.231  13.680  0.1675 -0.0419 -0.0441
 3593W        W20440   0.013  18.090   3.658 -0.0040 -0.1415  0.1637
 3594W        W20441   3.350   7.841  12.761 -0.3971 -0.0889  0.0567
 3595W        W20442  18.289   2.812  13.809 -0.0910 -0.0916 -0.3332
 3596W        W20443   3.145  11.960  14.959  0.1521 -0.0893  0.0408
 3597W        W20444  11.720  10.087   0.179  0.0430 -0.0272 -0.2886
 3598W        W20445   1.449  13.549  11.226 -0.0304 -0.1011  0.1487
 3599W        W20446   1.044  13.377  11.852  0.0531 -0.1258  0.0426
 3600W        W20447   3.873   4.946   1.208 -0.2318 -0.2219  0.3268
 3601W        W20448  12.284  16.234  12.076 -0.0642  0.0776 -0.4237
 3602W        W20449   4.797   6.116   1.031  0.3678 -0.0990 -0.3118
 3603W        W20450   4.547  10.802  13.469 -0.0704  0.2022  0.0790
 3604W        W20451  16.480  14.725   4.007  0.0923  0.0980  0.2517
 3605W        W20452  15.528  13.033   4.658  0.1706  0.1088  0.1317
 3606W        W20453   3.046  14.667  13.079  0.0771  0.0139  0.0451
 3607W        W20454  11.175  16.451  13.248  0.0444  0.2374  0.0084
 3608W        W20455  13.626   2.373  14.423 -0.2615 -0.4850 -0.0940
 3609W        W20456  17.117   8.649  15.549 -0.0193 -0.2008  0.0090
 3610W        W20457  13.482   7.740  11.106  0.1080 -0.0671 -0.2576
 3611W        W20458   7.806   7.895  10.947  0.2021  0.0382  0.4297
 3612W        W20459  18.508   6.555  14.137  0.3346 -0.0089  0.0702
 3613W        W20460   8.771  15.456   0.877  0.2976 -0.1392 -0.0152
 3614W        W20461   5.841  11.441  13.648 -0.0452  0.2449  0.0117
 3615W        W20462   6.521   3.023  11.425  0.0097 -0.2634  0.2296
 3616W        W20463   4.655   7.856  11.293 -0.1246 -0.0288 -0.1730
 3617W        W20464   5.098   6.553  12.735 -0.1794 -0.2735  0.0024
 3618W        W20465  17.585  10.804  12.265  0.0207  0.0150  0.0744
 3619W        W20466   8.449   0.356   5.621 -0.1904 -0.0746  0.2248
 3620W        W20467   2.743   0.583   1.710  0.1679 -0.2218  0.2146
 3621W        W20468  13.026   3.797  11.714 -0.1254  0.1364  0.0992
 3622W        W20469  11.525   0.257   4.123  0.0150 -0.3666  0.0847
 3623W        W20470   4.666  12.744   4.646  0.0625 -0.4000  0.2014
 3624W        W20471   3.177  10.776  12.221 -0.4726 -0.1831 -0.0162
 3625W        W20472   0.852   1.637   0.352 -0.2588 -0.0374 -0.3088
 3626W        W20473   6.867  11.161   2.919  0.2552  0.0136  0.1565
 3627W        W20474   2.116  14.796   2.127 -0.1359  0.0706  0.2598
 3628W        W20475  17.100   7.604   6.203 -0.2271 -0.0185 -0.5408
 3629W        W20476   9.107   3.341   5.344 -0.0647 -0.2741 -0.1660
 3630W        W20477   1.325  17.944   2.489  0.0342  0.3844  0.0722
 3631W        W20478   6.366  10.433   0.411  0.1892 -0.0892  0.2306
 3632W        W20479  16.621   2.403  13.217  0.2404 -0.0819 -0.0455
 3633W        W20480  15.627   1.342   0.340 -0.0340  0.0712 -0.1533
 3634W        W20481  12.933  18.062  13.952  0.0154  0.1186 -0.0243
 3635W        W20482  17.589   5.053  13.361 -0.1836 -0.3518 -0.3097
 3636W        W20483   1.081   9.847  12.989 -0.2563 -0.3387  0.0563
 3637W        W20484  14.017   7.460  14.667 -0.0995  0.0375  0.0161
 3638W        W20485  10.976  16.118   2.811  0.0893 -0.1038  0.1408
 3639W        W20486  14.288   3.261   2.400 -0.0836  0.1764  0.1430
 3640W        W20487   0.961  11.665  15.642 -0.0608 -0.2212 -0.1120
 3641W        W20488  11.343   9.086   3.066  0.3390  0.2325 -0.1426
 3642W        W20489  17.485   9.705  13.634 -0.0215 -0.0212 -0.1044
 3643W        W20490  18.496   3.489  11.916  0.2854 -0.0387  0.1750
 3644W        W20491  14.825  10.287  15.753 -0.1554 -0.0095  0.1325
 3645W        W20492   5.855   0.726  12.182  0.0586 -0.0887 -0.1917
 3646W        W20493   7.741  16.855  13.736 -0.1381  0.0227 -0.2298
 3647W        W20494  10.810  13.018   2.065  0.0377 -0.3203 -0.1857
 3648W        W20495   2.802  18.668   1.176  0.0001 -0.2357 -0.3374
 3649W        W20496   4.374  17.991  14.292 -0.2511 -0.0471  0.1382
 3650W        W20497   9.203  15.559   2.481  0.2843  0.0705 -0.2290
 3651W        W20498  10.031   8.368  12.170 -0.4515  0.0118 -0.3898
 3652W        W20499   6.139  15.027   3.557  0.0149 -0.2448  0.0110
 3653W        W20500  10.308  10.952  10.659 -0.3050  0.0522 -0.1845
 3654W        W20501  12.665   9.908   4.626  0.1341  0.4519  0.1347
 3655W        W20502   1.175   2.992  13.963 -0.3840  0.3143  0.1139
 3656W        W20503  18.357   1.519  14.387 -0.2748 -0.0768 -0.0057
 3657W        W20504   2.260  11.770  15.088 -0.1087 -0.2908  0.0983
 3658W        W20505  16.110   8.676  12.850  0.1543  0.0619 -0.1472
 3659W        W20506   2.389  18.715   2.156 -0.1491  0.1189  0.0842
 3660W        W20507   7.218  17.372  15.493 -0.0170  0.2068 -0.0455
 3661W        W20508   4.261  15.864  14.476  0.1113  0.1218  0.2898
 3662W        W20509   8.194   9.142  12.251 -0.2853  0.0979 -0.0255
 3663W        W20510  17.565  12.179   2.957  0.2595 -0.3013  0.0755
 3664W        W20511   3.407  12.941   4.673  0.1864  0.2153 -0.2509
 3665W        W20512   8.074  14.071  13.678  0.2570 -0.1244 -0.2095
 3666W        W20513   1.698  11.572   5.091 -0.0860  0.0328 -0.0737
 3667W        W20514   6.537  18.712  12.876 -0.1303  0.0422 -0.0194
 3668W        W20515   1.463   6.303   5.543  0.1329 -0.0918 -0.0324
 3669W        W20516  16.727  11.642   3.034 -0.3052  0.0958 -0.2159
 3670W        W20517  15.068  13.159   1.509 -0.0984  0.3424 -0.0566
 3671W        W20518  10.862  12.959  11.099 -0.1086 -0.1479 -0.0672
 3672W        W20519  10.447  12.327  13.236  0.3053  0.1883 -0.1120
 3673W        W20520  17.315  12.443  12.321  0.3176  0.0989 -0.0807
 3674W        W20521   6.274   2.914   2.616 -0.0256 -0.1885  0.0300
 3675W        W20522  16.123  13.332   1.913 -0.0212 -0.4304 -0.2497
 3676W        W20523  18.423  15.285  13.558  0.1350 -0.0925  0.3862
 3677W        W20524   1.587   2.832  11.252 -0.1826 -0.1641  0.1809
 3678W        W20525   6.833  10.154   0.085 -0.1620  0.3790 -0.0380
 3679W        W20526   6.508  15.745   1.373 -0.0462  0.1210 -0.1018
 3680W        W20527  16.884  12.640   2.012 -0.1842  0.1591  0.2028
 3681W        W20528   4.046  10.590  13.372 -0.0016  0.0779  0.1908
 3682W        W20529   0.504  14.672   3.875 -0.2056 -0.2485 -0.1467
 3683W        W20530  15.622  12.902  12.933 -0.1889  0.1446 -0.1120
 3684W        W20531   2.171   9.501   4.034  0.0032  0.3474 -0.2978
 3685W        W20532   0.586  18.397  14.397  0.0562 -0.0600  0.3469
 3686W        W20533   9.608  11.073  11.035  0.3683 -0.3324  0.1664
 3687W        W20534   2.161   4.845  14.053 -0.1286  0.2629 -0.2101
 3688W        W20535   9.649   4.946  15.596  0.1484  0.1115  0.0590
 3689W        W20536  10.497   0.446  12.942  0.1290  0.3347 -0.1698
 3690W        W20537   7.087  15.998  10.623  0.1421 -0.0067 -0.4295
 3691W        W20538   6.274  10.241  11.573  0.2235 -0.1842 -0.2123
 3692W        W20539  17.534  10.799  10.902 -0.0659  0.1217 -0.4134
 3693W        W20540  12.746   8.917   5.629  0.0544 -0.1156  0.0088
 3694W        W20541   3.196   5.338  15.659  0.2037  0.1025 -0.1831
 3695W        W20542  14.981  10.479   3.684 -0.1546  0.2715  0.0412
 3696W        W20543   1.396  10.165  12.751 -0.0290 -0.3681  0.0016
 3697W        W20544   2.215   5.002  11.372  0.1286  0.0645  0.0432
 3698W        W20545   7.971  16.853  12.374 -0.2796  0.1136 -0.1961
 3699W        W20546  10.551  13.159  11.514 -0.1470 -0.2857 -0.2308
 3700W        W20547   5.310  14.173   0.818  0.0066  0.0635  0.0923
 3701W        W20548   3.965  17.679  14.578  0.0622  0.2458 -0.0845
 3702W        W20549  18.724  16.973   2.391 -0.3457 -0.2764  0.0200
 3703W        W20550  11.129  16.738   4.132 -0.0579  0.1808 -0.0172
 3704W        W20551  15.681   5.488  15.367 -0.2141 -0.1943 -0.0568
 3705W        W20552   9.574   3.570   3.185 -0.2808  0.4419 -0.1028
 3706W        W20553   5.334  18.675   1.030  0.0785 -0.2543  0.1997
 3707W        W20554  14.735  12.418  13.037  0.0350  0.0762 -0.1581
 3708W        W20555   4.521   1.294   1.306  0.0755 -0.2010  0.1067
 3709W        W20556  16.609  17.948   4.313 -0.1710 -0.1207 -0.0297
 3710W        W20557  16.445   0.366  13.485  0.0520  0.0003  0.0292
 3711W        W20558   0.563   4.259   4.701 -0.0084 -0.4793  0.2383
 3712W        W20559   6.118   7.270  12.798  0.3542 -0.2239  0.0779
 3713W        W20560  18.201   9.631  13.009  0.1711  0.3541 -0.0105
 3714W        W20561   6.638   6.720   1.847 -0.2966 -0.0585 -0.2103
 3715W        W20562  15.041  11.163   1.037 -0.0059 -0.5424  0.0800
 3716W        W20563  10.840   5.934  11.159  0.2033 -0.1572 -0.1725
 3717W        W20564   1.912  14.017   4.596 -0.2595 -0.1626 -0.1238
 3718W        W20565   3.957   6.272  12.685 -0.1993  0.1108 -0.2649
 3719W        W20566   7.398  14.217  12.596 -0.1321 -0.0032  0.1912
 3720W        W20567   2.128   9.707   1.635 -0.0099  0.0600  0.0962
 3721W        W20568   4.038  12.305   4.237  0.0851 -0.0076  0.1770
 3722W        W20569  17.479   9.185   0.133  0.0605  0.0224  0.0360
 3723W        W20570   1.504   3.083  13.580 -0.1008  0.0313 -0.0034
 3724W        W20571   9.198  14.708   2.787 -0.0450 -0.1766  0.0638
 3725W        W20572   5.161   0.476  14.703 -0.2043  0.0947  0.1689
 3726W        W20573   0.543  14.296  13.511 -0.1442  0.0452 -0.2812
 3727W        W20574   5.153   4.030  12.815  0.0352  0.1968 -0.2763
 3728W        W20575   0.073   2.092   5.184  0.0272 -0.1164  0.3294
 3729W        W20576  10.802  14.326   1.029  0.0306 -0.3960  0.3219
 3730W        W20577   4.217  18.856   2.472 -0.3130 -0.0844 -0.1296
 3731W        W20578   1.045  17.551  13.007 -0.0376  0.1049  0.0543
 3732W        W20579   6.140  16.624   9.320  0.2336 -0.0992 -0.1893
 3733W        W20580  16.467   8.200   3.178  0.3087 -0.1963 -0.0047
 3734W        W20581  14.585   9.444  14.862  0.0450 -0.1077 -0.2268
 3735W        W20582  10.310  12.067   2.258 -0.0452 -0.2527  0.0230
 3736W        W20583  13.045  18.172   4.849  0.3128 -0.0749  0.1229
 3737W        W20584   3.384   1.477  15.047  0.2839  0.3226  0.1794
 3738W        W20585   7.670   9.169  12.207  0.3630 -0.3297  0.1275
 3739W        W20586   2.839   3.051   1.447 -0.2936 -0.0681 -0.0184
 3740W        W20587   0.358   2.189  10.840  0.0806  0.4049 -0.1751
 3741W        W20588  12.351   8.131  11.231 -0.2225  0.0622 -0.3810
 3742W        W20589  13.053   7.583  11.350 -0.2244  0.0399 -0.0473
 3743W        W20590  17.344  11.241   3.845 -0.1394  0.2213  0.2308
 3744W        W20591  12.187   1.716  12.410 -0.1954 -0.1277  0.1645
 3745W        W20592  14.905  17.280  13.947 -0.0757  0.0563  0.1580
 3746W        W20593   4.074   6.791   0.505 -0.1957 -0.2490  0.0236
 3747W        W20594  17.136  16.517   2.554  0.1192  0.1230 -0.0151
 3748W        W20595   2.488   3.122   1.882 -0.1920 -0.0458 -0.3678
 3749W        W20596   3.932  13.123   1.875  0.0094  0.1391 -0.0919
 3750W        W20597   5.856   3.782  13.366 -0.1111 -0.2595  0.1773
 3751W        W20598  18.618  15.807  14.709  0.3248  0.1711  0.2784
 3752W        W20599   5.597   7.133   6.089 -0.1662  0.0159 -0.1557
 3753W        W20600   7.341   1.934  11.466  0.1002 -0.0536  0.1244
 3754W        W20601  12.976   1.093  13.413 -0.1950 -0.1347 -0.4439
 3755W        W20602  11.422   7.900  13.917  0.0728 -0.0300  0.0231
 3756W        W20603  13.472   0.182  12.118 -0.0282 -0.1063 -0.2445
 3757W        W20604  14.583   6.195  15.246 -0.2070  0.1179 -0.0418
 3758W        W20605  10.379   2.893   4.409 -0.2367  0.3890  0.0224
 3759W        W20606   6.243   9.226  11.480 -0.1127  0.0159 -0.2193
 3760W        W20607  13.546  10.247   5.584  0.1168  0.2555  0.1297
 3761W        W20608  11.818   4.796   2.097  0.1482 -0.0510  0.0516
 3762W        W20609   2.738  17.258   1.432 -0.0721  0.4070  0.0043
 3763W        W20610   5.090  18.196  12.990 -0.0719  0.2853  0.0469
 3764W        W20611   8.542   3.115  15.302  0.1685 -0.0356 -0.1797
 3765W        W20612   4.834   5.828   2.402 -0.2402 -0.2734  0.1136
 3766W        W20613  16.148  16.819  13.919  0.0628  0.2227 -0.1428
 3767W        W20614   7.967   5.417   0.488 -0.1075  0.3699  0.1046
 3768W        W20615   0.635   9.147   2.743  0.1116 -0.0224 -0.0207
 3769W        W20616  10.365   8.691  13.698 -0.1191 -0.2294  0.0760
 3770W        W20617  15.948  17.855   0.947  0.3503 -0.0484 -0.1624
 3771W        W20618  14.715   1.615  12.572 -0.1542  0.1793 -0.0987
 3772W        W20619   9.291   9.987  11.915  0.5098  0.1623  0.1165
 3773W        W20620  12.326  17.244   1.455  0.0506  0.1213 -0.0651
 3774W        W20621  11.748  17.322  14.129  0.0028  0.2128 -0.2592
 3775W        W20622  17.477   1.636   3.218  0.1115 -0.5225 -0.1724
 3776W        W20623  15.413   5.819   1.054 -0.1329  0.0403  0.0027
 3777W        W20624   4.070  13.240  15.399  0.1413 -0.3183  0.0924
 3778W        W20625  12.892   5.098   2.337 -0.1547 -0.0379 -0.0161
 3779W        W20626  15.740  16.622  11.441  0.1022 -0.0360  0.0682
 3780W        W20627  11.039   8.347  13.102 -0.2398  0.0247 -0.5225
 3781W        W20628  17.922  14.558   2.648  0.0935 -0.0962 -0.2398
 3782W        W20629  13.928   6.862  15.423 -0.2128 -0.1457  0.2057
 3783W        W20630   0.277  11.092  14.080  0.2950 -0.0040  0.0294
 3784W        W20631   3.081  12.030  12.474  0.0794 -0.0433  0.3892
 3785W        W20632  10.375   8.503   3.063  0.1062 -0.0086  0.1467
 3786W        W20633  16.864   3.432   5.234  0.0425  0.0446 -0.0452
 3787W        W20634  17.411   4.947  11.252 -0.4018 -0.2494 -0.0166
 3788W        W20635   7.654  13.030   1.382  0.3369 -0.1305 -0.1650
 3789W        W20636  18.176   5.644  11.477 -0.4720 -0.1973 -0.3131
 3790W        W20637   3.192   8.446  12.193 -0.0596 -0.0985  0.3756
 3791W        W20638  17.107  16.460   0.039  0.0054  0.1334  0.3741
 3792W        W20639  14.644   9.928   5.135 -0.1525 -0.2354 -0.1618
 3793W        W20640  18.652  10.323   5.578  0.2938 -0.0722 -0.3897
 3794W        W20641   2.667   5.190  15.189 -0.0936  0.1238 -0.0047
 3795W        W20642   4.508   3.818   0.535 -0.2835  0.1476 -0.0804
 3796W        W20643  11.757   8.252   4.100 -0.1617  0.2008 -0.1840
 3797W        W20644  15.101  14.175  14.243  0.0194  0.2164 -0.0116
 3798W        W20645   9.970  10.189   1.639 -0.4914 -0.0216  0.0350
 3799W        W20646  14.447   2.686  14.326 -0.0459  0.1747 -0.3593
 3800W        W20647   8.832  12.052  14.206 -0.1384 -0.2063  0.1173
 3801W        W20648   9.274   3.143  11.683  0.1282 -0.2044  0.0915
 3802W        W20649  18.760   0.228  15.303  0.3213 -0.1176  0.1994
 3803W        W20650   0.212   1.882  13.712  0.1173  0.3074 -0.0614
 3804W        W20651  13.910   6.787   1.806  0.0560  0.1505  0.2069
 3805W        W20652   0.367   3.539  12.615  0.1352  0.1749  0.1015
 3806W        W20653  16.469   3.812   0.464  0.2946  0.2833  0.2381
 3807W        W20654  18.817  13.042  14.285 -0.1495 -0.0376 -0.0655
 3808W        W20655  15.557  14.921   2.522 -0.1588 -0.0263  0.2041
 3809W        W20656   8.587   0.197  15.270 -0.2281  0.0024 -0.1415
 3810W        W20657   5.163   2.489  15.496 -0.0283 -0.1612  0.0875
 3811W        W20658   3.431  16.710  13.863  0.2349 -0.0272 -0.2050
 3812W        W20659   8.043  10.228  15.360  0.1902  0.0829  0.0652
 3813W        W20660   5.002  16.575  11.286 -0.0834  0.0586 -0.2349
 3814W        W20661   4.195  15.756  12.255  0.2041 -0.2785  0.2779
 3815W        W20662   5.370  17.849  10.588  0.1757  0.1586 -0.2177
 3816W        W20663  13.896  10.243  14.668 -0.0038  0.2907  0.0158
 3817W        W20664  16.805   2.639  11.364 -0.2136 -0.2892 -0.5803
 3818W        W20665   0.144   3.387   1.450  0.2434 -0.2954 -0.1668
 3819W        W20666   8.878  14.455   1.112 -0.1362  0.1164 -0.2053
 3820W        W20667   8.025  17.166   0.545 -0.2239  0.0664  0.0712
 3821W        W20668  17.039   1.462   5.493  0.2059 -0.2019 -0.3697
 3822W        W20669  17.888   0.912   4.494  0.0818  0.1129  0.0949
 3823W        W20670  10.059  14.406   3.671 -0.2988  0.1147 -0.1220
 3824W        W20671   4.778   6.328   4.464  0.2866  0.2153 -0.1091
 3825W        W20672   0.121   6.279   4.314 -0.0050 -0.0738  0.0925
 3826W        W20673  12.064   9.717  13.179  0.0345  0.2042  0.0560
 3827W        W20674  17.714  14.725  13.205 -0.2618  0.0012  0.1597
 3828W        W20675   9.957  11.569  15.554  0.0088  0.0819  0.2787
 3829W        W20676   3.867   2.526  15.071 -0.3150  0.0607 -0.0342
 3830W        W20677   5.071  10.800  12.117 -0.0781 -0.2179  0.0483
 3831W        W20678  17.914  18.214   3.156  0.0388  0.1507 -0.0084
 3832W        W20679  18.316   8.361   3.061  0.2099  0.1920 -0.1492
 3833W        W20680   9.308  12.341  10.535  0.0477 -0.0366 -0.3188
 3834W        W20681  16.935  12.179  11.120 -0.2965 -0.3249 -0.0260
 3835W        W20682   9.742   1.973  11.809  0.1853 -0.1343 -0.0991
 3836W        W20683  13.474  15.845   5.316  0.0309 -0.0291  0.3641
 3837W        W20684   4.649  11.263  15.714  0.1547 -0.1983  0.0919
 3838W        W20685  14.893   4.371   4.955  0.0864 -0.2525  0.5989
 3839W        W20686   8.914  16.415   4.114 -0.1076  0.0617  0.0233
 3840W        W20687  14.788   3.047   5.058 -0.2221 -0.1318 -0.0958
 3841W        W20688  10.990  16.783  14.378  0.1477 -0.0118 -0.1751
 3842W        W20689   5.615   5.532   4.216 -0.0884 -0.4564  0.0139
 3843W        W20690   0.590   6.040   1.917  0.4019  0.1920 -0.4559
 3844W        W20691  15.023   6.049  11.707  0.0045  0.0002 -0.2133
 3845W        W20692   9.628  18.711  14.575  0.1235 -0.0441  0.1279
 3846W        W20693  14.941  12.024  14.490  0.0341 -0.3376  0.1394
 3847W        W20694   8.826  15.843  10.704 -0.1056 -0.2221  0.1294
 3848W        W20695  15.796  12.161   0.787  0.2443  0.2931 -0.1313
 3849W        W20696   0.159   2.725  15.627  0.0007  0.2959 -0.2310
 3850W        W20697   2.320  12.482  11.923 -0.0688 -0.2226 -0.0093
 3851W        W20698  18.202   8.284  14.895  0.2361  0.0430  0.0281
 3852W        W20699  15.825  11.646   4.206 -0.0560 -0.0673 -0.2682
 3853W        W20700   4.853   1.279  13.450  0.0226  0.0808  0.1764
 3854W        W20701  17.695   1.003  10.809  0.2383 -0.0768  0.0531
 3855W        W20702  10.466   7.779   3.809 -0.0466  0.0139  0.0337
 3856W        W20703   0.815   7.389  12.241  0.2013 -0.0225 -0.2842
 3857W        W20704  15.747   7.988  11.221 -0.2249  0.2143  0.0532
 3858W        W20705   7.713  10.401   0.862  0.4104  0.0006 -0.1318
 3859W        W20706   9.224  11.083   5.065  0.3088 -0.0756 -0.4432
 3860W        W20707  10.226   9.811  12.232  0.0006 -0.0003 -0.1880
 3861W        W20708   7.860   6.973  12.518  0.2080 -0.0031  0.0043
 3862W        W20709   5.614   5.011  14.312  0.1815  0.1442 -0.2311
 3863W        W20710  17.210  16.508  15.258  0.1537  0.0947 -0.1777
 3864W        W20711   8.325   3.215   5.463 -0.0170  0.0241  0.0379
 3865W        W20712   4.684   7.496   1.783 -0.1307  0.0071 -0.0565
 3866W        W20713  18.699   1.903   1.725  0.0966  0.0892 -0.0910
 3867W        W20714   2.332   0.387   3.715 -0.1111 -0.0690 -0.2987
 3868W        W20715  12.852   6.591  15.680  0.2276 -0.2609  0.2064
 3869W        W20716   3.988   9.191  14.060 -0.0543  0.1020 -0.2007
 3870W        W20717   0.773  13.030  13.699  0.3621 -0.3911  0.0425
 3871W        W20718   5.471   0.605   3.694 -0.2432  0.3220  0.0275
 3872W        W20719   0.850   9.007  14.596  0.2787  0.3404  0.0642
 3873W        W20720  13.385  17.200   2.380 -0.0234 -0.1932 -0.1116
 3874W        W20721  16.033  17.847  11.399 -0.0542  0.2562 -0.1963
 3875W        W20722  18.093  16.627   0.212  0.4512  0.2966 -0.0680
 3876W        W20723  13.210   8.247   1.859 -0.1694  0.2415 -0.1503
 3877W        W20724  10.157  16.087   0.643  0.2943  0.0015 -0.1561
 3878W        W20725  17.999   0.115   4.874  0.1000 -0.0103 -0.1251
 3879W        W20726   4.246  14.377  12.927  0.2095  0.3570 -0.1292
 3880W        W20727   1.749   9.643   4.330 -0.0927 -0.1384 -0.1097
 3881W        W20728   0.816   8.422  15.305 -0.0527 -0.0412  0.3352
 3882W        W20729   9.768   3.169   4.958 -0.0274  0.1033 -0.0285
 3883W        W20730   7.208  11.727   0.690  0.0095  0.0877 -0.1978
 3884W        W20731  13.859   6.778   4.366 -0.0700 -0.0313 -0.3519
 3885W        W20732  17.697  13.989   1.251 -0.1367  0.0271  0.3336
 3886W        W20733  18.797  18.149  11.933  0.0929  0.1312  0.2909
 3887W        W20734  11.191  14.038  11.309 -0.1186  0.1158  0.0778
 3888W        W20735   7.266  10.666   3.748  0.3666  0.4423  0.0566
 3889W        W20736   5.141  11.022   3.884  0.0094 -0.0367 -0.1154
 3890W        W20737  12.469   9.776   2.170  0.0961 -0.1192 -0.2150
 3891W        W20738   9.777   9.405   1.637  0.1660 -0.3773 -0.0182
 3892W        W20739  17.008  13.973  12.897 -0.1547 -0.1346 -0.0185
 3893W        W20740   4.144   8.195   6.083 -0.0460  0.0068 -0.0690
 3894W        W20741   5.742   0.643   5.308  0.0544  0.0965  0.0214
 3895W        W20742   7.681   2.557   1.561 -0.2874  0.0011  0.0780
 3896W        W20743  16.530  12.591   5.004  0.0116 -0.2528 -0.2684
 3897W        W20744   6.992   9.601   2.894  0.0035 -0.2775 -0.1236
 3898W        W20745  15.317  11.379  14.649 -0.1070 -0.1355 -0.2001
 3899W        W20746   9.875   4.874   0.762  0.0267  0.1362 -0.1018
 3900W        W20747   4.999  16.737   1.891  0.0786 -0.1972 -0.1986
 3901W        W20748  13.590  17.779  15.388 -0.2995 -0.0594 -0.1555
 3902W        W20749   5.368   8.168   5.968 -0.4391 -0.0113  0.1999
 3903W        W20750  12.251   9.318  14.428 -0.1746 -0.1788  0.1277
 3904W        W20751   6.777   3.119   0.310 -0.1847 -0.3027  0.1650
 3905W        W20752   5.992   8.381  13.531 -0.1184 -0.1314 -0.1567
 3906W        W20753  10.421  13.672   1.461 -0.3192 -0.0962 -0.0986
 3907W        W20754   2.134  13.595  15.705  0.1607 -0.0291 -0.2594
 3908W        W20755   8.028   7.295   4.146  0.1119 -0.1540 -0.1990
 3909W        W20756   3.475  14.294  10.726  0.0222  0.2251  0.2270
 3910W        W20757   0.243  16.838   4.098  0.0048 -0.1290 -0.1564
 3911W        W20758  11.797  17.654   1.129 -0.0837 -0.1256 -0.0713
 3912W        W20759  11.839  17.840   0.299  0.2298  0.1025  0.2411
 3913W        W20760   0.303   1.093   4.823 -0.1684  0.0447  0.1900
 3914W        W20761   3.403   9.174  11.157 -0.1442 -0.2971  0.1620
 3915W        W20762  17.381  18.509  11.257 -0.0819 -0.0248  0.2279
 3916W        W20763   8.713  17.923  15.759 -0.1663 -0.2298 -0.2087
 3917W        W20764   9.579  15.242   5.905 -0.1754  0.0993 -0.4597
 3918W        W20765  13.587   4.467  13.181 -0.1000  0.1398  0.1215
 3919W        W20766  12.977  10.910   2.140 -0.2399  0.0892  0.0410
 3920W        W20767  10.377   2.673  14.326 -0.0643  0.2181 -0.1221
 3921W        W20768  17.220  13.375  12.747  0.1014  0.0185  0.2584
 3922W        W20769  11.687   5.370   2.809  0.0894 -0.2339  0.4232
 3923W        W20770  14.158   2.969   3.257 -0.1865 -0.2011  0.0083
 3924W        W20771   4.941   2.155  13.578  0.2114 -0.0074 -0.0019
 3925W        W20772  14.395  14.445  12.905 -0.0381  0.1438 -0.0855
 3926W        W20773   2.190   1.748   1.311 -0.0940 -0.0917 -0.0276
 3927W        W20774  12.041   7.355   6.286 -0.0900  0.0857 -0.0769
 3928W        W20775  10.913  11.471  12.664  0.0517  0.1453  0.2360
 3929W        W20776  18.065   9.841   3.836 -0.1717  0.1606  0.1936
 3930W        W20777  12.983  15.690   4.470  0.3773 -0.3582 -0.1651
 3931W        W20778  16.931   3.628   3.425 -0.3775  0.2099  0.0954
 3932W        W20779  14.204  13.137   2.134 -0.3619 -0.5477  0.0792
 3933W        W20780  15.691  12.514  13.730  0.1228  0.1419 -0.1223
 3934W        W20781   7.210   5.155   5.033 -0.0383 -0.3764 -0.1875
 3935W        W20782  10.158  17.205   4.052 -0.1276 -0.0999  0.0521
 3936W        W20783   8.053   4.483   2.094  0.1587  0.0165  0.1638
 3937W        W20784  14.021  13.777  12.381 -0.1154  0.0043 -0.1043
 3938W        W20785  17.630   7.450  14.288 -0.1535  0.1414  0.1473
 3939W        W20786   9.307   9.305   1.820  0.2005  0.2840 -0.1236
 3940W        W20787   1.475   5.343   5.227 -0.0680  0.2120  0.3545
 3941W        W20788   5.581   1.157  14.180  0.1640 -0.1285  0.1131
 3942W        W20789   7.097   0.303   1.206 -0.0705  0.0235 -0.1579
 3943W        W20790   0.393   9.933   2.162 -0.3502 -0.0437 -0.1221
 3944W        W20791  16.988   1.609   2.040 -0.2057 -0.0104  0.1786
 3945W        W20792  10.820   4.729   2.167 -0.0762 -0.2405  0.3356
 3946W        W20793   7.034   0.894   1.210 -0.0680 -0.0232 -0.0025
 3947W        W20794  11.811  10.313   2.433  0.2169 -0.0183 -0.0834
 3948W        W20795  10.490  15.613  13.646  0.0187  0.3294 -0.3358
 3949W        W20796   1.478   9.019   3.091  0.0303 -0.6684  0.0512
 3950W        W20797  14.614  17.509   5.525  0.4852  0.3591 -0.1379
 3951W        W20798  17.727  17.210  15.092 -0.1708  0.0214 -0.1898
 3952W        W20799  16.995  11.684   3.926  0.0772  0.1463 -0.0860
 3953W        W20800   0.797  13.659  15.129 -0.2093  0.1918 -0.1388
 3954W        W20801  12.794   8.327   4.413 -0.1498 -0.2954 -0.0116
 3955W        W20802   1.497  13.112   0.766  0.0254 -0.4005 -0.2777
 3956W        W20803   2.705   1.588  11.013  0.0090  0.0071  0.0910
 3957W        W20804  13.370  13.745  11.001  0.0295 -0.0094  0.0904
 3958W        W20805  12.076   2.076   2.468 -0.0097 -0.3935  0.0764
 3959W        W20806   2.863   7.480   4.436  0.3650 -0.0362  0.2390
 3960W        W20807   1.994  10.861  15.216  0.1282  0.0331 -0.0402
 3961W        W20808  10.591  17.907  11.510 -0.2318 -0.1666 -0.1090
 3962W        W20809  16.425   6.022  14.864  0.0478  0.2304 -0.5564
 3963W        W20810   8.041  11.446  11.896 -0.0823 -0.4711  0.4060
 3964W        W20811  10.375   9.545  13.697 -0.0330 -0.1640 -0.5011
 3965W        W20812  17.470  14.933  13.989  0.0948  0.0325 -0.0489
 3966W        W20813   4.905  13.084  15.034  0.1626 -0.2962  0.1392
 3967W        W20814  12.990  15.372   0.022  0.0044 -0.2305  0.1246
 3968W        W20815   9.437   7.703   3.831  0.3883 -0.1613  0.0191
 3969W        W20816  14.016   2.838   4.447 -0.0031 -0.0828  0.0565
 3970W        W20817   4.930  13.493  14.773  0.1759  0.0669  0.1423
 3971W        W20818  16.126   2.381   2.476  0.0907 -0.2814  0.1210
 3972W        W20819   5.848  11.074   1.010  0.2081  0.1202  0.1406
 3973W        W20820   9.279  12.828   4.046  0.0755  0.0180 -0.3120
 3974W        W20821   4.329   1.942   3.211  0.0549 -0.2873 -0.1399
 3975W        W20822  12.167  12.775  11.174 -0.0098 -0.0468  0.0883
 3976W        W20823  17.647   0.431  13.301 -0.0977  0.1348 -0.1470
 3977W        W20824   1.175   5.500   4.781 -0.1334 -0.0920 -0.2891
 3978W        W20825  13.855  14.017  10.995  0.0822 -0.1098 -0.0555
 3979W        W20826  16.777  14.292  15.076  0.1657 -0.3589  0.0955
 3980W        W20827   8.734   8.084   4.958 -0.2018  0.2756  0.1215
 3981W        W20828   1.024  12.044  13.864 -0.0179  0.1561 -0.1742
 3982W        W20829  17.561   5.333  12.071  0.0156  0.1192 -0.1952
 3983W        W20830   2.783  17.500   2.318 -0.2587 -0.3821 -0.1623
 3984W        W20831  16.894  18.832   2.457  0.1485  0.1232  0.1218
 3985W        W20832  13.620  11.002   4.848  0.0029  0.0509  0.2298
 3986W        W20833  15.841   3.309  11.426  0.0089 -0.0309 -0.1237
 3987W        W20834  16.509  18.626  14.105  0.0344  0.0101  0.1578
 3988W        W20835   1.253   8.509   0.365 -0.1141  0.0223  0.1246
 3989W        W20836  12.605  18.489   5.073  0.0249  0.1212 -0.0874
 3990W        W20837  16.642  13.384   0.484 -0.1575 -0.1514  0.0455
 3991W        W20838   8.679  10.240   4.215  0.0509 -0.2054 -0.1364
 3992W        W20839   9.273   4.684   2.133 -0.0810 -0.2668  0.0081
 3993W        W20840   7.778   0.059  15.725 -0.2136 -0.6222 -0.3171
 3994W        W20841  10.796   6.140   0.617 -0.2492 -0.0972 -0.2308
 3995W        W20842  17.884   5.041  15.494  0.2925  0.0241 -0.1114
 3996W        W20843   9.888   2.685   1.357 -0.1796  0.0151 -0.0788
 3997W        W20844   2.937   4.391  13.613  0.1632  0.0307 -0.1033
 3998W        W20845   6.772  14.514   3.118 -0.1254  0.1470  0.1111
 3999W        W20846  12.889   6.664   3.864  0.0313 -0.0999 -0.4036
 4000W        W20847  11.400  15.576  11.442  0.0143  0.2738 -0.0155
 4001W        W20848  16.062   6.340   1.975  0.1950  0.6277  0.0955
 4002W        W20849  13.315   3.755  15.604 -0.1719  0.1077  0.3538
 4003W        W20850  18.209  16.606  15.509  0.1678 -0.0053  0.0239
 4004W        W20851  11.504  11.607   3.095 -0.0612 -0.3379 -0.0111
 4005W        W20852   4.645   9.563   1.464  0.2438  0.0638  0.0163
 4006W        W20853  18.078  10.846   3.556  0.1437  0.0653 -0.2822
 4007W        W20854  12.483  18.447   0.224 -0.0798  0.1015 -0.0255
 4008W        W20855  14.044   5.804  11.732  0.0563  0.0858 -0.0477
 4009W        W20856   5.973   6.355  14.085  0.0498 -0.0642 -0.2460
 4010W        W20857   8.686  18.236  13.364  0.0392  0.2006  0.1387
 4011W        W20858  13.421  17.972   4.550 -0.3423 -0.2609 -0.2038
 4012W        W20859   8.154  13.550  12.098 -0.0285  0.1246  0.0174
 4013W        W20860  18.405  15.659   0.666  0.1668  0.0255  0.0691
 4014W        W20861   4.421  17.885  14.880 -0.2529  0.0248  0.0902
 4015W        W20862   6.086   6.557  15.090  0.0248 -0.1046 -0.2157
 4016W        W20863  15.667   1.033   1.826 -0.0237 -0.1911 -0.1002
 4017W        W20864   3.804   3.483  14.728  0.1867 -0.2734 -0.2311
 4018W        W20865   5.210   0.436  10.564  0.0588 -0.0115 -0.1361
 4019W        W20866   0.028  14.769   3.877  0.1354 -0.1057  0.1454
 4020W        W20867   7.669  12.690   5.520  0.1099  0.0179  0.1982
 4021W        W20868  11.125  17.220  10.355  0.0557 -0.2704  0.0077
 4022W        W20869   4.882   0.562   1.404 -0.1590 -0.4380 -0.1913
 4023W        W20870  13.671   2.891  15.690 -0.0209 -0.1082 -0.2651
 4024W        W20871  18.239   1.150  14.114  0.0317 -0.1050  0.6111
 4025W        W20872  14.806   9.218   3.151  0.0301 -0.1687  0.0132
 4026W        W20873   8.471   5.621   0.379  0.0596 -0.0535 -0.0045
 4027W        W20874   5.918   6.148   4.506 -0.0905  0.0105  0.2822
 4028W        W20875  15.666  16.691  14.127  0.1814  0.0689 -0.0526
 4029W        W20876   9.878   3.044   4.435  0.1065  0.1835  0.3133
 4030W        W20877   4.519   0.159  15.270 -0.1315  0.1302  0.3566
 4031W        W20878  11.610   0.450  11.969  0.2122  0.1301  0.0539
 4032W        W20879   6.101   6.065  15.257 -0.1485  0.1038  0.0961
 4033W        W20880   7.115   6.826   2.372  0.1100 -0.0111  0.1562
 4034W        W20881   5.424  14.839  10.609  0.1225  0.2811  0.0451
 4035W        W20882   0.539   9.292   1.508  0.2379 -0.3810  0.1413
 4036W        W20883   9.225   2.703   5.561 -0.1576  0.0624 -0.0225
 4037W        W20884   6.083   5.499   4.969  0.4321 -0.0738  0.0258
 4038W        W20885   7.957   9.846  14.913 -0.0100  0.0300 -0.3738
 4039W        W20886   7.891  13.112   3.969 -0.1324 -0.0590  0.1237
 4040W        W20887  11.312   6.361  14.709 -0.3548 -0.4187 -0.0773
 4041W        W20888  13.948  14.126   2.650  0.1474  0.3599  0.3102
 4042W        W20889   6.398   7.706   4.332 -0.0034 -0.1952 -0.1539
 4043W        W20890  16.905  11.600   0.403  0.1837 -0.3402 -0.2545
 4044W        W20891   1.092   1.705  10.610  0.3017 -0.0340  0.0579
 4045W        W20892  16.231  13.068   1.033  0.3014 -0.1690  0.1339
 4046W        W20893   4.693   6.887   2.268  0.1929 -0.0993 -0.1396
 4047W        W20894  14.200  13.247   5.067 -0.1652  0.2928 -0.0837
 4048W        W20895  10.615  18.364  12.575  0.1228  0.0670 -0.2277
 4049W        W20896   9.345   7.333  13.510 -0.3154  0.1061 -0.3962
 4050W        W20897  11.996  17.107  11.616  0.1480 -0.2499 -0.0634
 4051W        W20898  14.155  10.534   2.256  0.4230 -0.2227  0.3025
 4052W        W20899  14.821   4.842   4.200 -0.1443 -0.0925 -0.0681
 4053W        W20900   7.642   4.121  13.872  0.3578 -0.1324 -0.1439
 4054W        W20901   6.528   3.711  15.365 -0.2402 -0.0442  0.1829
 4055W        W20902  17.849  10.440  15.613 -0.2277  0.2236  0.1778
 4056W        W20903   8.658   6.308  12.377 -0.0156  0.3490 -0.2005
 4057W        W20904  11.605  17.215  12.708  0.0407 -0.2881  0.0235
 4058W        W20905  14.498   2.450  11.054  0.1765 -0.3219  0.0225
 4059W        W20906   9.698   1.003   0.675  0.0532 -0.0662  0.0237
 4060W        W20907   3.823  16.753  13.117 -0.4157 -0.0691 -0.1121
 4061W        W20908  14.001   8.490  11.279 -0.3283  0.0544  0.0472
 4062W        W20909   1.863   5.682   6.101  0.2624 -0.2742  0.0308
 4063W        W20910   0.988  13.746  11.486  0.0816  0.1569  0.1131
 4064W        W20911   9.455   4.072   2.950 -0.1673  0.0112 -0.1204
 4065W        W20912  13.197  16.728  12.921  0.1213  0.2491 -0.3282
 4066W        W20913  14.357   9.749  15.180 -0.0972 -0.0246  0.2621
 4067W        W20914   9.139   1.097  13.634  0.0506  0.0672 -0.1326
 4068W        W20915   4.639  12.595   2.771  0.4452 -0.0607  0.0633
 4069W        W20916  15.609  12.682   4.980  0.0325  0.5751 -0.0929
 4070W        W20917  17.341   5.783  13.745 -0.0779 -0.0827  0.1464
 4071W        W20918   6.803  13.126   2.328  0.2186 -0.0545 -0.2258
 4072W        W20919  18.048   0.633  12.863  0.0062 -0.2794  0.1025
 4073W        W20920   6.424  12.416   2.599  0.2232  0.2354 -0.1042
 4074W        W20921  12.818   8.188   5.937 -0.2278 -0.2790 -0.2054
 4075W        W20922   7.032   7.918   1.733 -0.2718 -0.1406 -0.0030
 4076W        W20923  15.399   9.815  14.674  0.1762  0.1473  0.2048
 4077W        W20924   4.458  11.782   0.670  0.0767  0.4008  0.0670
 4078W        W20925   9.968   5.591  15.211  0.2513 -0.1248  0.0106
 4079W        W20926  14.932  15.412  14.949  0.0478 -0.0266  0.0494
 4080W        W20927  17.729   8.475  13.174  0.1834  0.0855  0.0241
 4081W        W20928  17.458   8.343  11.688  0.1435  0.0128 -0.0449
 4082W        W20929  17.784  13.859  11.737  0.0141  0.2323 -0.0091
 4083W        W20930  16.418  10.565   1.725 -0.1440 -0.0951 -0.0188
 4084W        W20931   2.291  18.814  11.924 -0.3373  0.1079 -0.3934
 4085W        W20932  16.987   8.591   5.481 -0.1920 -0.0569 -0.0102
 4086W        W20933  12.297   7.489   3.740  0.0144 -0.1233  0.1218
 4087W        W20934  16.922   5.220   0.034 -0.0808  0.1164 -0.0548
 4088W        W20935  18.681   7.173  13.098  0.2661 -0.1184 -0.5927
 4089W        W20936  16.923  14.910  11.457  0.2139 -0.1922 -0.0944
 4090W        W20937  15.968  15.851   5.456 -0.1550  0.0694  0.0705
 4091W        W20938  15.354  10.534  15.780  0.2021 -0.0710 -0.0923
 4092W        W20939   5.292  10.421   2.285  0.0097 -0.2378 -0.4989
 4093W        W20940  15.912  18.760  11.194  0.2464  0.1862  0.0270
 4094W        W20941   4.549   0.234   3.247  0.1298  0.0032  0.0981
 4095W        W20942   5.610   9.780  13.753 -0.1749  0.0403 -0.3598
 4096W        W20943   9.020  11.607  14.433 -0.0106  0.1475  0.3465
 4097W        W20944  11.882  18.290   2.510  0.0282  0.1420 -0.1470
 4098W        W20945   4.148  10.105  15.429  0.1728  0.0413 -0.1748
 4099W        W20946  18.231   4.173   2.638 -0.0178  0.2196  0.1076
 4100W        W20947  15.943   8.146   4.522 -0.0498  0.0376  0.0160
 4101W        W20948   2.176   6.517  11.390  0.0144  0.3937 -0.0291
 4102W        W20949   8.690   6.130  14.337 -0.2037 -0.2415 -0.0167
 4103W        W20950  15.729  10.095  13.326 -0.0264 -0.2446  0.0417
 4104W        W20951  11.322  13.175  14.524  0.3059 -0.0585  0.1496
 4105W        W20952   6.863   8.059   0.726  0.0301  0.1740 -0.0538
 4106W        W20953  17.513  14.715  12.160  0.2704 -0.0502 -0.0637
 4107W        W20954  10.337  10.237  14.373 -0.0143  0.4295 -0.0975
 4108W        W20955   9.989   7.619  12.068 -0.0180  0.0726 -0.2364
 4109W        W20956  16.464  14.565  14.350 -0.0970 -0.0986 -0.3409
 4110W        W20957   3.676   8.753   1.596 -0.0194  0.1314 -0.0116
 4111W        W20958   3.587  14.863  12.278 -0.1421 -0.0367 -0.0871
 4112W        W20959   1.715   6.603  12.822 -0.2631 -0.1614  0.1623
 4113W        W20960   0.521  10.919  14.822 -0.1879  0.2598  0.2647
 4114W        W20961   8.916   1.832   3.584  0.0294 -0.2753 -0.0504
 4115W        W20962   3.361   5.613   4.242  0.0809  0.4118  0.0937
 4116W        W20963   2.119   7.548  12.164 -0.1100 -0.1817  0.1905
 4117W        W20964  16.670  13.220  13.339 -0.0835 -0.0126  0.0205
 4118W        W20965   5.210  10.474  11.726  0.1912  0.0229  0.2230
 4119W        W20966   5.578  10.461   4.267 -0.0012  0.4563 -0.0513
 4120W        W20967   1.563   1.246  15.516  0.3084  0.0659  0.0115
 4121W        W20968  17.165  15.920  11.056 -0.4224  0.0178  0.2064
 4122W        W20969   3.823  17.952  14.142 -0.0543  0.0047 -0.0038
 4123W        W20970   5.644  18.747  11.663 -0.1368 -0.1040 -0.0766
 4124W        W20971  13.442   1.203  13.174 -0.1143 -0.1195  0.2950
 4125W        W20972   1.160   0.980   0.131  0.1021  0.1075 -0.0173
 4126W        W20973   5.845   2.777   3.481  0.0488 -0.1839  0.0639
 4127W        W20974   6.004   6.832  14.677  0.1583 -0.2213 -0.0267
 4128W        W20975  18.669   7.037   3.860 -0.2637  0.1282  0.1365
 4129W        W20976   9.298  11.464   3.577  0.1073 -0.2160  0.0031
 4130W        W20977  18.859   5.802  13.713 -0.0119 -0.2532  0.0488
 4131W        W20978   5.817   6.120  11.831  0.1582  0.1697 -0.1877
 4132W        W20979  11.290  10.886  11.506  0.0561 -0.0090 -0.1662
 4133W        W20980  17.853   8.066   6.439  0.1637 -0.0589  0.0083
 4134W        W20981  16.027  17.911  13.399 -0.1135  0.2195 -0.0548
 4135W        W20982  12.815  16.339  11.198  0.3350 -0.0287 -0.0255
 4136W        W20983  16.314   2.714   1.120 -0.1488  0.0077 -0.1411
 4137W        W20984   1.524   8.731   5.707  0.1741  0.4904  0.0561
 4138W        W20985   7.522   0.418   5.588 -0.3817  0.1575 -0.0573
 4139W        W20986   7.723   9.546  13.338 -0.1302 -0.0128 -0.0812
 4140W        W20987  16.412  17.862  14.770 -0.2103  0.2974  0.3049
 4141W        W20988  15.058   2.618   4.974 -0.1010 -0.0367  0.0763
 4142W        W20989  10.337  10.050  13.759  0.0139 -0.1765  0.2717
 4143W        W20990  17.093  13.284   0.211  0.2804  0.3223 -0.0565
 4144W        W20991   9.394  10.548   4.624  0.0937 -0.1232 -0.1830
 4145W        W20992   0.015   5.369  13.508 -0.1174  0.1401  0.0349
 4146W        W20993  13.915  14.997  13.363  0.0645 -0.3633 -0.1768
 4147W        W20994   2.923   9.014   5.233 -0.1019  0.0000  0.2748
 4148W        W20995   1.774   6.160   5.134 -0.0507 -0.2722  0.1547
 4149W        W20996  13.389   2.992  11.951 -0.5241 -0.2162 -0.2424
 4150W        W20997  13.215  18.843  14.717  0.2312 -0.2511  0.0158
 4151W        W20998  18.644  12.967   0.636 -0.0390  0.0614  0.0877
 4152W        W20999   2.214   2.386  13.471 -0.0387 -0.1157  0.1002
 4153W        W21000   7.594   6.552   0.678 -0.0047  0.0980 -0.0132
 4154W        W21001   6.948  10.302   2.234  0.2363  0.1558  0.0946
 4155W        W21002  11.575   5.992   3.260 -0.1459 -0.3425 -0.0140
 4156W        W21003  16.795  17.769  15.493 -0.0233 -0.1164 -0.1884
 4157W        W21004  18.583  13.273  12.189 -0.1520  0.1644 -0.0174
 4158W        W21005  14.310   9.522   3.065 -0.0770  0.1196 -0.0069
 4159W        W21006  15.352   1.332  13.186 -0.0491 -0.2285  0.0511
 4160W        W21007  18.865  15.307   0.364 -0.0913 -0.0660 -0.0327
 4161W        W21008  15.016   9.223  13.413 -0.4680 -0.1438  0.0766
 4162W        W21009  14.853   5.863  14.308 -0.2466  0.1127  0.0150
 4163W        W21010  11.928  16.436   0.272  0.1280  0.1764  0.1343
 4164W        W21011  11.800  17.840   4.597  0.1348  0.1866  0.1355
 4165W        W21012   5.316  17.706  12.785 -0.1358  0.0441 -0.1555
 4166W        W21013  12.048  11.815   3.880  0.0920  0.3245 -0.1558
 4167W        W21014   6.095   5.314  13.581 -0.0651 -0.0199  0.0680
 4168W        W21015   2.056   5.401   1.749  0.1275 -0.3360 -0.0734
 4169W        W21016   8.803  10.037  15.289 -0.2558 -0.0501  0.1880
 4170W        W21017   3.712   6.675   2.021 -0.1025 -0.2640  0.3136
 4171W        W21018   7.107   4.653   5.175 -0.1827  0.0020  0.1139
 4172W        W21019  16.007  14.760  13.311 -0.1062 -0.3720  0.3983
 4173W        W21020  10.130   5.316   2.121 -0.3622 -0.0727 -0.0264
 4174W        W21021   1.170   6.611   0.787 -0.0623  0.2025  0.1680
 4175W        W21022  17.403   9.509   2.206 -0.0458 -0.0871  0.2977
 4176W        W21023  18.778   4.335  12.697 -0.1412 -0.0551 -0.0234
 4177W        W21024   8.323  16.365  13.079 -0.0532 -0.0007  0.0604
 4178W        W21025  12.593   8.177   3.977 -0.1655  0.0148  0.0949
 4179W        W21026   6.405  17.347   2.210 -0.2300  0.0306  0.0981
 4180W        W21027  10.804   9.473   4.310  0.1188 -0.4198 -0.4741
 4181W        W21028   7.320   8.558  10.735  0.4551  0.2523 -0.0822
 4182W        W21029   5.901  12.784  13.117  0.1832  0.1427 -0.0781
 4183W        W21030   2.206  11.767   3.227  0.2338 -0.0389  0.1589
 4184W        W21031  15.767  10.790   1.051 -0.5055 -0.0392 -0.0433
 4185W        W21032   5.720   6.596  12.126  0.3086 -0.1948  0.3504
 4186W        W21033  16.527   8.180   0.486  0.0562  0.0793  0.1586
 4187W        W21034   0.494  15.136   2.561 -0.2943  0.1676 -0.1265
 4188W        W21035  17.532  17.707   3.929  0.0249  0.2674  0.0584
 4189W        W21036   7.568  18.027   2.394  0.4040  0.0161  0.0615
 4190W        W21037  10.041   9.646  11.326 -0.0960  0.1062 -0.0246
 4191W        W21038   2.885   0.280   3.639  0.2517 -0.1036 -0.3538
 4192W        W21039  18.485   6.448   4.033 -0.1438  0.2441  0.1329
 4193W        W21040   3.418   4.915   3.032  0.0128  0.3077 -0.3077
 4194W        W21041  18.608   6.235  11.134 -0.0782  0.2260  0.3324
 4195W        W21042   9.739   8.036  11.764  0.2573  0.0688  0.1179
 4196W        W21043   6.895  18.816  14.413 -0.0966 -0.0144  0.1543
 4197W        W21044  14.988   2.692  12.186 -0.2024  0.0062  0.2761
 4198W        W21045  11.566  11.955  12.349 -0.2162 -0.0095  0.0762
 4199W        W21046   5.704  15.397  14.309 -0.1923  0.0429 -0.1046
 4200W        W21047  11.574   7.399  11.077 -0.1320  0.0644 -0.4348
 4201W        W21048   3.360  14.074  14.170  0.2348  0.0256 -0.3286
 4202W        W21049   3.123  10.674  14.560  0.0336  0.1294 -0.0193
 4203W        W21050   0.207  13.366   1.998  0.0418  0.0688  0.1041
 4204W        W21051  18.475   3.485   4.302  0.0296 -0.1169 -0.3979
 4205W        W21052  15.060  15.777   5.510  0.1056 -0.0597  0.2036
 4206W        W21053   3.809   1.635   4.880  0.0552  0.3562  0.1136
 4207W        W21054   6.163   6.403   0.986  0.0280  0.2283 -0.1919
 4208W        W21055   2.600   2.007  15.166 -0.0641 -0.1704  0.1921
 4209W        W21056  12.401   0.644  11.042  0.2085 -0.2585 -0.0359
 4210W        W21057   4.901   2.641   1.540 -0.1782 -0.0569  0.0803
 4211W        W21058  16.425   6.460  11.877  0.0834 -0.1949  0.3142
 4212W        W21059  12.993  15.683   1.571 -0.1981  0.1761  0.0600
 4213W        W21060   1.679  10.148   4.378 -0.0554 -0.0022  0.2365
 4214W        W21061  17.033  11.203  13.741 -0.1079  0.1021  0.2590
 4215W        W21062  11.204   1.218   1.254 -0.1016  0.2329  0.0137
 4216W        W21063   1.349  17.076  15.522  0.0378 -0.3849  0.1561
 4217W        W21064  15.715   4.542   3.594 -0.3040  0.4776 -0.0984
 4218W        W21065  13.667   1.276  11.066  0.2107  0.1225 -0.4672
 4219W        W21066   5.856  18.832  14.504  0.2712 -0.3421  0.1834
 4220W        W21067   8.038  15.428  15.723  0.1883  0.2214 -0.2461
 4221W        W21068  14.152   2.338  14.177  0.1535  0.1542 -0.1988
 4222W        W21069  16.427  18.819   4.181 -0.0581  0.0657  0.2701
 4223W        W21070   5.099   5.561   4.655 -0.2753  0.0718 -0.1800
 4224W        W21071  17.422   0.715   5.876  0.3373  0.1433  0.0550
 4225W        W21072   2.064  15.304  13.950 -0.0602  0.1825  0.1546
 4226W        W21073  18.801   1.518   0.506  0.2540 -0.3558  0.0608
 4227W        W21074   6.579  15.765   0.076  0.0840  0.2531  0.1549
 4228W        W21075  16.706  17.386  13.689 -0.0138  0.3864 -0.1402
 4229W        W21076   8.505   4.784  15.030  0.1511  0.0599  0.0262
 4230W        W21077   6.976   5.062   4.176  0.1557 -0.2523  0.1710
 4231W        W21078   0.733   6.350   1.108  0.1240 -0.0186  0.1609
 4232W        W21079  10.546  18.278   2.300 -0.0016  0.0231 -0.1439
 4233W        W21080   2.967   6.850   5.341  0.0165 -0.0135 -0.0555
 4234W        W21081  10.511  16.770  11.805  0.1561 -0.2933  0.0395
 4235W        W21082   5.488   7.308  13.151  0.2558  0.2823  0.0613
 4236W        W21083   9.854   9.671  13.809 -0.0086  0.1767 -0.3972
 4237W        W21084   0.058   5.357  11.511  0.3777  0.2226  0.1027
 4238W        W21085  12.211   8.428   4.782  0.1697 -0.3168 -0.1491
 4239W        W21086   1.142  17.315   2.553  0.1547  0.0457  0.1003
 4240W        W21087  13.172   5.683   0.695 -0.0482 -0.0413  0.0156
 4241W        W21088   9.203   6.829   0.645 -0.0831  0.1083  0.4108
 4242W        W21089  11.971   9.588  11.398 -0.3827  0.1926  0.3737
 4243W        W21090  10.360   3.029   0.504 -0.1456  0.1818 -0.1553
 4244W        W21091  15.463  18.189   4.756 -0.3824  0.2525 -0.0574
 4245W        W21092  10.514  14.747  11.306 -0.1006 -0.1553 -0.1181
 4246W        W21093   7.471   2.745  15.640  0.2020 -0.2090 -0.1929
 4247W        W21094   6.769  10.615   3.837 -0.1529 -0.0117 -0.2308
 4248W        W21095  12.862   6.127   4.069 -0.1277 -0.1346  0.1098
 4249W        W21096   3.332   2.445   0.029  0.3104  0.0217 -0.0065
 4250W        W21097  17.923   2.303   1.586 -0.1193 -0.2667  0.0827
 4251W        W21098   2.170  14.474  15.184  0.1044 -0.1058 -0.3748
 4252W        W21099  16.869   5.100   1.561  0.1352  0.1643 -0.0089
 4253W        W21100  11.195  10.540  15.292  0.4100  0.0751 -0.6667
 4254W        W21101   3.188   0.153  13.174 -0.0469  0.1822  0.0101
 4255W        W21102   1.207   6.648   4.426 -0.0059  0.0347 -0.0668
 4256W        W21103   6.149   4.630  10.664  0.1100  0.0932  0.2183
 4257W        W21104   0.603  16.346   2.868 -0.1567 -0.3305 -0.2481
 4258W        W21105   0.885   8.223   0.726 -0.2635  0.1052  0.0172
 4259W        W21106   4.647   4.573   4.199  0.2151  0.0656 -0.1118
 4260W        W21107   6.426  10.115   1.529  0.0229 -0.0963 -0.3129
 4261W        W21108  10.648   4.261  11.814  0.0094  0.0503 -0.0577
 4262W        W21109  12.878  10.360  12.968 -0.2177 -0.1517  0.1067
 4263W        W21110   3.829   4.606   5.271 -0.1042 -0.0247 -0.4334
 4264W        W21111   2.672   8.283   4.467  0.1826  0.1186  0.0125
 4265W        W21112   6.559   8.755  15.031 -0.2234  0.1491 -0.1208
 4266W        W21113   8.300   0.313   4.238 -0.0561  0.0482  0.1653
 4267W        W21114  11.239   2.556   0.135  0.1613 -0.2295 -0.2564
 4268W        W21115  15.438  13.902  12.956  0.0227 -0.1081 -0.0458
 4269W        W21116  12.026  18.805  13.218  0.0616  0.2734 -0.0502
 4270W        W21117  11.352   1.310  12.027 -0.0314  0.0066  0.1296
 4271W        W21118  11.751  17.310   1.579 -0.0088 -0.2145 -0.0148
 4272W        W21119  16.255   8.344   4.870 -0.0341 -0.0626 -0.1297
 4273W        W21120  18.353   1.252  15.233 -0.0209  0.3360 -0.1548
 4274W        W21121  12.988   2.721   1.269  0.0481  0.1079 -0.2372
 4275W        W21122  11.252  14.797   0.137 -0.1514  0.1832 -0.1333
 4276W        W21123  14.259  10.458  14.341 -0.0386 -0.0628 -0.1002
 4277W        W21124  16.780  17.225  14.974 -0.0248  0.0562 -0.1481
 4278W        W21125   9.408   9.863  14.647  0.0308 -0.3465  0.0275
 4279W        W21126   3.442  10.168   4.741 -0.2904 -0.1024 -0.1077
 4280W        W21127   6.899   6.713  14.510 -0.1363  0.3023 -0.1725
 4281W        W21128   9.070  16.502  11.536 -0.2673  0.3652  0.0653
 4282W        W21129  18.046  11.429   2.795  0.1511 -0.0491  0.0680
 4283W        W21130   1.850   8.117   1.671 -0.2839  0.0139 -0.1190
 4284W        W21131   5.057  15.897   0.044  0.0656 -0.0407  0.0258
 4285W        W21132   6.765  13.884  11.750  0.3877  0.3068 -0.1004
 4286W        W21133  10.081   5.869   4.938 -0.1948 -0.0565  0.1759
 4287W        W21134  12.787  18.195  12.127  0.0550 -0.2800  0.1997
 4288W        W21135  11.548  17.380  15.250 -0.2707 -0.1093 -0.4159
 4289W        W21136  10.146   2.891  15.662 -0.0683 -0.3293 -0.0461
 4290W        W21137  16.263  17.413  12.857 -0.0304 -0.1279 -0.1228
 4291W        W21138  10.644   5.720  13.781  0.0226 -0.1005 -0.2163
 4292W        W21139   9.197  11.818  14.984  0.0570  0.1855  0.2886
 4293W        W21140  17.697   1.610   5.055  0.3125 -0.2197  0.0315
 4294W        W21141   7.257   5.693   4.305  0.0800  0.5114 -0.0456
 4295W        W21142   7.409   4.152   5.241  0.1798  0.1468 -0.1810
 4296W        W21143  18.317   1.019   3.147  0.1627  0.0605 -0.0260
 4297W        W21144   9.970   9.307   4.451  0.0529 -0.0050  0.1763
 4298W        W21145  13.392   7.555  14.087 -0.1351 -0.0112 -0.1635
 4299W        W21146   4.280   4.568  13.071 -0.2044  0.0137  0.0198
 4300W        W21147  13.490   2.425   2.092 -0.1126  0.0572 -0.2877
 4301W        W21148   3.903   2.993  13.141 -0.0520  0.0700  0.2978
 4302W        W21149   0.813   7.042   2.882 -0.2085 -0.1006 -0.0293
 4303W        W21150   8.919   9.039  15.266  0.3161 -0.0477 -0.0892
 4304W        W21151   8.568   7.804   2.174  0.0936 -0.0839 -0.0074
 4305W        W21152  11.922   8.589  13.188  0.0922  0.3911  0.3559
 4306W        W21153   7.589  12.485   3.540  0.2769 -0.2474 -0.0554
 4307W        W21154  14.646   3.126   3.303  0.2051  0.1882  0.0318
 4308W        W21155   2.315   5.181   5.646 -0.0147 -0.1115 -0.2165
 4309W        W21156  17.343   3.909  15.171 -0.1051  0.0454  0.1401
 4310W        W21157   6.865  12.104   2.480 -0.1509 -0.1835 -0.0809
 4311W        W21158   5.213   6.030  11.687 -0.0626  0.5192  0.2763
 4312W        W21159   7.837   6.423  14.072 -0.0499  0.0747 -0.1643
 4313W        W21160  15.564  16.217   1.864  0.1967 -0.3842  0.0590
 4314W        W21161  12.505   1.937   0.207  0.0430  0.0412 -0.0669
 4315W        W21162   8.373   3.699   0.218  0.1760  0.0278  0.1277
 4316W        W21163   3.902  17.233  13.255  0.0349  0.0453  0.1434
 4317W        W21164  10.394  10.176  15.417 -0.1850 -0.2225 -0.0370
 4318W        W21165  15.751   8.101  14.164  0.3166 -0.4111 -0.2019
 4319W        W21166  18.229   6.675   0.223 -0.2985 -0.2738  0.0734
 4320W        W21167   0.662   5.260  10.288  0.0908  0.1355  0.3445
 4321W        W21168  14.273  11.990   5.060  0.0071 -0.0417 -0.1978
 4322W        W21169   8.467   9.722   1.323 -0.1459 -0.0496  0.1329
 4323W        W21170  18.488   0.821  13.751 -0.2339 -0.6055  0.3801
 4324W        W21171   7.062   3.984  15.303 -0.1115 -0.2597 -0.1630
 4325W        W21172  13.476  17.666   2.351 -0.3969  0.2453 -0.1038
 4326W        W21173  13.321   7.967   5.850  0.0863 -0.1765  0.2313
 4327W        W21174   5.873   2.881   2.339 -0.0637 -0.2119  0.0430
 4328W        W21175  13.198   2.555  15.715  0.1493  0.2137 -0.1077
 4329W        W21176  17.973   2.464   5.020 -0.0216  0.0839 -0.2210
 4330W        W21177   3.906  12.304  11.423 -0.0999 -0.1550  0.0156
 4331W        W21178  12.160   6.835  13.298  0.1857  0.2666  0.0547
 4332W        W21179   2.974  18.609   3.722 -0.3177  0.0349  0.1151
 4333W        W21180  18.784   4.739   4.015 -0.2907  0.2947  0.1199
 4334W        W21181   4.795  11.066   4.239 -0.0140  0.0344  0.2612
 4335W        W21182  13.670  17.003  12.099 -0.2350 -0.0657 -0.2018
 4336W        W21183  13.541   6.730  15.129  0.0679 -0.2115  0.1610
 4337W        W21184   1.113  16.882   0.667 -0.0486  0.1314 -0.2729
 4338W        W21185   7.121  15.843   4.359  0.2098 -0.1464  0.1566
 4339W        W21186  10.729   9.541   0.292  0.0851  0.2008  0.1336
 4340W        W21187  15.547   9.134   2.763 -0.2555  0.0245  0.0265
 4341W        W21188   8.071   3.287  15.053  0.0905 -0.1728  0.0454
 4342W        W21189   6.028   5.623   4.463 -0.3197  0.0853  0.0970
 4343W        W21190  14.654  15.091   3.843 -0.0451  0.0699 -0.1604
 4344W        W21191   5.953   9.162  13.051  0.0019 -0.2329  0.3055
 4345W        W21192   5.832   5.400  14.671  0.1813  0.1683 -0.1489
 4346W        W21193   0.374   7.474  15.497 -0.0009  0.3566 -0.4051
 4347W        W21194   1.587  17.778  13.470 -0.3473  0.1001 -0.0716
 4348W        W21195  15.911   7.877  12.492  0.0429  0.1547 -0.1140
 4349W        W21196   8.662   8.635  10.608  0.0598  0.4674 -0.3704
 4350W        W21197  18.199   2.284   0.840  0.0926  0.3278  0.0922
 4351W        W21198   0.739  13.452  15.614  0.1494  0.0274 -0.1160
 4352W        W21199  10.810  12.148   5.751  0.1395 -0.2488  0.0821
 4353W        W21200   3.452   5.634   2.610  0.1345  0.0774  0.1523
 4354W        W21201   2.886  11.724  11.997 -0.0844 -0.0325  0.2025
 4355W        W21202  18.566   3.786   2.985  0.0734  0.2900  0.1420
 4356W        W21203  12.026  17.732  11.150 -0.1945 -0.0888 -0.1846
 4357W        W21204  14.831  14.217  12.478 -0.2614  0.0247  0.0310
 4358W        W21205  14.218   7.399  14.028 -0.0287 -0.0740  0.2324
 4359W        W21206   8.829  13.866   0.383  0.0204 -0.1036 -0.3325
 4360W        W21207   6.596  12.991   1.106  0.1283  0.1064 -0.3015
 4361W        W21208   4.946   0.583   0.403 -0.1808 -0.3746 -0.0947
 4362W        W21209  14.805   6.699  13.597 -0.0125 -0.0112 -0.0589
 4363W        W21210   9.416   4.998   1.124 -0.2658 -0.3148 -0.1834
 4364W        W21211  15.901   2.915   5.676  0.2970  0.3178 -0.2584
 4365W        W21212   7.824  18.537  13.489 -0.0192  0.0644 -0.2265
 4366W        W21213   1.511   2.648   2.265  0.1273 -0.0547 -0.0947
 4367W        W21214   0.650  10.626   2.006  0.1172 -0.1772  0.1172
 4368W        W21215   6.576   4.412   1.912  0.2469 -0.0777 -0.0426
 4369W        W21216   0.377  15.107  14.004 -0.1601 -0.3991  0.2950
 4370W        W21217  12.199   8.271   3.726 -0.3815  0.0612 -0.3243
 4371W        W21218   5.544   9.905   0.446 -0.1301 -0.0891  0.1026
 4372W        W21219   8.645  10.638   0.256  0.3576  0.0265 -0.0016
 4373W        W21220   4.147  18.498  12.709 -0.2059  0.1356  0.0083
 4374W        W21221   1.722  13.903   0.118 -0.4562  0.0640  0.1126
 4375W        W21222   9.475  16.255   1.579  0.2445  0.0375 -0.1412
 4376W        W21223  11.024   7.595  10.943 -0.1509  0.1462 -0.0951
 4377W        W21224   1.379   0.279   0.705  0.1072  0.2843  0.0275
 4378W        W21225  14.300  18.450  15.424  0.0033 -0.3493 -0.1401
 4379W        W21226   8.124  15.517   2.276  0.1822  0.2412 -0.1470
 4380W        W21227   6.560  16.934  13.059 -0.4431 -0.1405 -0.0299
 4381W        W21228  16.604  10.806   4.209 -0.0923 -0.0634 -0.0414
 4382W        W21229  15.705  11.089  13.684  0.2029 -0.1808 -0.0947
 4383W        W21230  10.978   2.017  10.891  0.1730  0.1158  0.1068
 4384W        W21231  12.806   5.446  11.971 -0.1458 -0.2334  0.0367
 4385W        W21232   3.283  18.717   2.761 -0.1433 -0.1578  0.0401
 4386W        W21233  15.961  10.678   0.560  0.1677  0.0249  0.0547
 4387W        W21234  10.415   4.166   1.326 -0.0570 -0.0006 -0.3965
 4388W        W21235   8.368  11.822   1.251  0.0107  0.1883  0.2840
 4389W        W21236   0.349  13.818   1.768 -0.0080 -0.2439  0.0852
 4390W        W21237   4.043  18.302  14.598 -0.3763  0.1437 -0.2305
 4391W        W21238  12.560  11.132  15.405 -0.0309 -0.2839  0.0602
 4392W        W21239  14.624   7.122   0.792 -0.0148  0.0604 -0.0725
 4393W        W21240  10.167  15.542   0.598 -0.1424  0.0712 -0.0293
 4394W        W21241  15.291   4.980   5.215  0.0459  0.1383 -0.1529
 4395W        W21242   7.827  17.372  13.814 -0.0559 -0.0959  0.3917
 4396W        W21243  18.586   1.566  11.772  0.1275  0.2385 -0.0833
 4397W        W21244  16.453  12.396   3.964 -0.2081 -0.0247 -0.1141
 4398W        W21245   9.306  13.615   1.690 -0.0999 -0.0575 -0.1309
 4399W        W21246   2.036  13.479   4.228  0.0307 -0.0628  0.1491
 4400W        W21247  10.450  14.742  15.505  0.2051  0.2016 -0.0157
 4401W        W21248  13.957  14.208   1.175 -0.0127 -0.0847 -0.2852
 4402W        W21249   8.290   6.496  15.410 -0.1525 -0.0287 -0.1543
 4403W        W21250  18.615   4.706  13.021  0.2076 -0.0696 -0.0186
 4404W        W21251   1.870   8.717  11.334  0.0148  0.1094 -0.0131
 4405W        W21252  18.044  12.867  14.058 -0.0502 -0.0686 -0.0802
 4406W        W21253   6.736   0.618  11.760 -0.1744 -0.1095 -0.2683
 4407W        W21254  16.593  10.289  11.685 -0.0003 -0.3271  0.0951
 4408W        W21255  12.470   1.326   1.427 -0.1543 -0.0031 -0.3584
 4409W        W21256  13.561   3.337   1.863  0.2089 -0.1310  0.1286
 4410W        W21257  16.101   1.646   2.901 -0.0242  0.0151  0.0894
 4411W        W21258  15.880  18.432   5.018 -0.2788 -0.3340  0.2816
 4412W        W21259  12.508   7.388   3.292  0.4095 -0.3312 -0.2081
 4413W        W21260   0.636  16.494  15.749  0.0169 -0.0365  0.2568
 4414W        W21261   0.321   3.381   2.305 -0.1036  0.0209  0.2354
 4415W        W21262  11.479   7.307  13.296  0.2287 -0.1931 -0.2577
 4416W        W21263   1.694  10.152  11.815  0.0276 -0.1993 -0.0688
 4417W        W21264   7.854   8.827  13.946  0.2348  0.1081 -0.1977
 4418W        W21265   2.055   5.670   0.168  0.0033 -0.2313 -0.1033
 4419W        W21266   3.277  17.071   5.782  0.3055 -0.1165 -0.0163
 4420W        W21267   1.101   1.715  13.443  0.0805  0.2208  0.2514
 4421W        W21268  10.246  17.546  13.219 -0.1721 -0.0803  0.0299
 4422W        W21269   8.757   2.924   5.260 -0.4151  0.1574  0.1861
 4423W        W21270  12.769   1.704  13.645  0.2780  0.0202 -0.0039
 4424W        W21271  18.433   6.651   5.379 -0.0079  0.2452  0.2855
 4425W        W21272   1.866  17.093   3.653 -0.0904  0.0641 -0.0817
 4426W        W21273  13.791   9.768  11.465 -0.1215  0.0863 -0.1586
 4427W        W21274   6.175  17.923  13.750  0.1484  0.1092  0.3723
 4428W        W21275   1.215  17.643  12.558  0.0971 -0.0397 -0.0718
 4429W        W21276  12.116   1.133   3.887  0.2846 -0.2089  0.1969
 4430W        W21277   1.504   7.387   1.079 -0.1296 -0.1851  0.1759
 4431W        W21278   1.766   7.674  13.543  0.3876  0.4673  0.0183
 4432W        W21279   5.434  17.106   5.689  0.1575  0.0989 -0.0371
 4433W        W21280  16.641   5.492   1.778 -0.1301  0.4569 -0.4697
 4434W        W21281   5.341   8.297   2.364 -0.0764 -0.0142 -0.2287
 4435W        W21282  12.713   0.773   3.930 -0.0100 -0.1631  0.0069
 4436W        W21283   0.475  16.715   4.632 -0.0787 -0.1279  0.0005
 4437W        W21284  13.094  14.543  11.458  0.0371  0.0793 -0.1241
 4438W        W21285   0.585   6.475  12.112  0.0424 -0.2023 -0.0659
 4439W        W21286   4.039   8.086  14.627  0.1565  0.1532 -0.3131
 4440W        W21287  12.568  18.191  14.448  0.0868  0.1203 -0.2975
 4441W        W21288   5.388  16.901  11.855 -0.2905  0.1376 -0.3418
 4442W        W21289   0.434  17.928   3.456  0.1167  0.0403 -0.0121
 4443W        W21290   5.590   3.998  15.315 -0.1748  0.0571 -0.1879
 4444W        W21291   7.959  12.434   0.794 -0.2816 -0.2620 -0.2158
 4445W        W21292  10.118  11.916  14.667  0.1027  0.3060 -0.2298
 4446W        W21293  18.034   0.118  14.463  0.1364  0.2686  0.2396
 4447W        W21294   7.070  10.191   0.645 -0.5082  0.1104  0.2386
 4448W        W21295   5.734   1.123   1.244  0.1460 -0.1337  0.1239
 4449W        W21296   3.706  12.400   0.698 -0.1509  0.0612 -0.2534
 4450W        W21297  14.947   0.766   1.236 -0.2125 -0.0589 -0.0020
 4451W        W21298   0.722  18.159   0.922  0.3764  0.3446 -0.0135
 4452W        W21299   8.998   2.215   4.113 -0.0103 -0.2828 -0.0119
 4453W        W21300  16.596  13.424   0.995 -0.0119 -0.2886  0.2420
 4454W        W21301  15.157   2.074   4.178 -0.1747  0.2412  0.0877
 4455W        W21302  12.505   6.610  13.626 -0.1211  0.2817 -0.2976
 4456W        W21303   9.268  10.292   5.737  0.1507 -0.2782  0.0654
 4457W        W21304   1.970   5.875   4.439  0.0460 -0.2772  0.2667
 4458W        W21305  14.661   0.568  14.741  0.3481  0.0285  0.1286
 4459W        W21306  17.743   9.936   2.335  0.0246 -0.2458  0.1024
 4460W        W21307  12.121   7.319   0.947  0.0233 -0.2463  0.1869
 4461W        W21308   7.350  11.319  11.570  0.0443 -0.0421 -0.0001
 4462W        W21309   0.603   2.146   4.475 -0.3542  0.1378 -0.3711
 4463W        W21310  15.958   3.537   3.512  0.3061  0.0220  0.1089
 4464W        W21311  11.063  12.561  10.936 -0.1659  0.1454 -0.2254
 4465W        W21312   6.147   8.222   0.147  0.4470 -0.0071 -0.0515
 4466W        W21313  12.098  10.323   1.276 -0.2531  0.1000 -0.2717
 4467W        W21314   1.831  12.393  12.734 -0.1394 -0.0728 -0.0221
 4468W        W21315   7.219   5.891  10.969  0.3171  0.1812  0.1505
 4469W        W21316   0.460   7.158  12.790  0.0810 -0.1404  0.2585
 4470W        W21317  10.117   9.199  15.454 -0.0461  0.0958 -0.1734
 4471W        W21318  17.569  12.643  15.600  0.1000  0.2840  0.4968
 4472W        W21319   8.400   4.723  11.729  0.0745 -0.0786 -0.5143
 4473W        W21320   0.436   4.864  12.265  0.3191  0.0165  0.0825
 4474W        W21321  14.635   1.975  12.105 -0.0157  0.2689 -0.0930
 4475W        W21322  15.890  13.804   5.070 -0.1613  0.1247 -0.1090
 4476W        W21323   4.778   6.677  12.160 -0.3540  0.0552 -0.1215
 4477W        W21324  10.434   6.653   1.501  0.2308 -0.1261 -0.1990
 4478W        W21325  17.843   9.671   3.283  0.0087  0.1192  0.0074
 4479W        W21326   2.445  12.421  13.813 -0.0188 -0.2292 -0.3147
 4480W        W21327  10.640  13.333  10.110  0.1019  0.1833 -0.0854
 4481W        W21328   5.329   0.108  11.213  0.0217 -0.2844  0.0563
 4482W        W21329  18.586  16.056   2.282  0.0041  0.0695 -0.3340
 4483W        W21330   9.949   8.744   0.871 -0.0813 -0.1980 -0.1759
 4484W        W21331   6.720   7.699  11.594 -0.1481  0.1466 -0.1087
 4485W        W21332   7.006   0.010  12.947  0.4536  0.0265 -0.0522
 4486W        W21333   4.230  15.450  11.010 -0.0001 -0.3429 -0.1066
 4487W        W21334   3.304   0.523  12.151  0.2102  0.0443 -0.0611
 4488W        W21335   3.403  15.497   2.199  0.0962  0.3987 -0.0739
 4489W        W21336  13.722   5.297   0.683 -0.0013 -0.0337  0.1299
 4490W        W21337  18.414   9.385   4.898 -0.1624  0.0357 -0.1326
 4491W        W21338   5.161   2.555  13.866  0.0799 -0.0861 -0.2216
 4492W        W21339   3.496  11.001   1.634 -0.0128 -0.1305  0.2443
 4493W        W21340   8.689   3.496   2.683 -0.1381 -0.2453  0.4045
 4494W        W21341   5.184   6.587  14.805  0.1161 -0.2741  0.0374
 4495W        W21342  15.918   4.375   3.999  0.0224 -0.0579 -0.2286
 4496W        W21343  10.131  11.920  12.018  0.3388 -0.2427 -0.1927
 4497W        W21344   1.364   4.939   0.058  0.0468 -0.0595 -0.2116
 4498W        W21345  14.981   0.210  14.083 -0.1582  0.3092  0.0838
 4499W        W21346   6.142   0.249   4.878  0.1369  0.1126  0.3697
 4500W        W21347   0.685  12.878   4.297 -0.0498 -0.1778 -0.2277
 4501W        W21348   3.023   2.364  12.421  0.1809  0.0979  0.3634
 4502W        W21349  13.774  10.381  14.177  0.0424 -0.0442  0.0431
 4503W        W21350  10.332   7.147   0.637 -0.2213 -0.1428 -0.2782
 4504W        W21351  12.518  18.319   3.369  0.0806  0.2981 -0.1877
 4505W        W21352  15.084  13.063  14.537  0.1150 -0.0021 -0.1652
 4506W        W21353  10.731  11.077  14.579  0.0074  0.0566  0.1158
 4507W        W21354  11.360   0.092   0.042 -0.2131  0.0407 -0.2004
 4508W        W21355  12.403   4.233   2.308 -0.1277  0.0643 -0.1653
 4509W        W21356   6.293   7.777  14.176 -0.0592  0.3535  0.1728
 4510W        W21357   9.651   9.670   4.197  0.0621  0.1267 -0.2022
 4511W        W21358   7.001   6.949  13.655 -0.0771 -0.3577 -0.3650
 4512W        W21359   5.342   9.498  15.291 -0.0596 -0.0355 -0.2841
 4513W        W21360   0.644   9.475  12.982 -0.1104  0.3117 -0.0525
 4514W        W21361  10.281  16.930  12.313  0.1221  0.2998 -0.2436
 4515W        W21362   0.537   4.542  12.976 -0.2948 -0.0045  0.0464
 4516W        W21363  14.072   1.764  13.809  0.1037  0.0799  0.0200
 4517W        W21364   0.425  11.699  12.461  0.2739 -0.2609  0.0898
 4518W        W21365  12.153  15.168  12.588  0.2228 -0.2696  0.3323
 4519W        W21366   0.180  13.885  13.562 -0.0779 -0.0904  0.0505
 4520W        W21367  15.870   0.333  13.320  0.0751 -0.1737  0.0027
 4521W        W21368  18.677   2.819   3.887  0.0421 -0.3873  0.0143
 4522W        W21369  10.256  16.101  10.319 -0.2858  0.3505  0.1588
 4523W        W21370   2.677   5.213  11.539  0.0011  0.0674 -0.1135
 4524W        W21371  15.027  11.371  11.887 -0.3170 -0.1572 -0.1711
 4525W        W21372  14.623   4.823   2.373 -0.3118 -0.1856 -0.2264
 4526W        W21373  12.861  14.428   0.401 -0.1387  0.1385  0.0046
 4527W        W21374   7.768   6.712  14.447  0.1011 -0.0225 -0.0351
 4528W        W21375   4.967   5.079   3.301 -0.3221  0.2000  0.2002
 4529W        W21376   4.582   3.086  13.292  0.0517  0.1055  0.2214
 4530W        W21377  17.263   0.763   2.838  0.2276  0.0447 -0.4191
 4531W        W21378  10.709  11.471  10.794 -0.5870  0.0975  0.0962
 4532W        W21379   9.607  13.370  11.022  0.0329 -0.1475 -0.1777
 4533W        W21380  17.494  12.760   3.629 -0.2994 -0.0642  0.0696
 4534W        W21381   3.002  18.732   4.252 -0.1646 -0.3945  0.2317
 4535W        W21382   0.889   4.718  14.344  0.0132  0.1625 -0.1471
 4536W        W21383   9.514   0.561   2.832 -0.3013 -0.1587  0.1302
 4537W        W21384  16.421   8.175  15.343  0.2623  0.1734 -0.1182
 4538W        W21385  13.469   8.093  10.667  0.0469  0.2108  0.0611
 4539W        W21386  18.136   3.918  15.174  0.1197 -0.0223 -0.0450
 4540W        W21387   0.259  15.710   1.720 -0.2544  0.3223  0.4061
 4541W        W21388   0.238   8.396   2.915  0.1642 -0.2670 -0.0759
 4542W        W21389  13.172   0.731   0.080 -0.0166  0.4723 -0.2461
 4543W        W21390   4.213   1.437   3.371 -0.2530  0.0855  0.0180
 4544W        W21391  11.418  18.557   2.692  0.2142 -0.3407  0.1075
 4545W        W21392  16.233  16.302   2.817 -0.4108  0.2639 -0.0596
 4546W        W21393   2.643  13.754  13.132  0.0177  0.1820 -0.2504
 4547W        W21394  15.951  18.058   4.689  0.0268 -0.0449  0.0485
 4548W        W21395   3.394  11.231   4.210 -0.0461  0.1976 -0.1266
 4549W        W21396   1.347  17.354   1.208  0.0233 -0.0075 -0.0680
 4550W        W21397   6.433   5.338   4.270 -0.2339  0.1628 -0.2311
 4551W        W21398   7.743   7.004   4.946  0.2067 -0.0002  0.0261
 4552W        W21399   8.560   9.294  14.385 -0.2792 -0.0626 -0.1201
 4553W        W21400  15.522  17.222  15.751 -0.0217  0.1645 -0.0258
 4554W        W21401  12.669  10.341  11.509 -0.1071 -0.2030 -0.0654
 4555W        W21402  12.012   8.994   3.026 -0.2978  0.0374  0.2238
 4556W        W21403  12.682  14.145  15.571 -0.0945 -0.2305  0.2504
 4557W        W21404   0.252   4.939  11.292  0.2767  0.3285 -0.0094
 4558W        W21405  13.133   0.420  12.504  0.0334 -0.0246 -0.1085
 4559W        W21406   3.728   4.800  11.934  0.0512 -0.1198 -0.0193
 4560W        W21407  17.025   2.728   4.702 -0.0714  0.0933  0.0782
 4561W        W21408  15.245  14.951  14.834  0.0148  0.4697  0.1727
 4562W        W21409   3.486  15.046  12.861 -0.1484 -0.1703  0.0600
 4563W        W21410  17.540  17.373  13.540 -0.0700  0.1007 -0.1078
 4564W        W21411  12.923   6.668   2.211  0.2320  0.0217  0.0393
 4565W        W21412  17.738   5.816  12.754 -0.4386 -0.0213 -0.1624
 4566W        W21413   7.299   1.862   2.885 -0.0437  0.1032 -0.0765
 4567W        W21414   9.025   2.422   4.944 -0.5714 -0.0380 -0.0497
 4568W        W21415  12.750  17.864   3.551  0.1596  0.0304 -0.1752
 4569W        W21416   1.397  11.517  12.508 -0.3366 -0.3129 -0.0569
 4570W        W21417   5.780   3.752   6.437 -0.2520  0.2031  0.1412
 4571W        W21418  13.131  16.165   1.567 -0.2489  0.1612  0.1913
 4572W        W21419   6.457   5.565   1.190 -0.3845  0.5345  0.0404
 4573W        W21420   5.750  14.557   2.134  0.1477  0.1657  0.1706
 4574W        W21421  18.430   4.540   4.938 -0.1485  0.0337 -0.0430
 4575W        W21422  17.726   4.282   0.068  0.3640  0.0456 -0.1694
 4576W        W21423  14.026   6.762   2.848 -0.0430 -0.0618 -0.1196
 4577W        W21424  14.902  11.214  13.816 -0.1107  0.0652 -0.0846
 4578W        W21425  14.983  17.570  12.258 -0.2974 -0.1719 -0.2213
 4579W        W21426  11.423   8.626   5.741  0.1723  0.0566  0.1219
 4580W        W21427   5.198   6.057   4.784 -0.0630 -0.0039  0.4009
 4581W        W21428   3.201   3.312   1.194  0.0443  0.0260 -0.0665
 4582W        W21429   5.762   0.507  15.703 -0.2147 -0.1445  0.2418
 4583W        W21430   4.639   2.344   3.554 -0.1530  0.0521 -0.1678
 4584W        W21431  10.776   1.407   3.034 -0.0941  0.0159 -0.1349
 4585W        W21432  17.658   2.301  13.203  0.1197 -0.0322  0.1265
 4586W        W21433  17.172  14.101   4.198 -0.2827  0.1851 -0.3539
 4587W        W21434  18.283   7.938   1.038 -0.0025 -0.4286 -0.0774
 4588W        W21435   2.759  10.784  11.972  0.0829  0.2690 -0.1141
 4589W        W21436  10.960   6.218   0.169  0.2127 -0.2264  0.2700
 4590W        W21437  12.520  14.521   0.094  0.3180 -0.1533  0.1081
 4591W        W21438   5.022  18.493  12.183 -0.1712  0.2937  0.1082
 4592W        W21439   2.879  15.564  14.061  0.2139 -0.2852  0.0344
 4593W        W21440   2.957   9.436  15.013 -0.2107  0.0592 -0.3746
 4594W        W21441  17.594  15.424   3.099 -0.0341  0.0691  0.3074
 4595W        W21442  12.526  17.169  13.554  0.0898 -0.0436 -0.0135
 4596W        W21443  12.144  13.485   3.169  0.0072  0.0903  0.0061
 4597W        W21444  16.948   1.264  13.230 -0.0755  0.1874 -0.1206
 4598W        W21445  18.687   8.801   2.102 -0.0351 -0.1325 -0.0308
 4599W        W21446  16.101   5.556   4.555  0.0692 -0.2249  0.2512
 4600W        W21447   8.254   3.708   3.326 -0.0349 -0.1279 -0.3426
 4601W        W21448   0.225   1.626   0.052  0.0169 -0.0821  0.1000
 4602W        W21449   1.206  14.614   4.412  0.1520  0.1824 -0.2840
 4603W        W21450  10.210   2.277   0.110 -0.2416 -0.3366 -0.2627
 4604W        W21451   2.011   6.829  11.746 -0.2360 -0.3022  0.0163
 4605W        W21452   3.077   4.309  15.320 -0.3999  0.1713 -0.1298
 4606W        W21453   5.389   6.259  13.102  0.0623  0.1572  0.1635
 4607W        W21454   5.829  18.707  13.262 -0.0302  0.2246  0.0392
 4608W        W21455   7.456  15.419  11.778  0.2534  0.0782  0.1842
 4609W        W21456  15.116  14.386  11.591  0.0866 -0.0379  0.0625
 4610W        W21457  15.381  14.315   3.773  0.0551  0.0322  0.3737
 4611W        W21458   8.388  14.009  12.525 -0.2154  0.0323  0.0332
 4612W        W21459  16.977   7.861  13.649 -0.3431 -0.1290  0.0761
 4613W        W21460   0.344  10.353  11.349  0.1971  0.1727 -0.0095
 4614W        W21461   6.989   0.474  13.728  0.1867 -0.0686  0.1133
 4615W        W21462  16.114  16.035   2.435 -0.1130  0.1295 -0.2758
 4616W        W21463   2.969  12.565  11.951 -0.2065  0.0113 -0.2854
 4617W        W21464   8.526  18.069  14.167 -0.0810  0.0646 -0.1691
 4618W        W21465   7.744   1.814  13.151  0.2921  0.0336  0.2533
 4619W        W21466  15.206   4.460  12.025  0.3300 -0.2616  0.2797
 4620W        W21467   8.370   0.405   3.669  0.0064  0.1188 -0.1341
 4621W        W21468  11.142  17.672  12.413  0.0225  0.0844  0.0150
 4622W        W21469   6.913   8.307   5.166 -0.2292 -0.1027  0.1275
 4623W        W21470   9.354   0.271  14.530  0.0252  0.2716  0.0826
 4624W        W21471  13.602   2.639   5.368  0.0585  0.2207 -0.0167
 4625W        W21472   1.736  16.794  14.085  0.0554 -0.2553  0.1912
 4626W        W21473  13.773   2.532  13.951 -0.0128  0.2316 -0.0894
 4627W        W21474  14.883   2.113   2.431  0.0053 -0.0875 -0.1234
 4628W        W21475  15.963   6.584  15.728 -0.0143 -0.0294 -0.1606
 4629W        W21476   9.407   9.809   1.448  0.0448 -0.2551 -0.3205
 4630W        W21477   4.066   1.645  14.256 -0.6444 -0.3674 -0.1051
 4631W        W21478   3.785  12.621   3.935  0.3594 -0.0130  0.0652
 4632W        W21479  16.813  15.001  12.995  0.3150 -0.1987 -0.1090
 4633W        W21480   4.684  12.478   0.445  0.0837 -0.0747 -0.1235
 4634W        W21481  15.846   6.319   5.937 -0.1482  0.1101  0.0087
 4635W        W21482   0.405   6.610  15.094 -0.0099 -0.1566  0.0236
 4636W        W21483   6.163  18.355   9.402  0.2657  0.1016  0.3812
 4637W        W21484  10.017   8.723   5.339 -0.3126  0.0545 -0.0176
 4638W        W21485  17.617  18.055   4.812  0.0188  0.0107 -0.2309
 4639W        W21486  10.636   6.419  12.143 -0.1493  0.1590  0.4043
 4640W        W21487  13.831   9.127   1.211 -0.0569 -0.0151  0.0381
 4641W        W21488   7.350  15.294   0.243  0.2803 -0.0029 -0.1234
 4642W        W21489   8.947  11.515  12.504  0.0256  0.0664 -0.2646
 4643W        W21490  16.815   4.220   0.340 -0.0255  0.0338 -0.1125
 4644W        W21491   3.741  17.556   1.366  0.1990 -0.0997  0.1605
 4645W        W21492   3.411   5.375   3.635 -0.0345 -0.2451 -0.0635
 4646W        W21493   7.746  18.242  12.163 -0.1341  0.3613  0.1354
 4647W        W21494  10.012   7.052  12.070  0.0428  0.2406  0.0890
 4648W        W21495   3.161  14.134  15.590  0.0479  0.2189  0.0763
 4649W        W21496   5.393  17.951  13.344 -0.0971  0.0501  0.0075
 4650W        W21497   7.977  17.242   3.734 -0.1179  0.3240 -0.0226
 4651W        W21498  12.898   5.469   0.278  0.1550  0.1866  0.0501
 4652W        W21499   1.466   5.217   1.287 -0.1565  0.1505 -0.0156
 4653W        W21500   1.199   2.547  13.711  0.2947  0.2096  0.0632
 4654W        W21501   0.708  10.511  13.378 -0.4760  0.3808  0.2796
 4655W        W21502  15.500  17.649   6.096 -0.1484  0.0504  0.3245
 4656W        W21503   3.249   0.100   3.910 -0.3680 -0.1203  0.4527
 4657W        W21504  10.310  16.555   0.917  0.1717  0.0770 -0.1690
 4658W        W21505   6.794   9.118   2.795  0.1534 -0.0989 -0.2944
 4659W        W21506   8.089  13.014   1.661 -0.3367 -0.2150 -0.3165
 4660W        W21507   8.562  17.390  14.961  0.2342  0.0632 -0.0680
 4661W        W21508  13.566   8.358  12.085  0.1591 -0.0440 -0.1560
 4662W        W21509  15.093  15.554   0.683 -0.0411 -0.1060  0.2076
 4663W        W21510   4.280  14.505   0.164  0.0423  0.1692  0.2517
 4664W        W21511   9.343   6.242   1.090  0.1295 -0.1916 -0.0241
 4665W        W21512  16.068   3.205  15.446  0.0300  0.2579 -0.1241
 4666W        W21513  11.475   8.027  15.308 -0.1541  0.0415  0.0368
 4667W        W21514  12.343   9.823   5.105  0.2332 -0.0945 -0.0851
 4668W        W21515   3.218   5.075   0.789  0.0285  0.0989  0.1128
 4669W        W21516  11.028  12.768   2.509  0.1554  0.2096  0.1200
 4670W        W21517  14.418   7.170   4.032  0.0004  0.1545 -0.0213
 4671W        W21518   4.532  10.560  13.907 -0.2531  0.1781  0.0641
 4672W        W21519   5.993  16.312   2.794  0.0745 -0.1282  0.1136
 4673W        W21520  13.347  13.326   4.054 -0.0667 -0.1490  0.0341
 4674W        W21521   1.299  12.293   3.958 -0.0728  0.2077 -0.2568
 4675W        W21522   4.668   9.379  12.776  0.0381 -0.0814 -0.2477
 4676W        W21523  11.323  15.034   1.627  0.2715 -0.0323 -0.1669
 4677W        W21524  14.288  13.335   0.134 -0.4510  0.3695 -0.1831
 4678W        W21525   6.432  14.206  11.511 -0.0843 -0.1656 -0.1373
 4679W        W21526   9.958   6.459  13.885  0.0937 -0.2691 -0.2673
 4680W        W21527   0.155  11.180  14.690  0.0288 -0.0208 -0.0994
 4681W        W21528   3.681  12.898   2.304  0.1837 -0.1501  0.0137
 4682W        W21529  16.678   5.454   5.755 -0.0915  0.0040 -0.1132
 4683W        W21530   6.819   4.745   0.003  0.1933 -0.0281 -0.0610
 4684W        W21531  16.973  18.268  11.485  0.2030 -0.3569  0.0752
 4685W        W21532  11.936   3.822   0.413 -0.1166  0.0273 -0.0356
 4686W        W21533  16.708  18.200   4.763  0.2008 -0.0740  0.1797
 4687W        W21534   8.621   8.512   0.782  0.0427  0.0827 -0.0036
 4688W        W21535   4.522   2.673  12.177  0.0774 -0.0267 -0.0539
 4689W        W21536   8.160  11.619   3.101 -0.0276  0.3764  0.2727
 4690W        W21537   2.148  11.938   3.890  0.1718 -0.0046  0.1118
 4691W        W21538   6.691   2.379   2.473  0.1320 -0.0833 -0.1371
 4692W        W21539   3.294  10.545   5.031  0.0654 -0.5080  0.0629
 4693W        W21540   1.379   7.423  13.254 -0.0061 -0.0578 -0.0393
 4694W        W21541   4.805   8.706   5.394  0.0546 -0.3190  0.1091
 4695W        W21542   3.803   1.256   1.913 -0.0713  0.3251 -0.1572
 4696W        W21543   7.309  10.130   2.498  0.0243  0.2034 -0.1496
 4697W        W21544   1.501   7.811   1.799 -0.0165 -0.2040 -0.1806
 4698W        W21545  13.538   3.650   3.353 -0.0401  0.1436 -0.0985
 4699W        W21546  14.939   9.178  15.778  0.0391 -0.1410 -0.3607
 4700W        W21547   3.798   2.113  12.946  0.4071  0.0706  0.2855
 4701W        W21548   2.950   6.311   4.689  0.0183  0.0875  0.0029
 4702W        W21549   0.208   1.046  13.816  0.1330  0.0015  0.2199
 4703W        W21550  17.452  13.733  13.259 -0.0410  0.0419  0.1724
 4704W        W21551  17.326   0.977   1.402 -0.3986 -0.1339  0.1611
 4705W        W21552  14.477   0.076   2.770  0.0884 -0.0086 -0.3029
 4706W        W21553   0.329  16.430  14.715  0.1064  0.2465 -0.0073
 4707W        W21554  17.159   1.831  15.738 -0.3086  0.1675  0.2228
 4708W        W21555  17.688   0.841   5.300 -0.0341 -0.0668  0.0095
 4709W        W21556  10.943   7.764  14.235 -0.1028 -0.1889 -0.1688
 4710W        W21557   6.926   2.975   1.952 -0.1705  0.1202 -0.0751
 4711W        W21558   7.076   7.474   3.588 -0.0851 -0.0368  0.1204
 4712W        W21559   1.070  12.362   1.738  0.0646  0.1644 -0.1545
 4713W        W21560  13.049  18.658  15.517  0.0620 -0.1538 -0.3597
 4714W        W21561   6.413   1.908  10.422  0.1247  0.1661 -0.0461
 4715W        W21562   3.942   0.114   4.533 -0.3346 -0.1666  0.0942
 4716W        W21563  10.193  12.366  14.479  0.2224  0.2439  0.0330
 4717W        W21564  12.556   1.366  12.212  0.4671 -0.2651  0.0307
 4718W        W21565   2.485  16.969  11.187 -0.2558  0.0498  0.3142
 4719W        W21566  16.017   6.618   1.037 -0.0207  0.0315 -0.1997
 4720W        W21567  15.836   1.666   4.327 -0.1493  0.0638 -0.2598
 4721W        W21568  14.504   1.117  13.461  0.1090 -0.3058 -0.0951
 4722W        W21569   5.915   8.752  12.770 -0.1778 -0.4856  0.2680
 4723W        W21570   8.240  17.067   2.756 -0.0602 -0.2700 -0.1470
 4724W        W21571   0.078   8.208  13.501  0.2388  0.1061 -0.1928
 4725W        W21572   6.103   1.961  15.624  0.0994  0.0811  0.2446
 4726W        W21573  15.091   9.346  12.393  0.1590  0.0723 -0.1571
 4727W        W21574   3.371  11.047   3.699  0.3784 -0.2609 -0.1785
 4728W        W21575   3.955  13.977   1.443 -0.0846 -0.0397 -0.0179
 4729W        W21576  18.404   4.388  11.428  0.1798  0.0232 -0.2235
 4730W        W21577  14.847   4.834   2.843  0.0565 -0.1381  0.0229
 4731W        W21578   1.333   9.995   2.175 -0.0248 -0.1756 -0.0010
 4732W        W21579  13.637   5.990   5.092  0.1717  0.0397  0.0860
 4733W        W21580   8.527  14.579   0.229 -0.5168 -0.2788 -0.1048
 4734W        W21581   8.290  17.778  10.509 -0.0340 -0.0120 -0.0302
 4735W        W21582  15.776   0.836   3.134 -0.2823  0.2847  0.0567
 4736W        W21583  15.864  10.673  13.398 -0.1790 -0.1571  0.1987
 4737W        W21584  13.576   7.081   0.387 -0.0667 -0.0915  0.1976
 4738W        W21585   4.248   6.429   3.988  0.0383 -0.0631  0.2438
 4739W        W21586  13.318   5.211  10.667 -0.0098  0.2525 -0.1090
 4740W        W21587  16.457   6.217   2.278 -0.2785  0.1005  0.1183
 4741W        W21588   0.075   6.305   3.707  0.2059  0.1335  0.0171
 4742W        W21589  12.682  15.804  14.162  0.0782 -0.0808  0.4725
 4743W        W21590   7.901   6.118   4.824 -0.4754  0.2052  0.2767
 4744W        W21591  13.620   2.584  11.969 -0.0503  0.0943 -0.1789
 4745W        W21592   3.841  13.073  13.838 -0.0568  0.0736  0.0949
 4746W        W21593   5.806   6.513  13.292  0.2326 -0.0784  0.1716
 4747W        W21594   5.439  15.111  13.468  0.1569 -0.1597 -0.2383
 4748W        W21595  10.885  18.741   0.890 -0.2787 -0.1313 -0.1093
 4749W        W21596   8.535   6.394   2.341  0.2921  0.0701  0.0150
 4750W        W21597  10.051   9.161  11.470  0.1313 -0.0500 -0.1126
 4751W        W21598  12.811   6.085   0.842 -0.3939  0.2055  0.0814
 4752W        W21599   3.051  13.396  11.523 -0.1086  0.0814 -0.3198
 4753W        W21600   6.307   6.894   3.087  0.0157  0.0548  0.0183
 4754W        W21601  12.098   1.536   2.488  0.1000 -0.2452 -0.1800
 4755W        W21602   5.499   5.900   5.528 -0.1189 -0.0012 -0.1083
 4756W        W21603   6.822  13.537  15.619 -0.2459  0.0239  0.1769
 4757W        W21604  18.720   3.371   1.857 -0.1202  0.0348 -0.0422
 4758W        W21605   7.683  11.388  14.545 -0.2419  0.1111 -0.1445
 4759W        W21606   5.614   2.758  15.320 -0.0088 -0.0533 -0.0222
 4760W        W21607  16.309  13.559   5.054  0.0094  0.0491 -0.1441
 4761W        W21608   6.120  16.756   1.578  0.1461  0.0697 -0.2285
 4762W        W21609  10.034  10.455  12.156 -0.3271  0.1592 -0.2024
 4763W        W21610   2.673  11.753   5.295 -0.0981  0.2432  0.2302
 4764W        W21611  16.086  12.798  14.551 -0.3279  0.0812 -0.1349
 4765W        W21612  12.673   2.865   2.302  0.3486  0.0900 -0.0646
 4766W        W21613   1.287   2.274   4.359  0.4587  0.1855  0.1489
 4767W        W21614  17.384  16.094   3.647  0.0949  0.1473  0.0282
 4768W        W21615  13.634   3.074  11.111  0.1920  0.4373  0.1519
 4769W        W21616   6.199  16.546   0.585 -0.3246  0.0403  0.0108
 4770W        W21617  11.393  12.712  14.301 -0.1698  0.3816 -0.0517
 4771W        W21618   5.296  10.481  12.470  0.3401  0.1444 -0.0369
 4772W        W21619   1.837  12.698  11.381 -0.1146 -0.1805  0.1639
 4773W        W21620   1.596  14.098   2.528 -0.0691  0.0585  0.0487
 4774W        W21621   9.457  11.672  15.430 -0.1619 -0.3590  0.3148
 4775W        W21622  14.534   5.890  11.562  0.1916 -0.1261 -0.0637
 4776W        W21623   2.105   7.956  13.178 -0.0180  0.1512 -0.1831
 4777W        W21624   0.350   2.087   1.697 -0.1678  0.4033  0.0442
 4778W        W21625  10.531   3.318   0.022 -0.0076 -0.0129 -0.1735
 4779W        W21626   9.169   6.313   0.001 -0.0079 -0.0766  0.0372
 4780W        W21627   7.224  15.171   2.521  0.0485 -0.1962  0.0407
 4781W        W21628  13.543   1.378  14.626 -0.0315  0.0889 -0.3120
 4782W        W21629   4.722   7.681  10.865 -0.0473 -0.1216 -0.7410
 4783W        W21630  12.411   4.036   1.270 -0.2177  0.1900 -0.1984
 4784W        W21631   5.843   1.277  11.028 -0.0204  0.1924 -0.2198
 4785W        W21632  14.576  17.062  15.454 -0.3731  0.0807  0.2680
 4786W        W21633   3.711   6.476  15.773  0.1376  0.0029  0.1693
 4787W        W21634  17.163   5.672   6.031 -0.0792  0.0615 -0.1701
 4788W        W21635   7.147  14.649  10.335 -0.1025  0.4059  0.0293
 4789W        W21636   1.539   8.986   3.676 -0.2264  0.2612 -0.0035
 4790W        W21637   3.888   6.371  12.176  0.2050 -0.2809 -0.1464
 4791W        W21638  14.583  16.650  12.805 -0.1283 -0.2071 -0.0464
 4792W        W21639  17.029  13.701  11.973 -0.1613 -0.1399 -0.1071
 4793W        W21640  18.026  12.826   1.579 -0.0217  0.2319  0.1839
 4794W        W21641  18.416   6.194   5.499  0.5064  0.1874 -0.2399
 4795W        W21642  13.790  18.838   1.397 -0.2147  0.1087 -0.0071
 4796W        W21643  13.425  12.952  15.293  0.0328  0.1395 -0.1652
 4797W        W21644   9.659   0.863  15.532  0.0124 -0.0651  0.1028
 4798W        W21645   5.800   5.117   2.168 -0.0560  0.1293 -0.0613
 4799W        W21646   5.908   5.475   0.056  0.2160 -0.1322 -0.0478
 4800W        W21647   2.921  12.296   4.195  0.1585 -0.1872  0.2957
 4801W        W21648  16.022  13.838  13.628  0.1385  0.1310 -0.0928
 4802W        W21649  16.575   0.656  15.152 -0.1531  0.0643 -0.0010
 4803W        W21650   9.660  16.964  10.582  0.1269  0.0984 -0.2225
 4804W        W21651  16.463  11.859   5.554 -0.1463  0.5953 -0.2125
 4805W        W21652   1.328   4.146   3.402  0.1204  0.0713  0.2939
 4806W        W21653  16.977   9.564   5.171 -0.2847 -0.1610 -0.1257
 4807W        W21654  15.879   9.817  10.411  0.1785 -0.0149  0.0091
 4808W        W21655  12.927  13.689   4.362 -0.0231  0.1755 -0.0266
 4809W        W21656   1.206   2.575   1.254 -0.3420 -0.1477  0.1547
 4810W        W21657   6.245  18.477  14.796 -0.2240 -0.3231 -0.3737
 4811W        W21658   5.556   9.074   1.900  0.1357  0.4810 -0.0166
 4812W        W21659  15.621   8.662   2.987 -0.0893 -0.1646  0.2560
 4813W        W21660   5.004  15.853   4.293 -0.1273  0.0529  0.0172
 4814W        W21661   1.087  15.170  11.131 -0.3206 -0.0262  0.7686
 4815W        W21662  18.221   5.918  12.925  0.1636 -0.1937 -0.3553
 4816W        W21663  18.410  11.018  12.318  0.0387  0.2221 -0.0711
 4817W        W21664   2.114   9.541  14.200 -0.3904 -0.5079  0.1221
 4818W        W21665   0.373   5.577   5.353 -0.0075 -0.0264 -0.1702
 4819W        W21666   2.367  12.870   1.150  0.0338  0.0171  0.2771
 4820W        W21667  10.799  14.538  12.802 -0.0542  0.1539 -0.3943
 4821W        W21668   5.721  17.877   3.837  0.1311  0.1291 -0.0187
 4822W        W21669   7.908  12.755  12.518  0.0839 -0.4210  0.2865
 4823W        W21670   8.759  17.273   2.822  0.2115  0.0432 -0.2178
 4824W        W21671   5.220  17.059   4.742 -0.0137  0.0047 -0.4289
 4825W        W21672   4.286  15.737   2.976 -0.0673  0.0255 -0.1234
 4826W        W21673  14.228   0.078   0.008 -0.1920 -0.0348  0.0930
 4827W        W21674  10.233   2.224   5.602 -0.1169  0.1439  0.4709
 4828W        W21675  17.608  14.310  11.254 -0.1971  0.1343 -0.0576
 4829W        W21676  13.533   1.522  14.027  0.1622  0.0577  0.0260
 4830W        W21677   3.356  17.585   0.111  0.1120 -0.0594 -0.1260
 4831W        W21678   8.021  13.538   2.528 -0.1430  0.1232  0.2932
 4832W        W21679   3.431  10.214   2.702  0.1395 -0.2185 -0.2735
 4833W        W21680  16.013  14.298   3.075 -0.0584 -0.1722 -0.0445
 4834W        W21681  14.336   6.146   0.198 -0.1709  0.0154 -0.0707
 4835W        W21682  15.227   1.516  14.310  0.0337  0.1937 -0.2147
 4836W        W21683   8.258   9.252  11.232  0.0919 -0.5519  0.2686
 4837W        W21684   6.012   6.991  11.860 -0.0448  0.1251  0.1357
 4838W        W21685  11.207   5.238  15.635  0.2435  0.1685 -0.2139
 4839W        W21686   4.824  12.449  15.105  0.0281 -0.0877 -0.0853
 4840W        W21687   3.928   6.187   0.841  0.0654  0.0307  0.2112
 4841W        W21688   3.972   9.807   5.603 -0.1563  0.4992  0.2834
 4842W        W21689   2.816   0.885  15.207 -0.1688 -0.3544 -0.0096
 4843W        W21690   1.548  13.017   3.288  0.0128  0.0441  0.1464
 4844W        W21691  15.703  18.355  11.243  0.0545  0.0034 -0.1939
 4845W        W21692   6.415  17.996   4.348 -0.1167 -0.0940 -0.3054
 4846W        W21693  15.413   6.511   6.174 -0.1245  0.2793  0.0451
 4847W        W21694  15.620   1.868   1.348  0.1285 -0.1799 -0.1009
 4848W        W21695   4.269   2.311  11.672  0.1822  0.4579 -0.1695
 4849W        W21696  10.605   0.297  13.985  0.0166 -0.3541  0.0984
 4850W        W21697  10.606   4.841  10.012  0.4068 -0.1143  0.2729
 4851W        W21698   4.165   2.199   2.088 -0.1864  0.0834  0.2684
 4852W        W21699   6.561  16.237  13.705 -0.0053  0.2682 -0.0167
 4853W        W21700  18.801  16.014   1.129 -0.0989  0.1623 -0.0581
 4854W        W21701   0.042   8.100   4.788  0.3835 -0.3266 -0.1592
 4855W        W21702   2.926  11.736  10.948 -0.4736 -0.0366 -0.2387
 4856W        W21703  11.845   8.582  10.544  0.1367  0.1430  0.4103
 4857W        W21704   1.752   4.588   1.953 -0.3112  0.2005  0.1113
 4858W        W21705   7.191   1.612  10.488 -0.6882  0.0344  0.2557
 4859W        W21706  18.481  18.695  14.542  0.2305 -0.2132 -0.0588
 4860W        W21707   7.413   3.138   4.276  0.1546 -0.1745  0.1714
 4861W        W21708   7.893   7.221  14.396  0.0078  0.0078 -0.0017
 4862W        W21709  17.799   3.494   0.737  0.1622 -0.0828  0.3957
 4863W        W21710   9.728   5.494  14.733  0.1455 -0.3877  0.2795
 4864W        W21711  15.866  14.160   2.096 -0.0447 -0.1208  0.3760
 4865W        W21712  15.950   5.121  15.607  0.1516 -0.0390 -0.2690
 4866W        W21713  16.325   2.666   5.913 -0.0230 -0.0069 -0.4112
 4867W        W21714   4.223   9.269  11.415  0.1271  0.0437 -0.2467
 4868W        W21715  18.125  18.481   4.714 -0.3221  0.1461  0.0603
 4869W        W21716  11.990  15.345  13.715  0.0320  0.1029  0.2063
 4870W        W21717   5.011  13.500  13.000  0.0414  0.3281  0.0008
 4871W        W21718  10.868  13.650  14.855  0.0082 -0.0173  0.0185
 4872W        W21719   3.850  17.532   4.032  0.3150  0.1264 -0.3727
 4873W        W21720   0.932   8.618  11.963 -0.1400  0.0387 -0.0577
 4874W        W21721  12.250  10.687   2.828  0.1478 -0.4062 -0.2729
 4875W        W21722   8.668   5.798  11.472  0.0724 -0.0297 -0.2840
 4876W        W21723  11.991   9.660  13.689  0.1502  0.1983 -0.0927
 4877W        W21724  14.356   1.594  11.872  0.2749  0.4896  0.1630
 4878W        W21725  11.934   2.600  12.276 -0.1232 -0.0119  0.0451
 4879W        W21726   1.978   7.161   2.286  0.0476  0.4041 -0.2352
 4880W        W21727  11.053   8.725   4.460  0.0036  0.0902  0.0994
 4881W        W21728  16.031  18.355   1.299  0.0308 -0.0844 -0.0106
 4882W        W21729   1.465  15.963   3.664  0.3430  0.0370 -0.2726
 4883W        W21730   5.780  17.935  12.745  0.0434  0.0441 -0.2856
 4884W        W21731   8.947   2.345   2.656  0.0382 -0.0139 -0.1544
 4885W        W21732   7.934   0.283  14.052 -0.3301  0.3308 -0.3467
 4886W        W21733  11.570  14.493  14.934 -0.0264 -0.0175 -0.2868
 4887W        W21734   6.302  13.022   2.583 -0.1587 -0.1279 -0.2018
 4888W        W21735  12.759  13.763   3.395  0.2319 -0.1036  0.1222
 4889W        W21736  12.139  12.846  12.535 -0.1919  0.0844  0.2277
 4890W        W21737   3.630   8.322   4.860 -0.2604  0.1755 -0.4013
 4891W        W21738  11.757  15.936   5.484 -0.3078  0.0706 -0.3658
 4892W        W21739   5.049  12.411   0.817 -0.0225  0.0427 -0.0200
 4893W        W21740   7.661   4.706   0.066 -0.0355 -0.0769 -0.3459
 4894W        W21741   6.779   3.815  14.084 -0.1741  0.1150 -0.2828
 4895W        W21742  11.386  15.625  14.953  0.0449 -0.2050 -0.2471
 4896W        W21743   4.063  18.436   3.796  0.5200  0.1818  0.2172
 4897W        W21744   6.803   5.365   1.994 -0.2409  0.0412 -0.2912
 4898W        W21745   7.254  13.427   2.286  0.1631  0.0901 -0.1449
 4899W        W21746   3.152  17.205   0.419 -0.0973  0.0594  0.0271
 4900W        W21747  10.054   4.197  14.647  0.2766  0.1514  0.1893
 4901W        W21748  16.305   8.139  14.103  0.2779 -0.1538  0.0948
 4902W        W21749  12.872   4.454  15.147  0.2162  0.0507 -0.1206
 4903W        W21750  16.942  15.123   4.000 -0.5188  0.3045 -0.0475
 4904W        W21751   4.871   0.089  11.970 -0.1216  0.1069  0.0980
 4905W        W21752   7.159  17.969   0.506  0.0046  0.1887  0.2816
 4906W        W21753  11.165   2.729   4.684 -0.0471 -0.0737 -0.1872
 4907W        W21754  11.005  13.414  15.294  0.3258  0.4938  0.0957
 4908W        W21755   3.194   8.184  13.949 -0.0360  0.0470 -0.0250
 4909W        W21756   9.661   2.824  12.126 -0.0782  0.0497 -0.2192
 4910W        W21757   4.962   5.317  15.235  0.4147 -0.0582 -0.0674
 4911W        W21758   9.285  17.644   1.291  0.1769 -0.1878  0.0447
 4912W        W21759  12.743   2.737   5.172 -0.1529  0.0515  0.0796
 4913W        W21760   7.479  18.248  11.373 -0.0792  0.1235 -0.0302
 4914W        W21761  11.260   6.859  11.261 -0.2921  0.1060 -0.3042
 4915W        W21762  16.449  14.890  11.634  0.0491  0.2030  0.0501
 4916W        W21763   0.276  13.402   5.590 -0.1741  0.1828  0.2222
 4917W        W21764  10.579  17.395   0.644  0.0394 -0.0299 -0.1741
 4918W        W21765   4.311  14.846   1.199 -0.1074  0.1596  0.0127
 4919W        W21766   5.809  11.397  11.188 -0.1695  0.1753 -0.1930
 4920W        W21767   5.848  16.295   4.655 -0.2201 -0.1368 -0.2381
 4921W        W21768   7.767   5.240   0.042 -0.0210 -0.0938 -0.1626
 4922W        W21769  13.681   4.676  12.279 -0.1938  0.0034  0.1425
 4923W        W21770  17.971   0.727   0.949  0.2402 -0.0429 -0.1028
 4924W        W21771   7.427  15.754  13.795  0.0392  0.0218  0.3460
 4925W        W21772  14.620   2.424   4.022  0.0114 -0.0687  0.1383
 4926W        W21773  11.142  13.612  10.369 -0.1898  0.0775  0.4220
 4927W        W21774  11.334  17.389  14.741 -0.1515 -0.0943 -0.1630
 4928W        W21775  16.659  15.368   4.867  0.1687  0.2101 -0.1394
 4929W        W21776  16.544   4.428  13.045 -0.2878 -0.0478 -0.3480
 4930W        W21777  15.066   7.669   0.951  0.0205  0.0514  0.1173
 4931W        W21778  15.276  12.902   3.468  0.2010  0.5045  0.2619
 4932W        W21779   2.034  13.576  11.571  0.4160 -0.1101  0.0560
 4933W        W21780  16.070  13.344   3.140 -0.1611 -0.2891 -0.0784
 4934W        W21781  11.469   5.119   2.431 -0.1443 -0.3449  0.2871
 4935W        W21782   5.727  17.231  11.569 -0.1114 -0.0756  0.0392
 4936W        W21783  12.360  14.739   1.620 -0.2224  0.1293  0.1986
 4937W        W21784  14.443  10.036   4.364  0.2630  0.1150  0.1095
 4938W        W21785  12.586   2.429  14.042 -0.0082 -0.0984  0.1435
 4939W        W21786  12.890  10.599   3.510 -0.0869  0.0149  0.1710
 4940W        W21787  12.522  12.441  11.517 -0.3757 -0.1473 -0.0641
 4941W        W21788  13.756  10.445   1.973  0.1269 -0.0450  0.0753
 4942W        W21789   3.590  13.382   2.149  0.0764  0.0271  0.1681
 4943W        W21790   9.227  12.236  10.997  0.1660  0.1863  0.1195
 4944W        W21791   3.148   9.232   5.791  0.2972 -0.1525 -0.1863
 4945W        W21792   5.389  18.080  14.363 -0.1081  0.0920  0.0366
 4946W        W21793  14.093   8.212  15.077  0.3571  0.2629 -0.0537
 4947W        W21794  17.673  12.097   0.295  0.2740 -0.0640 -0.0114
 4948W        W21795   2.900  15.954  15.648 -0.2267 -0.2838 -0.1085
 4949W        W21796   3.147  10.331   4.312 -0.2831 -0.1751  0.0994
 4950W        W21797   9.766  14.899   9.982  0.2232 -0.2300  0.1806
 4951W        W21798   3.019  13.799   0.293  0.0156 -0.0705  0.0339
 4952W        W21799  18.744   6.965   4.716 -0.2115 -0.1269 -0.0928
 4953W        W21800   6.211   6.013  11.453  0.0590 -0.0766  0.2026
 4954W        W21801  12.907  18.262  13.398 -0.0016 -0.0830 -0.1357
 4955W        W21802  17.178   1.181   3.084  0.1113  0.3595 -0.1180
 4956W        W21803  17.737  14.141  14.815  0.0149  0.1145 -0.2887
 4957W        W21804   1.266   9.721  14.783 -0.0341  0.1004 -0.0498
 4958W        W21805  11.407   0.623  12.878 -0.2111 -0.1684  0.1999
 4959W        W21806  17.447  11.553   2.041 -0.3426  0.1764 -0.1924
 4960W        W21807   8.091  12.303  15.230 -0.2040  0.3136 -0.0184
 4961W        W21808   4.965  18.122  15.345  0.0652  0.0929 -0.0664
 4962W        W21809  15.684  11.104  13.201  0.0760  0.1584  0.0495
 4963W        W21810  14.198   2.226  12.122  0.0294  0.2187 -0.4533
 4964W        W21811  14.782  17.161   4.475 -0.0598 -0.1483  0.0962
 4965W        W21812   5.011  17.360  15.115 -0.5470 -0.1451  0.0616
 4966W        W21813  14.485  14.448  11.601 -0.1261 -0.3213  0.0965
 4967W        W21814   7.433  15.719  10.384  0.3704 -0.2747  0.0546
 4968W        W21815  18.714   0.960  15.623 -0.4704  0.2543  0.1450
 4969W        W21816  16.404   6.300  12.374 -0.1947 -0.1570 -0.0809
 4970W        W21817  11.932  18.334  13.393 -0.5517 -0.0121  0.0931
 4971W        W21818   2.684  16.642   3.395 -0.2175  0.3082 -0.1538
 4972W        W21819  16.229   3.214   1.129  0.1679  0.1509  0.1882
 4973W        W21820  14.848  18.598   2.727 -0.2588  0.2458  0.1080
 4974W        W21821   8.684  11.521  11.236 -0.1097  0.3449  0.1569
 4975W        W21822   4.767  13.738  14.413  0.1503 -0.0310 -0.0549
 4976W        W21823  14.600  18.478   5.240  0.0722 -0.1698  0.0494
 4977W        W21824  13.501   9.536   3.651 -0.1593  0.0551 -0.0089
 4978W        W21825   7.547  15.566  12.255 -0.2442 -0.0081 -0.1867
 4979W        W21826  11.559  13.219  11.652 -0.0198  0.2010 -0.0164
 4980W        W21827  17.746  11.637  14.691  0.2232  0.3866  0.1090
 4981W        W21828  13.762  14.593  14.606 -0.1740 -0.0438  0.0224
 4982W        W21829   5.300  15.261  10.961 -0.2776 -0.1625  0.2848
 4983W        W21830  10.368  13.154  12.785  0.1472 -0.1597 -0.0035
 4984W        W21831   8.356  15.003  12.797  0.1049 -0.1702 -0.0945
 4985W        W21832   1.968   6.217  15.654  0.0178 -0.1525 -0.1224
 4986W        W21833  18.863  16.192   4.933 -0.0435 -0.3336  0.3121
 4987W        W21834  10.362  17.218  10.855 -0.0887 -0.4604  0.0016
 4988W        W21835  13.414  13.693   4.974 -0.1443 -0.1324  0.3218
 4989W        W21836   2.912  13.065   3.090  0.0493 -0.1437 -0.0643
 4990W        W21837  16.052   1.486  11.254 -0.1772  0.0683 -0.0883
 4991W        W21838  13.982  17.613   2.369  0.0879 -0.1267  0.3255
 4992W        W21839   1.982  17.855  10.783  0.1691  0.0524  0.2222
 4993W        W21840  13.349   0.162   5.035  0.3682  0.0722 -0.0245
 4994W        W21841   6.258  14.781   4.020 -0.2779 -0.0206  0.2204
 4995W        W21842   9.866   1.525   3.905  0.2475 -0.1277 -0.0320
 4996W        W21843   1.222  16.716   2.344 -0.2407 -0.2313  0.0267
 4997W        W21844   6.728   9.487  13.358  0.0470 -0.1869 -0.1035
 4998W        W21845  15.943   2.423  12.328 -0.2124 -0.0635  0.0809
 4999W        W21846  17.631   4.604   2.003 -0.0404  0.1986  0.2291
 5000W        W21847   7.399   6.159   1.824  0.2948  0.2344  0.1177
 5001W        W21848  16.383  17.010   3.596 -0.0951  0.1412 -0.1848
 5002W        W21849  10.170  14.173   0.649 -0.0054  0.0451 -0.0465
 5003W        W21850  13.515  18.826  14.185  0.0507  0.2263 -0.2238
 5004W        W21851   8.370   0.603  12.886  0.1108 -0.0949  0.3218
 5005W        W21852  16.811   2.515  12.770  0.1753 -0.2553  0.0800
 5006W        W21853   9.281   3.732  14.739  0.0324 -0.0804  0.0109
 5007W        W21854  14.263  13.627  11.451  0.0902 -0.1718 -0.3175
 5008W        W21855   5.261   9.416   1.633 -0.0518  0.3011 -0.0342
 5009W        W21856  15.401  12.708  14.474 -0.1168 -0.0718  0.1438
 5010W        W21857  11.391   2.901   0.400  0.0149 -0.1782 -0.0392
 5011W        W21858  14.927   2.741   2.692  0.0227 -0.3775  0.0304
 5012W        W21859   5.096   5.181   5.912  0.1520 -0.0839 -0.0458
 5013W        W21860  15.683  12.148   5.265 -0.2267  0.1576  0.4279
 5014W        W21861  16.707   5.458   3.267 -0.0260  0.0965  0.0194
 5015W        W21862   3.270  18.007  13.414  0.0234  0.1445  0.0260
 5016W        W21863  14.418   8.356   2.619 -0.0341  0.1018  0.0973
 5017W        W21864   9.310  16.036  11.770 -0.0461 -0.0127 -0.0241
 5018W        W21865   6.112  10.846   3.079  0.4078 -0.2867 -0.4226
 5019W        W21866   3.860   8.273   1.650 -0.0167 -0.0442 -0.0266
 5020W        W21867   7.821   9.402  12.671  0.1002  0.1739  0.2121
 5021W        W21868   5.713   5.901  14.887 -0.0287 -0.0216 -0.2607
 5022W        W21869   0.041  12.918   3.557 -0.1107 -0.1236 -0.2021
 5023W        W21870   8.453  15.267  10.636  0.3243 -0.0937  0.0282
 5024W        W21871   7.934   5.406  14.391  0.0465 -0.0774 -0.1764
 5025W        W21872   7.215   4.396   4.124  0.0428 -0.0630 -0.0093
 5026W        W21873   4.658  13.930  13.074 -0.1957 -0.2679  0.1506
 5027W        W21874  10.095   4.609  12.757  0.1494  0.3948 -0.2268
 5028W        W21875   3.622   5.143   2.613 -0.0048  0.0314  0.2025
 5029W        W21876  18.834   7.008  12.507 -0.3123  0.3167  0.1868
 5030W        W21877   0.316   4.360   1.387 -0.4117 -0.0727 -0.2899
 5031W        W21878  10.972  12.904  12.442  0.1231  0.0421  0.0971
 5032W        W21879   0.970  15.558   3.852  0.2642  0.1903  0.2366
 5033W        W21880  10.167  10.575  11.189  0.1115 -0.0535  0.2711
 5034W        W21881  15.681   5.846  12.146 -0.2373 -0.1005 -0.1526
 5035W        W21882  11.978   9.920   1.553 -0.1978  0.1378 -0.1719
 5036W        W21883  15.865  11.861   4.728  0.3432  0.2269  0.2708
 5037W        W21884  11.927   8.165  12.640  0.2725  0.1402  0.1437
 5038W        W21885  13.784  12.196   0.194  0.0916 -0.2337 -0.1283
 5039W        W21886   9.384  10.813   1.316 -0.1396  0.2032 -0.0379
 5040W        W21887   4.140  11.839  15.165  0.0744 -0.1695 -0.2244
 5041W        W21888  10.071   4.107   0.214 -0.1646  0.1397 -0.0490
 5042W        W21889  10.591  13.458  12.001  0.2070 -0.2762 -0.1333
 5043W        W21890   3.064   1.630   4.325 -0.0464  0.2383  0.0450
 5044W        W21891  15.809   5.312   3.533  0.1416  0.0108 -0.0524
 5045W        W21892   0.765  10.217  12.085  0.2177  0.1682  0.0311
 5046W        W21893   2.075  18.146   2.821  0.1832  0.0695 -0.1653
 5047W        W21894   1.756   2.467  13.787  0.1372 -0.0353 -0.1378
 5048W        W21895   1.554   3.191  14.323 -0.1105  0.2205  0.0315
 5049W        W21896   7.448   8.091   2.815 -0.3550 -0.2014 -0.2029
 5050W        W21897  14.375  14.988   2.320  0.1340  0.0750 -0.2044
 5051W        W21898  16.340   9.398  14.263  0.1232  0.1069 -0.0204
 5052W        W21899  18.194  13.183   5.260 -0.1834  0.1158  0.1094
 5053W        W21900  10.946   5.440  15.260  0.3161  0.3907  0.1939
 5054W        W21901   0.880   9.481  15.447 -0.0226 -0.2025  0.1227
 5055W        W21902  12.412  12.221   4.171 -0.1740 -0.2826  0.3032
 5056W        W21903   0.229  13.363   0.890  0.1192  0.2419 -0.0979
 5057W        W21904  13.253  18.118   3.439 -0.2152 -0.0380 -0.1305
 5058W        W21905  11.672   4.265   4.665  0.1188  0.1426 -0.3233
 5059W        W21906   8.806  11.921  12.173 -0.4623 -0.0227 -0.3227
 5060W        W21907   5.598   3.044   4.401  0.4942 -0.4134 -0.0925
 5061W        W21908   5.035  10.879   3.364 -0.1219 -0.0061  0.1278
 5062W        W21909  14.435   7.027   0.019 -0.3093  0.1882 -0.1150
 5063W        W21910   0.071   4.633  13.844 -0.1057 -0.0597 -0.1428
 5064W        W21911   8.524   9.533   0.844 -0.2126  0.2390  0.3996
 5065W        W21912   1.392  15.018  15.665 -0.0180 -0.2234  0.0692
 5066W        W21913   0.154   8.646  12.726  0.3352  0.0352 -0.0829
 5067W        W21914   4.530  17.198  15.364 -0.2542 -0.0903  0.4039
 5068W        W21915  13.741   1.276   2.670  0.2158  0.0396 -0.5281
 5069W        W21916   8.992   0.442  11.037  0.0588 -0.0793  0.1045
 5070W        W21917  11.229  17.455  14.140  0.0386 -0.0770 -0.0588
 5071W        W21918   3.726  12.132   2.169  0.0035  0.1455  0.1090
 5072W        W21919  13.985  16.054   2.548 -0.0167  0.1536 -0.2778
 5073W        W21920   9.007  14.712  11.741 -0.1478 -0.1647 -0.1161
 5074W        W21921  12.916  16.901   4.000  0.0953 -0.1896  0.0732
 5075W        W21922  18.489  18.019  12.400 -0.1262 -0.2268 -0.0939
 5076W        W21923  17.290   3.137   6.061  0.0183  0.2635 -0.0836
 5077W        W21924   8.056  15.501  11.889 -0.0430  0.0302  0.2899
 5078W        W21925   4.590  18.842   1.612 -0.0594 -0.0072  0.2911
 5079W        W21926   8.221  17.580   1.828 -0.0630 -0.0204  0.2061
 5080W        W21927  14.769  14.655   2.366 -0.2729  0.1567  0.0120
 5081W        W21928   4.256   9.996   1.717  0.0216 -0.0963 -0.3862
 5082W        W21929   5.483  18.174  15.679 -0.1731 -0.0204  0.1643
 5083W        W21930   9.011  17.282   1.798  0.0619  0.0079  0.0626
 5084W        W21931  18.538   5.436  11.123  0.1100 -0.3545 -0.2758
 5085W        W21932   2.788  17.456  12.221  0.0689  0.1825 -0.1315
 5086W        W21933  13.772   3.152   4.168 -0.2942  0.0232  0.2165
 5087W        W21934   1.888   2.179  13.213  0.1684 -0.0519  0.1829
 5088W        W21935  15.708   6.088   6.353 -0.0895 -0.1838  0.1317
 5089W        W21936  11.476   3.231   1.151 -0.1180  0.0010 -0.3959
 5090W        W21937   8.296   3.027  11.282  0.0533  0.0051 -0.4152
 5091W        W21938  18.271   8.294  11.454  0.1782  0.2506 -0.3428
 5092W        W21939  12.744  12.568   0.488 -0.0407 -0.1881 -0.1278
 5093W        W21940  17.648  11.738   2.503  0.0506 -0.2199 -0.1605
 5094W        W21941  18.729  17.759   3.132  0.0734 -0.0095 -0.4390
 5095W        W21942   6.887  11.233  13.545 -0.0329  0.2136 -0.0043
 5096W        W21943   0.537  10.958   3.316 -0.2173 -0.1752 -0.0254
 5097W        W21944  10.205   1.183  13.407 -0.2418  0.2413 -0.2089
 5098W        W21945  12.221   0.400   4.554  0.0304 -0.2549 -0.1039
 5099W        W21946  16.260  15.535   5.226 -0.0531 -0.2885 -0.2279
 5100W        W21947  11.668  12.684  13.844  0.1378 -0.1648  0.3375
 5101W        W21948   5.494  14.143   1.338 -0.1560 -0.1074  0.0218
 5102W        W21949   0.605   5.341   1.345  0.0150 -0.4115 -0.0262
 5103W        W21950  13.398  18.592  11.476 -0.3014 -0.0089  0.0672
 5104W        W21951  18.247  17.344   2.356 -0.1337 -0.3048  0.2911
 5105W        W21952  14.469  12.753   2.039 -0.4763 -0.1496  0.1541
 5106W        W21953  13.605   0.914   3.177 -0.3788 -0.2737 -0.0208
 5107W        W21954  17.955  10.584  11.440 -0.2457 -0.4279 -0.0651
 5108W        W21955  10.423  12.741  15.234 -0.1469  0.1631 -0.2338
 5109W        W21956   2.860   3.246   0.345 -0.0528 -0.0813 -0.1076
 5110W        W21957  13.055  14.837   3.930 -0.0051  0.2246  0.1587
 5111W        W21958   1.600  17.294   5.409  0.2778  0.1407 -0.0482
 5112W        W21959  14.529   0.277  13.197  0.0212  0.4901 -0.3968
 5113W        W21960   2.543  10.621   1.902  0.0971 -0.1661 -0.1715
 5114W        W21961  10.324  10.356  10.717 -0.6373  0.0574  0.0181
 5115W        W21962  12.366  11.845   0.698 -0.1696 -0.2380 -0.1825
 5116W        W21963  17.921   1.257  14.564  0.3783  0.0455  0.3334
 5117W        W21964  16.507  17.810  13.124  0.0727 -0.2754 -0.0622
 5118W        W21965   8.296  15.114  14.406 -0.0491  0.0210  0.0629
 5119W        W21966   0.956   8.678  13.883  0.2351 -0.0662  0.3456
 5120W        W21967   2.896   0.747  13.681  0.0406 -0.2193 -0.1571
 5121W        W21968  14.387  18.383   2.581 -0.3974 -0.1123  0.2131
 5122W        W21969   3.716  12.527   4.874  0.0835  0.1223  0.3607
 5123W        W21970   3.636   3.122   2.660  0.1395 -0.2395 -0.4196
 5124W        W21971   4.036   2.184  14.201  0.0082 -0.1699 -0.1380
 5125W        W21972   2.520   3.265  11.616 -0.4206 -0.0896 -0.0110
 5126W        W21973  17.096   7.240   1.474  0.1029  0.0301  0.1356
 5127W        W21974   9.796  11.626   4.444 -0.1529 -0.1321  0.1981
 5128W        W21975   9.351  13.637  10.230  0.0045  0.2485  0.2474
 5129W        W21976   1.426   1.601  15.135  0.1709 -0.2623 -0.1176
 5130W        W21977  13.560  12.204   1.387  0.1277  0.0240  0.1427
 5131W        W21978   5.329  10.685   1.399 -0.3660 -0.2014 -0.0066
 5132W        W21979   8.137   5.688  11.742 -0.2294  0.1466  0.0353
 5133W        W21980  18.355  17.924  11.897  0.1271  0.2012  0.1061
 5134W        W21981   3.867  15.976  10.371 -0.0349  0.1491 -0.2655
 5135W        W21982   6.812  11.027   9.812 -0.4026  0.1832 -0.2814
 5136W        W21983  10.151   4.959   3.878 -0.1123 -0.0562  0.2739
 5137W        W21984  12.277  18.376  12.293  0.3574  0.0769 -0.0075
 5138W        W21985   3.496  10.689   0.818  0.3402 -0.1680 -0.0950
 5139W        W21986   1.820  18.237   0.220 -0.2745  0.0429  0.2350
 5140W        W21987  17.465  12.928   2.568  0.3345  0.1166  0.0747
 5141W        W21988  10.578  16.923   2.707  0.0440 -0.3274  0.0760
 5142W        W21989  10.748   7.087   2.017  0.2820  0.3370  0.0525
 5143W        W21990  12.819   2.741   0.791 -0.1366  0.2439 -0.0563
 5144W        W21991   7.543   7.378  13.125 -0.0690  0.1485 -0.1670
 5145W        W21992  16.534   4.688  14.659  0.0391  0.0526 -0.2032
 5146W        W21993  16.186  17.503   3.047  0.0756 -0.1031 -0.0131
 5147W        W21994  17.070   3.011  11.556 -0.1231 -0.0610  0.2331
 5148W        W21995  11.034  13.359  14.071  0.1083  0.5405 -0.4122
 5149W        W21996  18.741   3.329   3.850 -0.3106  0.2310 -0.2195
 5150W        W21997   6.984   4.454   3.179 -0.1293  0.0074 -0.2267
 5151W        W21998  15.144   1.601   0.594  0.2589 -0.1112  0.1288
 5152W        W21999  16.324   9.164   0.829  0.1526 -0.2366 -0.2332
 5153W        W22000  16.908   2.068  13.521  0.1210 -0.2207 -0.3780
 5154W        W22001  12.882  12.287  14.061  0.0171  0.2985  0.3068
 5155W        W22002  10.467  16.620   4.624 -0.1925  0.2212  0.3591
 5156W        W22003  14.823   2.172   5.054  0.1530  0.0242  0.2743
 5157W        W22004  10.593   0.702  10.784  0.0045  0.2361  0.3013
 5158W        W22005   7.143   6.463   0.425  0.0525 -0.1784 -0.0382
 5159W        W22006  15.729   4.512  13.716  0.1723  0.2025  0.1767
 5160W        W22007  14.842   0.820  13.262 -0.1861  0.1002  0.2427
 5161W        W22008  13.679   7.735   1.162  0.1824  0.1449 -0.0479
 5162W        W22009   8.808   4.860  14.459  0.0387 -0.2474  0.0398
 5163W        W22010  15.200   6.457   5.175 -0.2414  0.0872 -0.0340
 5164W        W22011  15.207   5.076   0.323 -0.0069  0.0734 -0.3529
 5165W        W22012  15.638   0.611  13.618 -0.1237  0.1674 -0.0400
 5166W        W22013   0.739   3.419   2.632  0.0286 -0.0212  0.0602
 5167W        W22014  16.136  11.102  13.471 -0.1077  0.0422 -0.1451
 5168W        W22015   8.345  16.307   3.395  0.3360  0.0724 -0.0249
 5169W        W22016   8.013   1.473  15.322  0.3649 -0.0290 -0.3623
 5170W        W22017  11.238   8.408   0.763 -0.1361  0.0388  0.0162
 5171W        W22018   8.948  13.352  10.132  0.1729 -0.1849  0.0655
 5172W        W22019   6.356  17.181  15.689  0.2461  0.0716  0.0317
 5173W        W22020  18.646   3.520   3.379 -0.3143 -0.1625  0.3440
 5174W        W22021   6.223   1.180  12.342  0.1271 -0.0500 -0.2270
 5175W        W22022   6.852   7.512  12.056 -0.0849 -0.1926 -0.2728
 5176W        W22023  11.633   2.982   2.701 -0.3678 -0.0293  0.3631
 5177W        W22024  17.247  17.726   2.432  0.1194  0.1540 -0.3466
 5178W        W22025   1.102  17.521  11.408 -0.0345  0.1141  0.1764
 5179W        W22026  14.458  10.977  12.317  0.4782 -0.1209  0.0202
 5180W        W22027   0.096  15.871  14.096  0.1683  0.0879  0.0562
 5181W        W22028  11.708  10.515  15.408  0.0193 -0.1331 -0.1306
 5182W        W22029   0.661  10.854  15.281  0.0365  0.0519 -0.0749
 5183W        W22030  10.536  11.054  12.632  0.1008  0.1370  0.0411
 5184W        W22031   4.417   4.663  11.973  0.3038  0.1438 -0.1724
 5185W        W22032   5.443   5.524   3.738  0.2904 -0.1008 -0.1863
 5186W        W22033   8.907   2.865  14.221  0.3050  0.1108 -0.2029
 5187W        W22034  16.929   3.795  13.083 -0.0474  0.0681 -0.2341
 5188W        W22035   4.105   8.478   4.540 -0.3626  0.0033 -0.0006
 5189W        W22036   0.140   1.869   3.458 -0.5242 -0.0845 -0.2600
 5190W        W22037   1.827  17.891  14.560  0.1087  0.2184  0.2039
 5191W        W22038  16.281  15.554  11.942  0.0666 -0.0721 -0.2268
 5192W        W22039  13.188   9.496   1.670 -0.0786  0.0957  0.1137
 5193W        W22040  11.528  18.681  13.007 -0.0454  0.1880  0.1047
 5194W        W22041  18.760  17.428   4.764  0.1083 -0.2521 -0.0345
 5195W        W22042   9.935  15.619  14.512 -0.0437 -0.0169  0.1309
 5196W        W22043   4.498   5.942  15.407  0.2766 -0.1498 -0.3185
 5197W        W22044  11.255  17.476  11.986  0.3269  0.1018 -0.0033
 5198W        W22045  10.643   2.465  11.027 -0.2656  0.0896  0.1712
 5199W        W22046  18.000  12.027  11.172  0.1245  0.4352  0.3264
 5200W        W22047   5.539   9.054   5.215 -0.1358  0.3725  0.2169
 5201W        W22048  16.229  12.847  15.537  0.0725 -0.2042 -0.0863
 5202W        W22049  15.629   3.677   2.602 -0.1264  0.1815  0.0318
 5203W        W22050   6.957   8.048  11.902 -0.0571 -0.1714 -0.2572
 5204W        W22051   2.533  13.812  11.298  0.1193 -0.0772 -0.1029
 5205W        W22052  12.353   2.818  11.418  0.2183  0.1907 -0.1983
 5206W        W22053  14.437   1.297   2.803 -0.0988  0.0127 -0.1209
 5207W        W22054   7.393  10.040   1.978 -0.2129  0.1493  0.0656
 5208W        W22055  15.624  14.947  12.117 -0.2349  0.2040 -0.1048
 5209W        W22056  14.429  16.498  11.258  0.2727  0.0724 -0.1791
 5210W        W22057   7.613  16.560  10.277  0.2327 -0.3095  0.0485
 5211W        W22058   1.307   6.718   3.755  0.2639  0.1293  0.2177
 5212W        W22059  18.481  17.859   2.410  0.2730  0.1854 -0.0522
 5213W        W22060  15.403  17.392  12.591 -0.1875  0.1682  0.0877
 5214W        W22061  16.309  16.953  14.974  0.0566 -0.0813  0.0674
 5215W        W22062  15.102   8.569   1.220 -0.0357 -0.1670  0.1201
 5216W        W22063  13.115   7.463  14.511  0.1671 -0.1102  0.1371
 5217W        W22064  10.166   4.381   9.971  0.1113  0.0416 -0.3387
 5218W        W22065  11.663   9.920  10.646 -0.0027  0.1098  0.0051
 5219W        W22066  15.425   9.440  14.234 -0.1599 -0.1431  0.0247
 5220W        W22067   9.403  18.251  15.271 -0.1515  0.1069 -0.2284
 5221W        W22068   4.984  12.242   2.809 -0.1423 -0.2102 -0.0676
 5222W        W22069   3.843   1.645   1.125  0.2474 -0.1505 -0.2236
 5223W        W22070  17.600   6.456   6.179 -0.0855 -0.1403  0.1509
 5224W        W22071   2.743  12.686  15.133 -0.2138 -0.0842  0.1523
 5225W        W22072  17.890   2.457   4.193 -0.0435 -0.1139 -0.0710
 5226W        W22073  13.764   9.888  13.817 -0.4412 -0.0453 -0.0478
 5227W        W22074  15.416   2.631  15.699  0.1218  0.3918  0.0790
 5228W        W22075  17.322  10.676  12.763  0.2685 -0.0538 -0.2170
 5229W        W22076   3.315  14.989   4.579 -0.2235 -0.1603  0.1864
 5230W        W22077   6.808  10.295  12.630 -0.0415  0.2164  0.0836
 5231W        W22078   2.087   2.684  15.063 -0.0626 -0.0099 -0.2019
 5232W        W22079  17.503   0.542  15.011 -0.1527 -0.3328 -0.1988
 5233W        W22080   1.818  11.867  14.197 -0.2777  0.1165  0.0987
 5234W        W22081   1.418   5.403   0.282  0.2204  0.0245  0.1152
 5235W        W22082  18.053   6.126   6.278  0.1531 -0.2815  0.0969
 5236W        W22083  11.297  14.660  11.834  0.0827  0.0442  0.0124
 5237W        W22084  15.325  13.681   1.594 -0.0355  0.1451  0.2467
 5238W        W22085   3.017  13.366  12.717  0.2099  0.2466 -0.1353
 5239W        W22086   0.319   3.961   4.363 -0.1649  0.0799 -0.3348
 5240W        W22087   6.636  11.363   4.476 -0.1682  0.1636 -0.0072
 5241W        W22088   2.494  18.154   0.452  0.3778  0.0950 -0.0821
 5242W        W22089   3.677  14.108   1.948 -0.2540 -0.1960  0.1975
 5243W        W22090   2.872  16.412   0.876  0.1097  0.0502  0.3415
 5244W        W22091  18.353   8.486  11.893 -0.2581  0.1243 -0.1816
 5245W        W22092  12.192   4.706  10.883 -0.0932 -0.0316  0.0513
 5246W        W22093   0.126   5.852  11.826 -0.0114 -0.0856 -0.2253
 5247W        W22094   5.499  14.162  13.220 -0.0446 -0.1012 -0.3289
 5248W        W22095  12.056  11.883  13.703 -0.1976 -0.2792  0.0054
 5249W        W22096   0.971   0.775  15.076 -0.1419 -0.3418 -0.0653
 5250W        W22097  11.449  10.856   0.419  0.0264 -0.3432  0.0530
 5251W        W22098  15.568   6.078   4.011 -0.0352  0.0202 -0.1055
 5252W        W22099   9.052  17.259  13.305 -0.3061 -0.0659 -0.0386
 5253W        W22100  10.444   7.680   0.532 -0.0485 -0.0009  0.0634
 5254W        W22101   7.422  11.651   4.019 -0.4752 -0.3228 -0.0572
 5255W        W22102  15.461   7.988   1.040 -0.4384 -0.1047 -0.5276
 5256W        W22103  15.271   9.502  15.481 -0.0273 -0.0740 -0.0335
 5257W        W22104   2.753  11.466  13.879  0.0362  0.2124 -0.4110
 5258W        W22105   3.265   8.741   4.589 -0.0799 -0.0732 -0.0994
 5259W        W22106   2.311   5.445  14.929 -0.1325  0.1015  0.1750
 5260W        W22107  11.630   5.237  13.994 -0.1495  0.1317 -0.1350
 5261W        W22108  15.894   3.901   3.079 -0.2879 -0.1101  0.3361
 5262W        W22109  14.623   7.533  13.607 -0.4370  0.0189  0.1640
 5263W        W22110   8.099  17.593  13.445 -0.0496  0.1893  0.0263
 5264W        W22111   2.703   9.763   2.768  0.3309 -0.0806  0.0268
 5265W        W22112  15.718   5.255  12.918 -0.2940  0.0758  0.0930
 5266W        W22113   7.572   7.486  12.604  0.0158 -0.2353  0.1753
 5267W        W22114   8.013  11.267  10.202  0.0158  0.3841 -0.0267
 5268W        W22115  18.462  17.343   5.279 -0.1326  0.3420 -0.0422
 5269W        W22116   7.676  16.509  12.710  0.1051  0.0418 -0.2621
 5270W        W22117  17.890  15.375  11.251  0.1340  0.0520  0.0488
 5271W        W22118  17.585   3.080  11.283 -0.1420 -0.0532 -0.1817
 5272W        W22119  10.669   4.147  15.415 -0.5102  0.1553  0.0002
 5273W        W22120   0.488   9.774  15.624  0.1434  0.4378 -0.1383
 5274W        W22121  12.504   5.081   0.427 -0.0171 -0.1738  0.0599
 5275W        W22122   8.668   5.254  14.775 -0.0980  0.3381  0.0520
 5276W        W22123  14.240  11.348  15.620 -0.1032 -0.0622 -0.0002
 5277W        W22124   3.584   7.974  14.294 -0.2723 -0.0664  0.0596
 5278W        W22125   8.885  14.765  15.603 -0.1293  0.0320 -0.1685
 5279W        W22126  14.454  11.648  15.296 -0.1735  0.1576  0.1777
 5280W        W22127   5.165  11.344  13.122  0.0548  0.0750 -0.1974
 5281W        W22128  16.106  13.547  11.613  0.0788  0.0180 -0.5881
 5282W        W22129  10.135  13.073   3.128 -0.0179 -0.0385 -0.0454
 5283W        W22130   1.571   5.490   1.715 -0.1554 -0.1172  0.0234
 5284W        W22131   1.729  18.742  12.384 -0.1242 -0.0757  0.2420
 5285W        W22132  14.673   5.513   2.962  0.2590  0.1937 -0.5754
 5286W        W22133   5.754  13.396  12.896  0.0432  0.1369  0.2969
 5287W        W22134   5.917  17.504  11.175  0.2290 -0.1380 -0.0467
 5288W        W22135  17.709   1.359   4.251  0.2392  0.1276  0.6047
 5289W        W22136   4.218   9.172  12.876  0.0155 -0.1072  0.1809
 5290W        W22137  11.342   8.716   1.749 -0.1239 -0.4611  0.1897
 5291W        W22138  18.095  16.507  14.975  0.0313  0.2384 -0.0860
 5292W        W22139   6.673   3.570   0.495 -0.3502 -0.0505  0.1035
 5293W        W22140  15.259  17.204  14.771  0.3655  0.3196  0.0535
 5294W        W22141  15.078  11.971  13.098  0.1395 -0.3290 -0.1080
 5295W        W22142   1.666  10.156   2.532  0.1177 -0.0023  0.4300
 5296W        W22143  15.319   0.988  13.546  0.0547 -0.3544  0.4427
 5297W        W22144   5.753   8.547   2.110  0.1786  0.0613  0.0638
 5298W        W22145  10.786   4.011  11.140  0.2243 -0.0188  0.1192
 5299W        W22146   0.038   6.840   5.158  0.1718 -0.1606 -0.1709
 5300W        W22147  12.212  15.152   1.231  0.2098 -0.0916 -0.2066
 5301W        W22148   9.159   2.748   4.028  0.1197 -0.1152 -0.0675
 5302W        W22149   2.648   1.740   1.077  0.1555 -0.1372 -0.0767
 5303W        W22150  16.343   6.524   1.465 -0.1114  0.1982  0.0914
 5304W        W22151  14.502  13.704  13.221  0.1396  0.0667  0.0808
 5305W        W22152  15.909   2.038   0.956 -0.1797 -0.2195 -0.2754
 5306W        W22153   5.024   5.850   4.235 -0.0978 -0.2451 -0.1504
 5307W        W22154  11.754   5.316   1.983  0.3355 -0.1363 -0.1332
 5308W        W22155   4.940  12.143  15.562  0.1324 -0.0497 -0.1564
 5309W        W22156  11.790   6.496   1.912  0.0908  0.1054 -0.1913
 5310W        W22157  17.108   3.404   2.981  0.0546  0.2955  0.1003
 5311W        W22158  15.388   9.976  15.173  0.0858  0.0738 -0.1664
 5312W        W22159   6.076  14.232  13.075  0.2362  0.0457  0.1347
 5313W        W22160  17.431   4.055  12.823  0.1355  0.1080 -0.0816
 5314W        W22161   2.471  14.722  11.345  0.0863 -0.0354  0.1622
 5315W        W22162  14.834   3.110  13.205 -0.1395 -0.5104  0.1861
 5316W        W22163   0.064  12.510   3.219  0.1108  0.3288  0.2759
 5317W        W22164   6.750   9.981  13.655  0.2966 -0.1361 -0.3044
 5318W        W22165  10.364   1.590   1.403  0.0079  0.0166  0.1935
 5319W        W22166  12.231  12.163  11.138 -0.0805 -0.2840  0.0401
 5320W        W22167   7.490   9.794   4.969 -0.0787 -0.1758 -0.1160
 5321W        W22168   6.507   1.345   0.826  0.0667 -0.1640  0.1559
 5322W        W22169   7.437  13.761  12.420  0.2187  0.0418  0.1572
 5323W        W22170  13.481   2.052   5.749  0.2677 -0.1913  0.2606
 5324W        W22171   9.535   1.629  15.409 -0.0789  0.0773  0.0632
 5325W        W22172  12.092   5.143   2.949  0.2190 -0.1340 -0.0382
 5326W        W22173   0.674  11.211  14.436  0.1176 -0.2047 -0.1034
 5327W        W22174   5.861  13.891   2.400 -0.1862  0.0921 -0.0468
 5328W        W22175   9.967   1.713   3.378 -0.0083 -0.4315  0.4387
 5329W        W22176  10.651  16.851   0.650 -0.0965  0.0743  0.1818
 5330W        W22177   0.280   5.781   1.126 -0.1804 -0.1313 -0.0471
 5331W        W22178  10.365   4.082   5.062  0.1130 -0.1168  0.0072
 5332W        W22179   8.847   2.126  13.461  0.0450 -0.1299 -0.0864
 5333W        W22180   6.430   9.684   0.904  0.0343  0.1274 -0.5065
 5334W        W22181   8.843  18.162  15.298 -0.5570  0.0386 -0.1324
 5335W        W22182  13.812   3.964   0.525 -0.0297  0.2281 -0.1578
 5336W        W22183   2.198   0.351  11.001  0.1107 -0.1461  0.0285
 5337W        W22184   7.342  17.998  13.127  0.1473 -0.3494 -0.4030
 5338W        W22185   8.436  16.657   2.967  0.3939 -0.0162 -0.0415
 5339W        W22186  16.880   4.329   5.079 -0.0288  0.0281  0.1507
 5340W        W22187   3.921   8.337  11.759 -0.1095  0.3852  0.1589
 5341W        W22188  17.720  10.963  13.723  0.3308 -0.4151  0.0330
 5342W        W22189  14.691  13.721  11.246  0.1410 -0.2105  0.0967
 5343W        W22190   0.492  18.363   1.533 -0.2162  0.1172  0.2154
 5344W        W22191   0.318   9.414   5.502 -0.1007 -0.1144  0.1958
 5345W        W22192  15.997  10.150   1.143  0.1017  0.1325  0.1419
 5346W        W22193  14.830   6.612   2.865 -0.1276 -0.1359 -0.0570
 5347W        W22194   1.571   1.304  14.140 -0.0701  0.0370  0.0628
 5348W        W22195   5.578  15.770  15.586  0.1958 -0.1402  0.0253
 5349W        W22196   7.387   9.401  15.317 -0.1984 -0.0319  0.0664
 5350W        W22197  18.704   0.678   2.983 -0.0354  0.4063  0.2149
 5351W        W22198   4.331  11.521   1.130 -0.1594  0.3106  0.3026
 5352W        W22199  10.013   9.501   4.946  0.0071  0.0611  0.3730
 5353W        W22200  14.580   5.118   4.727 -0.1531  0.0766 -0.0671
 5354W        W22201  13.624   1.610  12.358  0.1867 -0.4110 -0.2366
 5355W        W22202   8.850   4.480   2.161  0.1776  0.1624 -0.0038
 5356W        W22203   2.505  16.850  14.555  0.2379 -0.3171 -0.1565
 5357W        W22204   4.029  13.348  12.749 -0.1399  0.2390 -0.3852
 5358W        W22205  18.328   0.543  14.147  0.0467 -0.2533  0.1661
 5359W        W22206   6.749  18.856   3.796 -0.1218 -0.1831  0.0832
 5360W        W22207   0.381  10.799  12.788  0.0357 -0.1337 -0.0846
 5361W        W22208   7.753   4.515  12.502 -0.0566  0.2329 -0.0736
 5362W        W22209   2.729   0.579  11.375 -0.0079  0.0195 -0.1050
 5363W        W22210  10.060  13.575  15.117 -0.1059 -0.0766  0.2069
 5364W        W22211  13.376  12.529   0.238 -0.1314 -0.0828 -0.2210
 5365W        W22212   8.883   5.323  14.315  0.0506  0.4955  0.1496
 5366W        W22213   9.614   1.810   0.263  0.2387 -0.2607  0.1543
 5367W        W22214   6.736  15.462   4.491  0.0377  0.0018 -0.0043
 5368W        W22215  11.279  15.449   2.882  0.1589 -0.0382  0.1574
 5369W        W22216   6.223   2.241   3.770  0.0361  0.5153  0.1905
 5370W        W22217   3.642   4.170   4.386 -0.0307  0.1849 -0.1902
 5371W        W22218  13.777   0.011  11.785  0.1593 -0.0553 -0.2262
 5372W        W22219  11.659  12.622   4.344 -0.1538  0.1450  0.1195
 5373W        W22220   4.038  14.835  12.928  0.0697  0.0686  0.0814
 5374W        W22221  12.768   3.198   4.892  0.2033  0.1706 -0.3223
 5375W        W22222   6.503   6.197   2.407 -0.1768 -0.2268  0.3698
 5376W        W22223   6.881   5.242  15.079 -0.1897 -0.1335  0.0787
 5377W        W22224   3.266  18.524  13.267 -0.1693 -0.2759  0.0160
 5378W        W22225   2.256  17.899   1.145 -0.0531 -0.2271 -0.0366
 5379W        W22226   6.827   3.843   1.303  0.1795 -0.2489  0.2929
 5380W        W22227  12.749   3.180   1.382 -0.0622  0.1636  0.0248
 5381W        W22228  12.614   7.561   0.893 -0.0007  0.0529 -0.1757
 5382W        W22229  12.910  17.040   0.225 -0.2789  0.0608  0.4629
 5383W        W22230   6.181  15.504   1.699  0.1057  0.0075  0.1234
 5384W        W22231   1.343  18.776  12.042 -0.1321  0.0626 -0.1326
 5385W        W22232   6.918   5.727   2.464  0.3281 -0.0370 -0.2913
 5386W        W22233   9.624  12.860  13.265  0.2152 -0.1000  0.2248
 5387W        W22234  12.455  12.211  15.509  0.1890 -0.3077 -0.1258
 5388W        W22235   9.275  17.070  12.874 -0.0678  0.0649 -0.0294
 5389W        W22236  17.882   1.126   4.940  0.1437  0.0944 -0.0649
 5390W        W22237   9.207  18.532  11.713  0.1332  0.0696 -0.0860
 5391W        W22238   2.245   3.486  15.682 -0.1413 -0.1642  0.2101
 5392W        W22239   4.377  11.777  13.491 -0.0253  0.1167  0.0854
 5393W        W22240   8.440  16.861  13.235 -0.2370  0.2548  0.2916
 5394W        W22241   5.635  11.300   2.041 -0.1350 -0.1361  0.1043
 5395W        W22242   3.771   6.678   5.426  0.1536  0.2408  0.0118
 5396W        W22243  11.663   1.011   3.228 -0.3884  0.0041  0.1990
 5397W        W22244   1.939  13.681   0.511 -0.0637  0.1891  0.1722
 5398W        W22245   6.767   7.396   2.405  0.0026  0.0230  0.0416
 5399W        W22246   4.234  12.059   3.305  0.0971  0.3457 -0.0893
 5400W        W22247   4.037  16.051  14.978  0.1620 -0.3209  0.1813
 5401W        W22248   0.038   2.331  14.474  0.1693  0.0430  0.0284
 5402W        W22249  15.534  13.382   3.349 -0.0084 -0.0590  0.2377
 5403W        W22250   5.156   7.127  15.462  0.1677  0.0526  0.0003
 5404W        W22251   0.034   5.635  14.244  0.2919  0.1038  0.0899
 5405W        W22252  11.966  12.263  14.102  0.0644 -0.2052  0.2610
 5406W        W22253   2.040  14.176  10.820 -0.3694  0.2188  0.1734
 5407W        W22254   7.057   4.117  14.405 -0.6780 -0.0404 -0.1458
 5408W        W22255  13.270   8.542   3.211 -0.0599 -0.0501  0.2047
 5409W        W22256   4.507   3.025  14.341  0.1248  0.1076  0.2648
 5410W        W22257  14.134  15.926  12.427 -0.1227 -0.2528  0.2313
 5411W        W22258  15.160   0.512   5.340  0.0234  0.0014  0.0267
 5412W        W22259   7.877  13.616   3.064  0.2350  0.2882  0.0998
 5413W        W22260  18.345   7.933  11.790 -0.1643  0.0765 -0.0564
 5414W        W22261   4.959  16.397  15.650  0.0944  0.0405  0.2213
 5415W        W22262  14.417   0.754  10.921 -0.1075  0.0797 -0.4161
 5416W        W22263  14.628   5.379   0.983 -0.0039 -0.0658 -0.0277
 5417W        W22264   6.641   6.666   5.256 -0.1868  0.0000 -0.2182
 5418W        W22265  10.207  10.120   0.846 -0.2113 -0.1106 -0.1418
 5419W        W22266   1.234   0.466  12.221  0.0786 -0.2680  0.1782
 5420W        W22267  11.597  10.668   0.901 -0.0209 -0.2329 -0.2610
 5421W        W22268   4.488  18.122  11.929  0.0731 -0.2286  0.3703
 5422W        W22269   3.464  16.713   4.852 -0.2285 -0.3748 -0.2039
 5423W        W22270  11.991   0.392   4.159  0.1013 -0.1041  0.0339
 5424W        W22271   6.917  15.987   3.654  0.1109 -0.1685 -0.1526
 5425W        W22272  16.438   7.559   3.874 -0.0322 -0.2002 -0.1197
 5426W        W22273   9.988  14.637  11.308 -0.1750 -0.3281 -0.3982
 5427W        W22274   8.490  12.512   2.249 -0.2577  0.1891  0.1091
 5428W        W22275  14.892  15.400   5.205 -0.0106  0.1047 -0.2848
 5429W        W22276  16.956   5.741   4.824 -0.0200 -0.1689 -0.2604
 5430W        W22277   7.841   4.148  12.972  0.0222  0.0313  0.2536
 5431W        W22278   3.317  16.096   1.096  0.2442  0.2870  0.0606
 5432W        W22279  13.106  16.450  11.634 -0.1691  0.0070  0.4318
 5433W        W22280   2.826   8.471   1.949  0.2849 -0.0417 -0.2583
 5434W        W22281   1.710   1.790  12.254 -0.0007  0.1942 -0.0157
 5435W        W22282  16.933   6.281  15.198 -0.0566 -0.2008  0.1695
 5436W        W22283  14.798  10.081  12.339 -0.0072  0.1997  0.0843
 5437W        W22284  16.829   7.116   4.446 -0.0586  0.0237 -0.1513
 5438W        W22285  11.582  12.570  15.513 -0.0422 -0.2087  0.2484
 5439W        W22286  15.083   8.879  14.318 -0.2466 -0.0631 -0.0752
 5440W        W22287   8.527  15.638  11.082 -0.3414 -0.2868  0.2959
 5441W        W22288   7.798  12.839   0.472  0.0310  0.1515  0.1742
 5442W        W22289  11.345  16.144  12.038 -0.4458  0.0131 -0.2400
 5443W        W22290   6.980  12.132   0.885 -0.3124 -0.0251 -0.2065
 5444W        W22291   7.334  17.067   4.004  0.1005 -0.2029  0.5056
 5445W        W22292  12.124   7.381  15.646  0.4538  0.2338  0.3253
 5446W        W22293  12.134   5.579   2.130  0.0125  0.1566  0.0388
 5447W        W22294   7.193  14.585  14.486 -0.1678  0.3615  0.1334
 5448W        W22295   7.954   1.597  13.841 -0.1107  0.1095  0.0518
 5449W        W22296  14.541  16.669   4.539  0.0148 -0.0341  0.3223
 5450W        W22297   2.181   8.098   1.196 -0.1142 -0.0009 -0.0770
 5451W        W22298   7.708  17.189  11.559 -0.0255 -0.0266 -0.0641
 5452W        W22299   6.994  15.200   0.710 -0.0014  0.0998 -0.2870
 5453W        W22300  12.374   1.712  10.957 -0.1253 -0.0948  0.1434
 5454W        W22301   3.457  16.102  11.802 -0.0631  0.2758  0.1195
 5455W        W22302   4.988  16.493  13.169 -0.1179 -0.3205  0.0126
 5456W        W22303  13.391   0.964   4.441 -0.2538  0.2347  0.0602
 5457W        W22304  15.147   5.720   3.224  0.2116  0.0756 -0.2212
 5458W        W22305   1.213  10.645   4.295  0.0959 -0.2637 -0.0824
 5459W        W22306   7.911   4.338   5.463 -0.1487 -0.0421  0.0566
 5460W        W22307   0.602   0.150  11.072 -0.3037  0.0790  0.2461
 5461W        W22308   0.916  13.818   4.484 -0.0634  0.0333  0.2571
 5462W        W22309   1.699  11.520  11.159  0.0661  0.1805 -0.0352
 5463W        W22310   7.304   4.876  15.530 -0.0033  0.3604  0.2243
 5464W        W22311  11.336  10.742   3.727  0.0002 -0.0352 -0.1687
 5465W        W22312   2.532  15.705   1.551  0.1625  0.1211 -0.0902
 5466W        W22313  15.638   7.780   6.332 -0.1109 -0.2228 -0.1368
 5467W        W22314   7.066   2.407   1.082  0.2431  0.3442  0.2939
 5468W        W22315   7.521  17.163   0.660 -0.0745 -0.0762  0.1297
 5469W        W22316   9.147   0.269   3.014  0.3194  0.0512  0.3432
 5470W        W22317  18.157   5.411   0.866 -0.0902  0.2739  0.1068
 5471W        W22318  10.128   2.617  11.286 -0.0639 -0.0280 -0.0289
 5472W        W22319  14.135   8.622  12.581 -0.0537 -0.0252 -0.0099
 5473W        W22320  12.561  12.715   4.211  0.2797  0.1084  0.4205
 5474W        W22321  11.393   7.675  14.863  0.0018  0.1250 -0.0403
 5475W        W22322  12.718   2.800  15.739  0.0982 -0.2749 -0.3139
 5476W        W22323  17.930  16.607  11.633  0.0154 -0.1465  0.0958
 5477W        W22324  14.246   5.808   3.062  0.2750  0.3453  0.1007
 5478W        W22325   4.712   1.279  10.463  0.0777  0.2066  0.0720
 5479W        W22326  11.969  11.368  15.026  0.0500  0.0475 -0.1994
 5480W        W22327  12.314   0.053   2.800  0.0920 -0.0186 -0.2833
 5481W        W22328  14.109   2.798   2.650 -0.2586  0.0957 -0.0069
 5482W        W22329  10.090  13.405   2.220  0.1718 -0.2046  0.0610
 5483W        W22330  11.332   5.745   5.121 -0.1230 -0.1311  0.2146
 5484W        W22331   6.537   5.358   4.819 -0.1905  0.0914 -0.0055
 5485W        W22332  14.329   3.469   0.972 -0.0728 -0.1478  0.3268
 5486W        W22333   5.725   0.954   3.257  0.0630  0.1696 -0.1097
 5487W        W22334   0.978   0.825  13.062  0.0503 -0.1625  0.1290
 5488W        W22335   5.991   3.812  11.720  0.2393 -0.1710 -0.0491
 5489W        W22336  11.601   7.710  12.352  0.0061 -0.1595  0.1634
 5490W        W22337   9.263   8.182   3.820 -0.1100  0.0917  0.1079
 5491W        W22338  11.683  12.346  11.178 -0.1229 -0.0972  0.3205
 5492W        W22339   6.570   7.674   3.870 -0.0459 -0.0655  0.3701
 5493W        W22340   4.179   0.335  15.663  0.2769  0.1202 -0.1324
 5494W        W22341  15.553   4.943   0.777  0.0311  0.1688  0.1033
 5495W        W22342  11.380  14.683  10.876  0.0388 -0.1318 -0.0823
 5496W        W22343   7.098   7.780   2.591  0.1552  0.3386  0.3055
 5497W        W22344   6.275   4.315   2.305 -0.0813  0.1472  0.2302
 5498W        W22345   6.461  17.081  13.964 -0.0283  0.2976 -0.0889
 5499W        W22346   4.204   4.790  14.098  0.2317 -0.2134 -0.2346
 5500W        W22347   8.609  18.790  15.725  0.1096 -0.3031 -0.3155
 5501W        W22348   5.892   4.017   5.427 -0.1645  0.1225  0.2249
 5502W        W22349  14.756  18.448  10.910 -0.0196  0.1931 -0.1794
 5503W        W22350   4.794   3.338   4.992  0.2041  0.4750  0.1484
 5504W        W22351  10.857   4.109   5.035 -0.0206 -0.0896  0.0998
 5505W        W22352  17.947   3.989   0.785  0.1421  0.0108 -0.0947
 5506W        W22353   0.923   8.117  12.466  0.0370 -0.0470 -0.1079
 5507W        W22354  11.790  11.487  10.949 -0.0470  0.0372  0.1896
 5508W        W22355   2.172   8.336  12.789  0.0139  0.0074  0.2608
 5509W        W22356  14.164  16.927  12.694  0.0135  0.2222 -0.1400
 5510W        W22357  15.123  18.647   0.352  0.2823 -0.1463  0.3070
 5511W        W22358   4.871  14.521  15.265 -0.1659  0.0434  0.1311
 5512W        W22359   4.761   9.843   2.809  0.1998 -0.1963 -0.0393
 5513W        W22360   4.045  16.823  13.591  0.0470 -0.1873 -0.0728
 5514W        W22361  15.293  10.039  15.682 -0.3352 -0.0314  0.0733
 5515W        W22362  17.484  13.152   1.206  0.0395  0.0824 -0.2572
 5516W        W22363   4.529   2.352   0.787 -0.2279  0.0065  0.2558
 5517W        W22364   3.876  12.820   1.439  0.3784 -0.2197 -0.2086
 5518W        W22365   4.829   8.902   1.200 -0.1111  0.1720 -0.0651
 5519W        W22366  13.054  10.260  11.867  0.1268  0.0917  0.2539
 5520W        W22367   0.863   7.350   2.416 -0.0729  0.1614 -0.1372
 5521W        W22368   1.019   7.572  14.643  0.0985  0.0544 -0.1041
 5522W        W22369   9.671   7.799  11.300  0.2256  0.2899 -0.0764
 5523W        W22370  16.864  14.895   4.774  0.3947  0.1142 -0.1858
 5524W        W22371  13.672  13.895  12.062 -0.0682  0.2649 -0.0390
 5525W        W22372  12.373   4.463  11.939  0.2759  0.1267 -0.0458
 5526W        W22373  17.735   1.896   2.041 -0.3427 -0.0046 -0.0229
 5527W        W22374  12.471  13.982   2.936 -0.1750 -0.0923  0.0705
 5528W        W22375  18.724  10.353  14.432  0.1621  0.2176  0.0844
 5529W        W22376  11.320   9.585   4.588 -0.0400  0.2194  0.2748
 5530W        W22377   2.557  17.796  15.354 -0.2150 -0.1569 -0.3106
 5531W        W22378  15.838   7.401   3.589 -0.2270  0.1347 -0.3903
 5532W        W22379   2.981   3.691  11.186 -0.3311 -0.0061 -0.0349
 5533W        W22380   6.831   1.048  15.360  0.1096 -0.3659  0.2093
 5534W        W22381  14.073   2.683   0.197  0.0154  0.0244 -0.0547
 5535W        W22382   5.264  14.891   0.328 -0.0339  0.0547  0.0762
 5536W        W22383   7.007   1.376   0.877  0.0085 -0.3510  0.1663
 5537W        W22384  14.054  16.413  14.880  0.1672 -0.3508  0.0527
 5538W        W22385  12.462  13.759  12.521  0.1263  0.1441 -0.2459
 5539W        W22386   9.737   1.673   2.857 -0.2819 -0.2307  0.1404
 5540W        W22387   2.415  16.173  13.917  0.2766 -0.1430 -0.0679
 5541W        W22388   1.901   7.061   5.121 -0.5031  0.2371 -0.1808
 5542W        W22389   3.074   2.794   1.052 -0.2713  0.2127 -0.3180
 5543W        W22390  11.940   4.657   3.144  0.1912  0.3440 -0.4029
 5544W        W22391   1.203  18.854  12.564 -0.1240  0.0550  0.0526
 5545W        W22392   5.372  13.028  14.280 -0.1697 -0.2800 -0.0162
 5546W        W22393   2.898   5.146   4.165  0.1162  0.3295 -0.0528
 5547W        W22394  10.191  15.561  12.492 -0.2201 -0.0289 -0.2000
 5548W        W22395   0.695   5.643   4.497  0.1171  0.1667  0.1194
 5549W        W22396  18.197  17.771   3.375 -0.0268  0.1519  0.1266
 5550W        W22397  18.587   3.771   3.882 -0.2082  0.1049  0.1288
 5551W        W22398  10.272   5.834   1.242 -0.1257 -0.3829 -0.0136
 5552W        W22399   1.525   9.258   4.345  0.0207 -0.1932  0.0394
 5553W        W22400   5.152   3.127   3.393 -0.1716 -0.0743  0.1450
 5554W        W22401  10.887  11.454  13.322 -0.1493  0.1635 -0.1021
 5555W        W22402   6.795   1.037  12.152 -0.2685 -0.1083 -0.2245
 5556W        W22403  16.697   9.952   2.200 -0.0106 -0.0828 -0.2732
 5557W        W22404   9.188   2.151  13.956  0.3420 -0.1829 -0.0725
 5558W        W22405   9.035   8.855  10.826  0.0634 -0.3010  0.2367
 5559W        W22406   1.168  11.204   2.169  0.1070  0.2292 -0.1590
 5560W        W22407  17.745  16.121  14.914 -0.1724 -0.3036 -0.0443
 5561W        W22408   5.190  11.543  14.911  0.0694  0.0193  0.1039
 5562W        W22409  17.911  14.295  15.285 -0.0151  0.2142  0.1911
 5563W        W22410   0.326  16.821  12.424  0.1076  0.1846 -0.2455
 5564W        W22411   9.276  13.690  14.515 -0.0712  0.0776  0.0503
 5565W        W22412   6.033  13.342   3.755  0.4287 -0.0295 -0.1943
 5566W        W22413   2.640   7.700  11.557 -0.2570  0.0177 -0.3025
 5567W        W22414   1.227   7.298   2.708  0.0508 -0.3322 -0.4651
 5568W        W22415   0.513   0.402  15.316 -0.1565  0.0313 -0.2223
 5569W        W22416   4.844   9.097  14.296 -0.1394  0.2070  0.2244
 5570W        W22417   3.774   8.868  13.681 -0.2091  0.0986  0.2255
 5571W        W22418   6.632   1.762  15.770 -0.0462 -0.1745 -0.2704
 5572W        W22419   7.067   5.760  15.062 -0.0973 -0.3927 -0.1868
 5573W        W22420  10.251   7.039  14.432 -0.3474 -0.2136  0.0760
 5574W        W22421  11.295   8.572  13.498 -0.2017 -0.2413  0.2673
 5575W        W22422  16.536   5.110  13.753 -0.0437 -0.0566  0.1732
 5576W        W22423   1.899  11.500  13.376  0.0433 -0.2013 -0.3782
 5577W        W22424   2.059   6.780   4.370  0.0040 -0.2403  0.3939
 5578W        W22425  14.670  13.226  12.603  0.0971  0.1879 -0.1616
 5579W        W22426  13.949  10.637   5.057 -0.1991 -0.2326 -0.0337
 5580W        W22427  12.931   5.380  14.980 -0.0545 -0.2734 -0.0161
 5581W        W22428  15.422   0.334  11.839  0.0860 -0.0097 -0.0372
 5582W        W22429   6.831  12.189  13.050  0.0741 -0.3327  0.1577
 5583W        W22430  11.790  10.310  13.164  0.0337 -0.1514  0.3464
 5584W        W22431  12.774   4.551   4.104  0.4593 -0.2986  0.2065
 5585W        W22432  16.765   8.657  13.498 -0.0091 -0.1018 -0.0374
 5586W        W22433  17.437   1.590  11.489 -0.0878  0.1670 -0.3241
 5587W        W22434   1.605  12.377   0.058  0.1975 -0.0614  0.1368
 5588W        W22435   0.165  18.145   5.094  0.1117  0.0007  0.0733
 5589W        W22436   9.601   6.468  13.398  0.2377  0.0578  0.1842
 5590W        W22437   1.830   8.514   2.293 -0.0014  0.3266 -0.1603
 5591W        W22438   7.589   8.791   3.890 -0.0099  0.1645  0.1680
 5592W        W22439   7.779  16.299  15.497  0.1392 -0.4201  0.0483
 5593W        W22440  17.098  16.846   4.250  0.1574 -0.0127 -0.0827
 5594W        W22441  12.169  13.318   5.334  0.0965  0.0280  0.0108
 5595W        W22442   8.155   4.149  11.058  0.2553 -0.0307  0.1308
 5596W        W22443  12.445   6.804   3.580  0.1633 -0.0409  0.2426
 5597W        W22444   8.943  10.332  12.239 -0.4259  0.0142  0.1611
 5598W        W22445   7.803  11.851   0.749  0.0347 -0.0822  0.3020
 5599W        W22446  10.941   9.482  11.044 -0.2800 -0.1879  0.0492
 5600W        W22447   6.047   8.451  14.716  0.0805 -0.0290 -0.0492
 5601W        W22448  18.478  11.200   2.928 -0.2141  0.1307  0.0731
 5602W        W22449   8.462  11.506  15.327  0.1574  0.1619 -0.0295
 5603W        W22450  18.488   5.205   5.054 -0.1165 -0.0423 -0.2272
 5604W        W22451   2.304   0.196   0.382 -0.3154  0.0780  0.0282
 5605W        W22452   6.440   7.468  11.150 -0.1454 -0.2446  0.1578
 5606W        W22453  17.012  13.423  14.690 -0.2396 -0.1010 -0.3891
 5607W        W22454  10.355  15.628  10.883 -0.4475  0.2629 -0.0622
 5608W        W22455  17.997  17.435  13.635 -0.3877  0.0414 -0.1287
 5609W        W22456  14.571  14.310   3.329 -0.1375 -0.0579  0.0594
 5610W        W22457  13.907   7.132   0.036 -0.1127  0.2521 -0.0166
 5611W        W22458   1.483   8.774  13.192 -0.1713  0.1066  0.1337
 5612W        W22459  10.310  16.084   1.678  0.1258  0.3017 -0.1674
 5613W        W22460   6.942   1.536  15.355 -0.1334 -0.0015  0.2051
 5614W        W22461   4.566   6.665   0.814 -0.0413  0.1441  0.1276
 5615W        W22462   1.321  15.185   0.867 -0.1217 -0.2097 -0.0905
 5616W        W22463  14.565   6.730   0.405  0.3361 -0.0272  0.2257
 5617W        W22464  14.154  10.655  14.838 -0.0406 -0.1228  0.3793
 5618W        W22465   1.186   9.261  15.066 -0.0038 -0.2727  0.0403
 5619W        W22466  16.321  11.300  12.653  0.3251  0.1565 -0.1220
 5620W        W22467   5.250  10.654   2.863  0.0545 -0.3349 -0.1307
 5621W        W22468   2.231   4.657   1.133 -0.0104 -0.0436  0.1330
 5622W        W22469   4.472  18.304   4.167 -0.0939 -0.0403 -0.2412
 5623W        W22470   3.525   3.558  11.073 -0.1088 -0.0238 -0.2645
 5624W        W22471  13.130  13.329  15.208 -0.0507 -0.1789 -0.0217
 5625W        W22472  14.896   8.041  13.228 -0.3965 -0.1381 -0.2966
 5626W        W22473  13.072   3.114   1.903  0.1972  0.0217 -0.1091
 5627W        W22474  12.383  17.136   2.306 -0.1006 -0.0012  0.2951
 5628W        W22475  17.760   3.460   5.527 -0.1071 -0.0035  0.0332
 5629W        W22476  16.814   6.397   1.345  0.1595 -0.4001  0.0031
 5630W        W22477  14.430  12.077  14.431 -0.0375  0.2346  0.2399
 5631W        W22478   2.847  11.736   0.146 -0.0426  0.1051 -0.1237
 5632W        W22479  11.741   2.611   4.049 -0.0350  0.0819  0.0482
 5633W        W22480   5.975   0.008  15.769  0.1308  0.0609  0.0933
 5634W        W22481  17.257  18.175  14.510  0.0258  0.4239 -0.1105
 5635W        W22482   7.068  16.326   4.197 -0.0587 -0.1817 -0.0023
 5636W        W22483  18.777  14.962   3.339  0.1284  0.2469  0.0889
 5637W        W22484   7.618   1.424  12.227 -0.2227  0.2032 -0.1913
 5638W        W22485   0.824   8.933   1.726  0.1684 -0.1695 -0.2909
 5639W        W22486  17.393  18.246  11.789  0.2005  0.2040 -0.0480
 5640W        W22487   9.635   2.495  15.037  0.0726 -0.0534  0.1745
 5641W        W22488  14.233   4.206  15.671 -0.3658  0.0547  0.1856
 5642W        W22489   9.159  13.039  15.219  0.0163  0.4436  0.0937
 5643W        W22490  16.011   5.435  14.860 -0.2559 -0.2569 -0.2159
 5644W        W22491   8.046   8.568   3.759 -0.0237  0.1145 -0.0402
 5645W        W22492  16.125   7.664   2.417 -0.0965  0.1738 -0.4264
 5646W        W22493  13.972  10.793   3.319  0.1408  0.0112  0.2225
 5647W        W22494   3.438   0.579   4.660  0.3912  0.1118  0.1019
 5648W        W22495   9.183   9.637  15.317  0.1242  0.0879  0.1088
 5649W        W22496   9.148   6.454   2.447 -0.1698 -0.0820  0.0773
 5650W        W22497  10.308   9.671   4.554  0.0705  0.0618 -0.1012
 5651W        W22498  16.476  10.785  12.650  0.1348  0.3573 -0.1875
 5652W        W22499   4.633  10.747   3.014  0.1051  0.0057 -0.1474
 5653W        W22500  16.036   4.366   0.893  0.2310  0.1375  0.0262
 5654W        W22501   9.558  17.765   9.635 -0.2148 -0.3416  0.0721
 5655W        W22502   3.322   2.222  11.430 -0.1646 -0.0696 -0.0572
 5656W        W22503  10.387  15.257  13.336 -0.1898 -0.0736  0.2067
 5657W        W22504  16.911   2.263   1.947 -0.0744  0.0761 -0.0052
 5658W        W22505   6.625   5.710  15.228 -0.1483 -0.0216  0.1452
 5659W        W22506  13.882   3.759   0.993  0.2080  0.4271 -0.1301
 5660W        W22507  11.084   8.447  14.519 -0.1723  0.2346  0.0069
 5661W        W22508  13.388  13.972   4.506  0.2234  0.2260 -0.0872
 5662W        W22509   0.502   7.211   2.069 -0.6620  0.3317  0.1401
 5663W        W22510   6.709   0.735  14.046 -0.0482 -0.1178 -0.0278
 5664W        W22511   1.259   6.836   3.260  0.2238 -0.1699 -0.2007
 5665W        W22512  15.817  11.614   3.249 -0.0585 -0.1248  0.2364
 5666W        W22513  13.505  17.980  11.585 -0.0829 -0.0807 -0.1917
 5667W        W22514  10.377  15.016   0.204 -0.1309  0.0429 -0.1531
 5668W        W22515  14.476  15.477   2.113 -0.0123  0.3389  0.0127
 5669W        W22516   4.954  17.026  11.639 -0.1263 -0.2403 -0.2227
 5670W        W22517  10.794   3.234  10.595  0.3514 -0.0852  0.0939
 5671W        W22518   4.294  18.666  15.531  0.0198 -0.3223  0.0133
 5672W        W22519  11.715   2.148   5.058 -0.3398 -0.0715 -0.0706
 5673W        W22520  10.901  12.902  14.314  0.0319  0.1240 -0.0982
 5674W        W22521  17.748  17.403   2.780  0.0833  0.2516  0.0140
 5675W        W22522   7.617  14.298   4.751 -0.1950 -0.0569  0.3555
 5676W        W22523  13.543  17.269  14.236  0.0149  0.0096 -0.1383
 5677W        W22524  10.573   7.157   1.531 -0.0209  0.0037 -0.0801
 5678W        W22525   6.301   4.128  10.717  0.1290 -0.0022  0.1294
 5679W        W22526  15.012   4.345   2.109 -0.0459 -0.2324 -0.2322
 5680W        W22527  10.418  12.869   0.190  0.0902 -0.0565  0.0131
 5681W        W22528  17.913   4.496   5.014 -0.2003 -0.0246 -0.1193
 5682W        W22529  13.590  12.828   5.974  0.0744 -0.4852 -0.3534
 5683W        W22530   1.083   6.619   5.393  0.0116 -0.2430 -0.1998
 5684W        W22531   7.875  12.038   1.174  0.1366 -0.0500 -0.0098
 5685W        W22532   1.213   0.456   0.257 -0.0772 -0.0525 -0.0056
 5686W        W22533  18.117   3.433   0.244  0.1687 -0.1369  0.0684
 5687W        W22534   6.417  16.989   5.450 -0.0724  0.0403 -0.4726
 5688W        W22535  18.641   4.299   3.090  0.1398 -0.1632 -0.4063
 5689W        W22536   9.509  17.727   3.217  0.2686  0.2342  0.2686
 5690W        W22537   4.882   8.698   2.615  0.2370  0.1042 -0.1927
 5691W        W22538   1.895   3.548   0.870  0.1978 -0.2934 -0.2644
 5692W        W22539  12.992   8.145  11.253 -0.0114 -0.1395 -0.0015
 5693W        W22540   9.327   1.435   3.760 -0.1123  0.0285 -0.3532
 5694W        W22541   2.466   4.490  14.206  0.0119 -0.0639  0.0981
 5695W        W22542   5.136   5.606   1.608 -0.0015  0.0448  0.1999
 5696W        W22543  16.948  17.729  12.326  0.3309  0.2828 -0.3441
 5697W        W22544   7.506  15.444  11.068 -0.2639 -0.0524 -0.0820
 5698W        W22545  15.167  18.147   4.125 -0.3507  0.0562 -0.1596
 5699W        W22546   0.206   7.660   1.492  0.0407  0.1987 -0.0826
 5700W        W22547   7.261  10.857   3.009 -0.4487  0.0235  0.0557
 5701W        W22548   7.061  16.308  11.521 -0.3530  0.0991  0.3052
 5702W        W22549  18.605   6.929  15.743  0.0233 -0.0032 -0.0881
 5703W        W22550   3.495   7.913   1.786  0.0741 -0.3598  0.1262
 5704W        W22551   2.016   6.984  12.681  0.0019  0.1583 -0.1533
 5705W        W22552  14.116   5.699  11.156  0.0791  0.0257 -0.1881
 5706W        W22553  15.943  16.592  15.779  0.0564  0.0062  0.0984
 5707W        W22554   8.696   6.442  14.750  0.0405  0.1919 -0.2760
 5708W        W22555  12.156   5.744  14.411  0.4057 -0.2112  0.0453
 5709W        W22556   9.188   7.350  12.980  0.3600  0.2577 -0.0162
 5710W        W22557   2.654   4.917   2.373  0.0141 -0.0275  0.0104
 5711W        W22558  16.763  14.564   3.258 -0.1936 -0.0821 -0.0531
 5712W        W22559  18.013   3.855   3.538  0.0751 -0.1193 -0.1233
 5713W        W22560  10.855  17.988   4.051 -0.0274 -0.3563  0.3382
 5714W        W22561  17.220   8.871   0.619  0.0901  0.2013  0.0556
 5715W        W22562  18.685   3.094   5.943  0.1285  0.3966 -0.2556
 5716W        W22563   6.525   0.840   4.067  0.1036  0.0000 -0.1954
 5717W        W22564   4.181   9.342   4.705  0.2380 -0.3925  0.1494
 5718W        W22565   1.628   5.793   4.805  0.2993 -0.1810 -0.0920
 5719W        W22566  14.048  10.928   4.533  0.0678 -0.2877 -0.1103
 5720W        W22567   1.623   6.450  14.745  0.0503 -0.0839  0.0618
 5721W        W22568  11.821   6.130   0.582 -0.0620  0.0555  0.4089
 5722W        W22569   2.037  10.115  14.116 -0.0314  0.0225 -0.1671
 5723W        W22570  11.831  17.550  11.849 -0.3828 -0.3573  0.0307
 5724W        W22571   8.468   7.760   5.257  0.3038 -0.1104  0.0208
 5725W        W22572   2.228   8.361   0.486  0.2848 -0.1103 -0.0139
 5726W        W22573  15.461  14.068   5.698 -0.1796  0.3201 -0.1829
 5727W        W22574  14.469  10.540  12.957 -0.3353 -0.3683 -0.0913
 5728W        W22575   5.537   4.025  12.233 -0.2919 -0.1456 -0.0534
 5729W        W22576   2.211  11.682   5.716 -0.2234  0.0493 -0.0997
 5730W        W22577   5.741   0.441  14.429  0.1564 -0.0415  0.3439
 5731W        W22578   4.548  18.249  10.905 -0.0458 -0.2793 -0.1463
 5732W        W22579   3.084   6.195  13.061 -0.0575  0.0623  0.1631
 5733W        W22580   6.287   5.637  13.048  0.2536 -0.0780  0.1033
 5734W        W22581   0.989  14.258  11.528 -0.2634  0.3326 -0.1120
 5735W        W22582  18.560  14.922   0.603 -0.3297  0.0367 -0.0854
 5736W        W22583   5.591   4.504  14.022 -0.2679  0.0689 -0.1205
 5737W        W22584   6.267   4.891   1.979 -0.1739  0.5186 -0.1854
 5738W        W22585  11.224   3.267  13.227  0.1241 -0.0380  0.1204
 5739W        W22586   9.412   1.814   1.173 -0.3777  0.1642 -0.1276
 5740W        W22587   8.627   5.125   4.911  0.0976 -0.2978 -0.0230
 5741W        W22588  13.761   7.193  13.668  0.1657  0.0236 -0.1327
 5742W        W22589  15.004   1.715  11.839 -0.0179  0.0458  0.1003
 5743W        W22590  15.053   1.125   4.455 -0.1495 -0.3122 -0.0894
 5744W        W22591   3.795   2.708   0.262 -0.3307  0.1354  0.0876
 5745W        W22592   3.024   0.705   0.421 -0.2867 -0.1537  0.0086
 5746W        W22593  13.500  17.155  11.096  0.0542 -0.1365  0.1181
 5747W        W22594  15.629  12.716  11.830  0.0979  0.0115  0.1174
 5748W        W22595   6.193  15.201  11.678 -0.0942 -0.1066 -0.0241
 5749W        W22596   3.622   3.485  13.030  0.2722  0.0148 -0.1114
 5750W        W22597  16.563  10.323   4.986 -0.1114  0.0535  0.0270
 5751W        W22598  18.805  11.325  11.318  0.2291  0.2620 -0.2956
 5752W        W22599   9.232  10.651   2.559 -0.2979  0.0803 -0.1556
 5753W        W22600  11.257   1.955   1.006  0.1487  0.2505 -0.1533
 5754W        W22601   3.303   8.878  13.343  0.0108 -0.1454 -0.1224
 5755W        W22602  12.767  11.699  13.875 -0.0553 -0.2669  0.0652
 5756W        W22603  11.883   1.037   2.737 -0.0282 -0.0369  0.2123
 5757W        W22604   4.071  17.411  13.616 -0.1465  0.1871 -0.1505
 5758W        W22605  16.599  18.231   0.122  0.0552 -0.0767  0.1560
 5759W        W22606   5.609  15.211   0.931 -0.0196  0.0378  0.2690
 5760W        W22607   5.670   9.381  11.754 -0.0747  0.0552  0.0088
 5761W        W22608  16.193  10.241  13.147 -0.1041  0.2262  0.1022
 5762W        W22609   4.773  17.655  14.559 -0.3384 -0.3395 -0.4330
 5763W        W22610   8.327  12.199  13.035 -0.2820  0.4348  0.1988
 5764W        W22611   0.151   7.045   0.865 -0.0556  0.1324 -0.3066
 5765W        W22612  18.537  15.428  14.028 -0.0224 -0.1318  0.1758
 5766W        W22613   0.794   3.886  14.027  0.2933  0.1070  0.0576
 5767W        W22614  10.044   0.668   2.763  0.0739  0.2288 -0.1668
 5768W        W22615   0.019   7.510  13.956  0.1168  0.4545 -0.1484
 5769W        W22616  17.229  15.829  14.082  0.1433  0.1052  0.0752
 5770W        W22617  12.921  10.397  12.366 -0.1046  0.0707 -0.0493
 5771W        W22618  12.798  11.633   1.717 -0.0513  0.0186  0.1009
 5772W        W22619  10.602  11.363  11.647  0.0651 -0.0584  0.1855
 5773W        W22620   7.256  14.750  12.538  0.0009 -0.1313  0.1415
 5774W        W22621  15.898  13.789   3.281  0.0508 -0.2509 -0.1831
 5775W        W22622   4.285  11.355   5.201  0.2215 -0.4432  0.4001
 5776W        W22623   0.897   9.329  12.540  0.2784 -0.1095  0.1351
 5777W        W22624   4.340   5.069   1.505 -0.1806  0.1140  0.0564
 5778W        W22625   1.123   6.248  14.987 -0.1079 -0.2682  0.0811
 5779W        W22626   2.506   4.509   2.734  0.0672  0.1828 -0.0110
 5780W        W22627   5.960   7.926   6.021 -0.0029  0.3063  0.1177
 5781W        W22628   1.727   0.817   4.859 -0.0107 -0.0452  0.0307
 5782W        W22629   5.868  10.514  12.317  0.0677 -0.1596  0.5994
 5783W        W22630  14.455   0.366   0.543 -0.1095 -0.1499 -0.0182
 5784W        W22631   7.360  13.757  12.960 -0.0854 -0.1519 -0.0177
 5785W        W22632   7.811  12.299   2.044  0.1837 -0.0277 -0.1263
 5786W        W22633   7.232   9.474   4.716  0.0037  0.1604  0.0092
 5787W        W22634   6.313  10.391   3.628  0.2862  0.1787 -0.1643
 5788W        W22635   0.289   2.460  14.979  0.0139 -0.0936  0.1616
 5789W        W22636  18.701  15.742  13.457 -0.2356  0.0454 -0.1124
 5790W        W22637  12.559   8.054   4.771  0.3470  0.2539 -0.2014
 5791W        W22638  13.711   3.042  15.145 -0.4868  0.0462 -0.1356
 5792W        W22639   6.756  11.000  10.305 -0.1633 -0.4033 -0.4256
 5793W        W22640   5.817   0.055   5.373  0.1470 -0.1030  0.3564
 5794W        W22641  14.448  15.726   2.623  0.2178 -0.2675  0.0128
 5795W        W22642   9.011   5.207   1.299 -0.0003  0.1012  0.0768
 5796W        W22643   2.005  13.070  13.414 -0.2044  0.1643  0.1339
 5797W        W22644   6.948  18.397  11.470  0.0274 -0.1597  0.0339
 5798W        W22645   1.494  13.245   2.861 -0.0512  0.2222  0.3562
 5799W        W22646   2.997   5.014  14.814  0.3928  0.5352 -0.1026
 5800W        W22647   6.064  18.193   1.152 -0.1144  0.3551 -0.0612
 5801W        W22648  18.527   9.722  14.523  0.4563 -0.2866 -0.0971
 5802W        W22649   2.083   7.178  13.594  0.1158 -0.4360  0.0561
 5803W        W22650  11.223  16.627  11.321  0.0082  0.1760 -0.1594
 5804W        W22651   8.783   8.672  13.866 -0.2837  0.1511  0.0212
 5805W        W22652   5.539  17.494   1.439 -0.0935 -0.0023  0.0745
 5806W        W22653   8.397   0.808  14.189  0.0635  0.0989  0.1962
 5807W        W22654  14.846  13.405  13.036 -0.2487  0.0478  0.0493
 5808W        W22655   0.723   4.496   0.172 -0.1360 -0.1997  0.3128
 5809W        W22656   4.537  10.569  14.812  0.2621  0.0721  0.0052
 5810W        W22657   1.422  12.538   3.523 -0.4931  0.4650  0.2727
 5811W        W22658  18.352   6.597   6.340  0.2413 -0.0408  0.0733
 5812W        W22659  11.761   9.515  14.549 -0.1500 -0.1048 -0.1723
 5813W        W22660  10.305   6.241   4.116 -0.0681  0.4519  0.1387
 5814W        W22661   6.777  18.825   0.701 -0.0877 -0.0251 -0.1913
 5815W        W22662   6.228   0.282   2.974 -0.2544  0.0289 -0.1332
 5816W        W22663  17.213  12.474  15.324 -0.0039  0.1192  0.0828
 5817W        W22664   3.115  15.606   0.581 -0.2322 -0.1264  0.0013
 5818W        W22665   8.277  18.656  13.264 -0.1325 -0.0422 -0.0079
 5819W        W22666  18.815  13.593  14.203  0.0481  0.0061  0.0764
 5820W        W22667   9.866   6.709  11.337  0.0448  0.3025  0.3845
 5821W        W22668   1.206   7.480  15.513  0.3773 -0.2429  0.3910
 5822W        W22669   1.387   7.053   4.978  0.0355 -0.0599 -0.2568
 5823W        W22670   2.308   9.796  15.629 -0.1217  0.1590  0.1799
 5824W        W22671   5.132  11.984  10.261  0.2539 -0.0800 -0.0644
 5825W        W22672   4.571   4.109  15.282 -0.0655 -0.2271  0.0088
 5826W        W22673   3.158  12.276  11.217 -0.0273 -0.2686 -0.0154
 5827W        W22674   4.027  14.092  14.879  0.1726 -0.1276 -0.1011
 5828W        W22675  15.475   1.075   5.904  0.0686 -0.2445  0.1347
 5829W        W22676  15.579   6.511  14.184  0.2391 -0.2650 -0.1633
 5830W        W22677  11.585  10.991  15.224  0.2670  0.1882  0.0346
 5831W        W22678   8.697   0.416   0.899  0.2794  0.1828  0.1654
 5832W        W22679   9.937   1.994  12.976  0.0442 -0.0944 -0.0787
 5833W        W22680   3.660   5.578  15.108  0.0351 -0.0394 -0.1010
 5834W        W22681  18.712  10.321   0.750 -0.2048  0.2632 -0.0806
 5835W        W22682   5.588   4.043   0.440  0.0521  0.0895 -0.0252
 5836W        W22683  14.605  12.813   4.081  0.1423  0.0351  0.1350
 5837W        W22684   9.683  12.235  14.877 -0.0047 -0.0421  0.0518
 5838W        W22685   0.126  10.486   2.129  0.1754 -0.4048  0.1098
 5839W        W22686  16.078  12.132  12.636  0.1126  0.0256  0.2790
 5840W        W22687   2.754  10.815  14.234  0.2946  0.2414  0.0613
 5841W        W22688  10.558  13.696   3.632 -0.0381  0.1635 -0.2151
 5842W        W22689   9.269  14.345   4.714  0.0053 -0.1046  0.1755
 5843W        W22690   4.008  13.617  14.699  0.0912 -0.1245  0.1189
 5844W        W22691  15.120   3.068  13.612 -0.1485  0.0310 -0.0038
 5845W        W22692  18.155  13.455  12.504  0.0580  0.0564 -0.1121
 5846W        W22693   3.790   0.506  11.277 -0.0706  0.0600 -0.2360
 5847W        W22694  16.226   5.866   2.512 -0.1260 -0.2594  0.3630
 5848W        W22695  17.227  11.616   2.818  0.2273 -0.0637 -0.1982
 5849W        W22696  15.211   8.750  15.642  0.2647  0.3225 -0.3792
 5850W        W22697   5.679  13.956  11.909 -0.2402 -0.0213 -0.0800
 5851W        W22698   2.191  13.709  10.669  0.2568 -0.2230  0.2627
 5852W        W22699   3.643   2.529  14.063 -0.1225  0.0520  0.0728
 5853W        W22700  10.100  10.476  13.481 -0.1579 -0.1562  0.1996
 5854W        W22701   5.655   1.640  13.689  0.1936  0.0471  0.1131
 5855W        W22702   1.257   3.266   4.689  0.3460  0.5246 -0.2223
 5856W        W22703  16.912   6.586  12.128 -0.3114  0.0526  0.1447
 5857W        W22704  14.295   4.171  15.038 -0.0871  0.0413  0.1275
 5858W        W22705   7.716   6.183  11.890  0.0343  0.1586 -0.0675
 5859W        W22706   1.384   0.502   4.252 -0.0110 -0.0380  0.1777
 5860W        W22707   3.738   4.030  11.993 -0.1980  0.2113  0.0082
 5861W        W22708  11.196  13.636  14.415 -0.4146 -0.0095 -0.0525
 5862W        W22709   4.364   1.260   4.201  0.1547  0.0180 -0.0448
 5863W        W22710   0.618  18.594   4.627  0.1856  0.1442 -0.2140
 5864W        W22711   6.629  17.473  13.109  0.2169 -0.0779  0.1157
 5865W        W22712  17.636  12.971   2.105  0.2778  0.4949  0.3180
 5866W        W22713   0.433  15.383   2.095  0.0572  0.0916 -0.1134
 5867W        W22714  10.050  14.318  11.768  0.1651  0.1374 -0.0569
 5868W        W22715   8.735   4.331  13.309  0.0433 -0.2726  0.1535
 5869W        W22716  11.561   3.800   4.554 -0.2923  0.1404  0.0701
 5870W        W22717  18.566  16.684   1.575  0.1078  0.1035  0.1895
 5871W        W22718  13.240  13.693  14.710 -0.0145  0.0543 -0.3039
 5872W        W22719   8.196   9.477  13.169  0.1036 -0.1038 -0.0054
 5873W        W22720   9.783   2.482   4.782 -0.1507  0.1164 -0.2273
 5874W        W22721  11.208  10.831   2.736 -0.2129  0.3140  0.1815
 5875W        W22722  14.142   9.244  14.681 -0.0107 -0.0559  0.1014
 5876W        W22723  17.609  16.874   4.427 -0.0312  0.1498  0.0306
 5877W        W22724  10.743   8.843   3.038  0.2637  0.0484  0.1699
 5878W        W22725   4.617  11.772  12.417  0.2778 -0.0840 -0.0383
 5879W        W22726  11.089  10.374   4.131 -0.2160 -0.2426 -0.1761
 5880W        W22727   0.829   7.508  15.195 -0.2424  0.1785  0.2156
 5881W        W22728  17.758  10.763  14.779 -0.0747 -0.0572 -0.0330
 5882W        W22729  11.777   5.803   1.859  0.0643 -0.3506  0.1711
 5883W        W22730   6.237   2.036  11.831  0.0312  0.0167  0.0814
 5884W        W22731  17.516  10.049  15.560 -0.3086  0.2598  0.1880
 5885W        W22732   6.126  10.212  12.014  0.0149 -0.1653  0.0889
 5886W        W22733   9.248   7.029   5.497 -0.1893  0.0755 -0.3632
 5887W        W22734   8.019   4.221  13.574 -0.0219  0.3332 -0.0179
 5888W        W22735   9.179   6.132  13.588 -0.2376  0.0318  0.1754
 5889W        W22736   1.010  11.151  15.018 -0.2486 -0.2957 -0.1131
 5890W        W22737   9.610   0.812   2.396 -0.1688 -0.2242  0.4219
 5891W        W22738   2.450  15.574  11.684 -0.6618  0.0724  0.3839
 5892W        W22739   6.784   4.128   3.896  0.1754 -0.1875  0.0759
 5893W        W22740  12.912  18.592  13.900  0.1701 -0.0067 -0.1897
 5894W        W22741  13.667  17.074   0.007 -0.2851  0.0366 -0.1047
 5895W        W22742  14.688  10.249   1.105 -0.0262 -0.0857 -0.2188
 5896W        W22743  11.685   2.411  15.749 -0.1465 -0.0575 -0.2268
 5897W        W22744  16.080   0.943   0.383 -0.0359  0.2173  0.5601
 5898W        W22745   1.468   5.167  11.881 -0.1383  0.0719 -0.0339
 5899W        W22746  10.273  14.493   1.006  0.0533 -0.2384  0.0162
 5900W        W22747   0.702   3.227  14.684 -0.1099  0.0219  0.3395
 5901W        W22748   3.381   8.402   5.479 -0.1488 -0.0609  0.1070
 5902W        W22749   7.392  12.145  15.469  0.3134  0.0009 -0.0273
 5903W        W22750  15.538   2.588  14.801  0.0554 -0.0938  0.1233
 5904W        W22751  13.034   3.733   3.604 -0.2254 -0.0462 -0.1513
 5905W        W22752  16.144  18.830  12.178  0.1710 -0.2544  0.1227
 5906W        W22753   2.786   6.991  15.562  0.1036 -0.3245  0.3148
 5907W        W22754   1.779  11.044  13.133  0.3004 -0.0460 -0.0504
 5908W        W22755   2.971   2.463  11.712 -0.1655 -0.1985 -0.2569
 5909W        W22756   8.517   3.231  12.079  0.0010 -0.4648  0.0025
 5910W        W22757   4.810   4.828   1.550  0.0831  0.1609  0.1282
 5911W        W22758  16.555  16.589   5.622 -0.1425 -0.1225  0.0158
 5912W        W22759  14.621   7.653   4.120  0.0034 -0.0896  0.1326
 5913W        W22760  11.250  10.408   0.189  0.0627 -0.0836 -0.0273
 5914W        W22761  17.490  16.418   4.066 -0.0633  0.1843  0.0365
 5915W        W22762   8.019   2.366   0.068  0.3668  0.0497  0.3278
 5916W        W22763  13.530   0.159   3.835 -0.0646  0.1725 -0.0417
 5917W        W22764   4.679   7.635   4.029 -0.3398 -0.2706  0.1520
 5918W        W22765  12.190   0.275  10.647 -0.0127  0.0500  0.2992
 5919W        W22766  17.911   2.803   3.851 -0.1938 -0.1033 -0.1882
 5920W        W22767   1.254  10.865  11.332 -0.1864 -0.0490  0.0180
 5921W        W22768   0.255  16.200   0.199 -0.2081  0.0984 -0.1077
 5922W        W22769   2.553  14.593  10.850  0.0632 -0.0477  0.1115
 5923W        W22770   5.787   8.253   3.951 -0.3026  0.0140  0.1215
 5924W        W22771   0.721  11.514   4.504 -0.0758 -0.1379 -0.0966
 5925W        W22772  15.980   3.870   0.175 -0.1082  0.0685  0.3654
 5926W        W22773  18.710   5.446   0.868 -0.0599  0.1343 -0.1595
 5927W        W22774  16.538   1.980   3.359  0.1936 -0.0183 -0.1766
 5928W        W22775  15.096  11.655   3.682 -0.1868 -0.4597  0.1811
 5929W        W22776  12.707   4.994  15.610 -0.2210  0.4064 -0.0429
 5930W        W22777  12.341   0.996   0.142 -0.0644 -0.0541 -0.1844
 5931W        W22778   3.813  12.580  15.449  0.0166 -0.0085 -0.4073
 5932W        W22779   3.465   3.864  13.447  0.2292  0.2090 -0.0796
 5933W        W22780   4.161   3.822  12.826  0.2711  0.0828  0.1160
 5934W        W22781   3.565   1.400  12.669 -0.1436 -0.1502  0.0134
 5935W        W22782  17.588  15.742   0.373 -0.1079  0.0966  0.2134
 5936W        W22783   0.201  17.002  14.667  0.0959 -0.0260  0.1130
 5937W        W22784  13.770  13.308   2.443 -0.0746 -0.1127  0.0524
 5938W        W22785   3.393  18.341   3.483 -0.0205 -0.2277 -0.4455
 5939W        W22786   2.488   6.054   2.797  0.0098  0.0500 -0.0522
 5940W        W22787  10.429   8.214   1.333 -0.0107 -0.0609  0.5023
 5941W        W22788   7.612   5.058  13.311 -0.2738 -0.0809  0.3554
 5942W        W22789   1.457   2.084   5.163 -0.1071  0.2880  0.2372
 5943W        W22790   7.684   8.057   0.676 -0.0424 -0.0002  0.3588
 5944W        W22791   9.224   9.351   0.361 -0.1035 -0.0173 -0.0396
 5945W        W22792  10.250   3.164   4.750  0.3266 -0.0860  0.1906
 5946W        W22793  15.292  11.160  14.137 -0.1575 -0.1484 -0.0066
 5947W        W22794  14.533  12.218  11.678 -0.1412 -0.2501  0.1817
 5948W        W22795  13.686  14.214   0.309 -0.3298  0.3489 -0.3183
 5949W        W22796   6.858   1.524  14.388 -0.3223 -0.0611  0.1928
 5950W        W22797   0.156  17.332   4.187  0.1504  0.1324  0.2391
 5951W        W22798   3.887  11.885   0.866 -0.2655 -0.1278  0.0879
 5952W        W22799   7.366  13.090   3.598 -0.0377 -0.2044 -0.0639
 5953W        W22800   9.377   5.650  13.364  0.2168 -0.0132 -0.1448
 5954W        W22801   9.774  17.298  12.595 -0.1900 -0.1620 -0.0778
 5955W        W22802   5.447   7.896   3.903  0.2525  0.1173 -0.0474
 5956W        W22803  14.904   6.798  12.849 -0.0031  0.0656 -0.0279
 5957W        W22804   9.278   6.844  13.654  0.0333 -0.2153 -0.0316
 5958W        W22805   4.504   4.290   2.220 -0.1029  0.0765  0.0156
 5959W        W22806  12.792   7.855   4.386 -0.2293  0.0751  0.3990
 5960W        W22807   7.039  13.504   0.894 -0.0661 -0.1033 -0.0118
 5961W        W22808  10.357   1.096  13.885 -0.0270  0.1394  0.0952
 5962W        W22809  14.316   9.098   3.584 -0.0499  0.0930  0.0162
 5963W        W22810   9.686  10.240   4.209  0.3431  0.3352  0.2406
 5964W        W22811   3.893  16.245   4.194  0.3922 -0.3307  0.0376
 5965W        W22812   9.081  11.414   5.576  0.1631 -0.0520 -0.2187
 5966W        W22813  15.321  10.653   5.305  0.0213 -0.0560 -0.1835
 5967W        W22814  12.571   3.162   0.906  0.3593  0.1049 -0.0794
 5968W        W22815   9.271  13.345   4.134  0.0865  0.2398 -0.0736
 5969W        W22816  17.878  14.680  14.148 -0.0861  0.1167  0.1511
 5970W        W22817   8.910   2.336   0.593 -0.1992 -0.0043 -0.1714
 5971W        W22818   5.885  17.354  15.628  0.0433  0.0414  0.3297
 5972W        W22819  12.745  11.317   2.281  0.1057  0.0797 -0.1404
 5973W        W22820  17.136  10.425  13.178  0.1386 -0.1585 -0.1023
 5974W        W22821   5.896   9.757   1.100 -0.1358 -0.1843 -0.3102
 5975W        W22822  17.926  13.954   0.290 -0.1254 -0.1055  0.2042
 5976W        W22823   9.379  12.576  10.072  0.0894 -0.1127 -0.0210
 5977W        W22824   1.616   1.969   4.684 -0.0825 -0.0535  0.2114
 5978W        W22825   4.959  17.905  14.127 -0.0955 -0.1533  0.1370
 5979W        W22826  13.350   8.793   4.131  0.0876  0.2196  0.3682
 5980W        W22827  12.977  11.234  12.129 -0.3226  0.0442 -0.1228
 5981W        W22828   2.963  12.591   1.999 -0.0442  0.0623 -0.0008
 5982W        W22829  17.107   4.613   6.224  0.0652 -0.3784 -0.0966
 5983W        W22830   9.063   4.975  12.391  0.0340 -0.2919  0.1620
 5984W        W22831  15.738  13.694   3.811  0.2908 -0.0265  0.2835
 5985W        W22832  16.710  18.441   5.963  0.1303 -0.4831 -0.1402
 5986W        W22833  13.395  12.628   1.153 -0.0408  0.1066  0.0925
 5987W        W22834   1.617   2.689  11.997 -0.0845 -0.1247  0.1442
 5988W        W22835  17.917   8.498  14.516  0.4412  0.3603 -0.1119
 5989W        W22836   6.904  18.045  10.767  0.2679 -0.3202 -0.1364
 5990W        W22837   9.087  12.728   2.637  0.0157 -0.0831  0.0313
 5991W        W22838  15.945   9.598   0.621 -0.0265 -0.1955 -0.0938
 5992W        W22839  11.237  17.678  13.098 -0.1126 -0.2272  0.0210
 5993W        W22840   6.050  10.680  11.676 -0.0983 -0.0413  0.1540
 5994W        W22841   7.885  17.125  13.286 -0.1471 -0.1336 -0.3419
 5995W        W22842   2.852   0.206  12.750 -0.0531  0.0911  0.1822
 5996W        W22843   6.709   1.641   4.158  0.2513  0.0191 -0.0836
 5997W        W22844   5.033  17.682   4.125 -0.1769  0.0641 -0.0521
 5998W        W22845  13.073   2.372   4.861 -0.2130  0.1475  0.4553
 5999W        W22846  13.996  15.737  15.361 -0.1720  0.0987  0.1643
 6000W        W22847  13.438   5.265   0.068  0.1861  0.0920  0.0299
 6001W        W22848   2.085   8.386  11.697  0.1844  0.3834  0.2221
 6002W        W22849  12.713   9.539  15.125  0.3670 -0.1549  0.1206
 6003W        W22850  12.775  11.598   2.722  0.0296  0.2316 -0.1673
 6004W        W22851   1.027  11.895   4.697 -0.3258 -0.2427  0.1781
 6005W        W22852  10.046   0.026   4.962 -0.0141  0.1191 -0.1240
 6006W        W22853  10.652   3.263   5.213  0.0827  0.1122 -0.0418
 6007W        W22854   6.010   4.847   0.644  0.0671 -0.0929 -0.2905
 6008W        W22855   4.960  15.099  12.923 -0.0196  0.0216 -0.1840
 6009W        W22856  10.727   6.665  13.277 -0.3030  0.0762  0.2283
 6010W        W22857   2.454   1.500  13.300 -0.1634 -0.0068 -0.1489
 6011W        W22858   0.313  17.249  11.669  0.0917  0.0350  0.0212
 6012W        W22859   8.198   9.435  15.764  0.0110  0.0485  0.0805
 6013W        W22860  11.960  15.909  15.457  0.1593  0.2157  0.0447
 6014W        W22861   1.116  10.953  15.463 -0.2198 -0.3433  0.0342
 6015W        W22862   5.808  13.247   4.575  0.0556 -0.0731 -0.1537
 6016W        W22863   3.801  10.077  14.343  0.0621  0.2141  0.1273
 6017W        W22864   1.552  11.464   2.087 -0.0306  0.0160 -0.0695
 6018W        W22865   4.395   1.105   3.714  0.2109 -0.1081 -0.1033
 6019W        W22866   1.650  12.242   1.133 -0.0327 -0.0557  0.1724
 6020W        W22867  15.941  11.805  11.921  0.2726  0.3032 -0.2465
 6021W        W22868   7.455  18.218  10.786 -0.2140 -0.1769  0.1304
 6022W        W22869  16.214   1.627   3.409 -0.1372  0.0266  0.2668
 6023W        W22870   0.046   7.587   3.909 -0.0196 -0.0547 -0.1296
 6024W        W22871   5.545   8.731   2.650  0.1341  0.2587 -0.3676
 6025W        W22872   0.021   4.218  14.310  0.0104 -0.2576 -0.0261
 6026W        W22873   4.929  12.451  11.154  0.1222 -0.1926 -0.1308
 6027W        W22874  15.761   9.999  12.849  0.1122 -0.1735 -0.0271
 6028W        W22875   5.031  16.576   4.769 -0.0070 -0.1813  0.2062
 6029W        W22876   2.769  13.757   2.637 -0.1591 -0.2404 -0.0614
 6030W        W22877   5.980   4.563   1.102 -0.0441  0.1976  0.2074
 6031W        W22878   8.583   5.997   5.448 -0.1664 -0.0575 -0.2608
 6032W        W22879   3.947  13.684  11.448 -0.0677 -0.0719 -0.1264
 6033W        W22880   0.211  17.138  11.039  0.0208  0.1345 -0.2031
 6034W        W22881   5.053  17.666   5.414  0.1647  0.2575 -0.1035
 6035W        W22882   7.772  10.330  12.309  0.0315  0.1311  0.1255
 6036W        W22883   3.758  17.898  11.355  0.0143  0.0046 -0.0942
 6037W        W22884  14.300   8.655   1.497  0.2816  0.0895  0.0297
 6038W        W22885   6.194   6.360   4.019 -0.3469 -0.1694 -0.5043
 6039W        W22886   6.023   1.723  13.248 -0.0610 -0.2376 -0.1372
 6040W        W22887  16.955   2.536  15.166  0.2693  0.2701  0.2375
 6041W        W22888   4.525  17.544   1.919 -0.2153 -0.0460 -0.4226
 6042W        W22889   8.025   8.810   1.031 -0.1433 -0.1392 -0.1368
 6043W        W22890  13.312   4.071  12.045 -0.1013  0.0437 -0.0657
 6044W        W22891   1.027  10.914  11.946  0.1116 -0.2658  0.0080
 6045W        W22892  14.344  15.052  13.711  0.0444 -0.2924 -0.1797
 6046W        W22893   1.577   1.346   2.021  0.1662 -0.1562  0.0496
 6047W        W22894   0.076  14.773  13.037  0.2134 -0.1210 -0.4903
 6048W        W22895  18.250   4.606   3.286 -0.3939  0.3087 -0.0030
 6049W        W22896  13.735  16.553  13.686 -0.0500 -0.0426 -0.0878
 6050W        W22897  17.137  18.267  12.433  0.2723  0.0044 -0.1850
 6051W        W22898   4.701  14.454   2.971 -0.0688  0.0523  0.2314
 6052W        W22899   0.405  17.555  10.817 -0.2764 -0.1005  0.0657
 6053W        W22900  11.770  10.699   2.714 -0.2559 -0.2132 -0.1919
 6054W        W22901  12.669  13.145  13.278 -0.2171  0.0030 -0.1103
 6055W        W22902   3.363   9.447   4.019  0.0383 -0.1236  0.2129
 6056W        W22903   8.991  12.850  14.734 -0.1539 -0.2552  0.0603
 6057W        W22904   4.375  15.252   1.999  0.2449 -0.0022 -0.2228
 6058W        W22905   7.928  12.873   5.032  0.2423  0.0117  0.0527
 6059W        W22906   6.184  17.757  10.872 -0.2610 -0.0780  0.0224
 6060W        W22907   5.389  18.480  11.100  0.2173 -0.0395  0.0800
 6061W        W22908  16.419   7.720   2.058 -0.4604  0.0035 -0.1294
 6062W        W22909   4.489   7.608  11.774 -0.0822  0.0348 -0.3453
 6063W        W22910   7.862  11.157  13.698  0.3772  0.1695 -0.4479
 6064W        W22911   8.594  18.678   4.339 -0.1591  0.2820  0.0335
 6065W        W22912   7.806  12.377   5.151  0.4072  0.3328  0.0158
 6066W        W22913   0.236   5.767   4.360  0.2157  0.1162 -0.0092
 6067W        W22914   6.875   3.063  15.582  0.0615 -0.3512  0.1498
 6068W        W22915  12.459  18.259  13.526 -0.2354  0.5310 -0.0719
 6069W        W22916  14.624  13.615   5.317  0.0580 -0.2474  0.3179
 6070W        W22917  14.370  14.915   1.127  0.2649 -0.4333 -0.0088
 6071W        W22918   4.711  12.941   2.423  0.0654  0.1004  0.2867
 6072W        W22919  17.958   8.081   4.680  0.3720  0.0232 -0.2232
 6073W        W22920  15.786  14.335  12.797  0.1014  0.0466 -0.1506
 6074W        W22921  16.894   3.633  15.134 -0.0402 -0.1466 -0.2227
 6075W        W22922  14.366   9.619  14.398  0.0389  0.3051 -0.2209
 6076W        W22923  13.646   6.605  10.210  0.0251  0.0636 -0.2728
 6077W        W22924  14.736   0.389   3.551  0.2267  0.2263 -0.3204
 6078W        W22925  14.961   1.773   4.643  0.0962 -0.0545  0.3504
 6079W        W22926   3.547   5.108   0.206  0.0016  0.1011 -0.0655
 6080W        W22927  10.879   8.066  11.714  0.2944  0.0111 -0.4218
 6081W        W22928  10.298   9.283   3.534 -0.0805  0.0331 -0.0350
 6082W        W22929   6.924  12.037  12.405 -0.2240 -0.1403  0.1986
 6083W        W22930   2.377  18.785   5.383 -0.1628 -0.1918 -0.1911
 6084W        W22931  15.303   7.307   4.261  0.0836  0.2206  0.0464
 6085W        W22932   1.375   5.764   6.255 -0.0737  0.3730  0.3296
 6086W        W22933  12.257   1.713   4.780 -0.0197 -0.2429 -0.0337
 6087W        W22934   1.490  11.814   2.353  0.1360 -0.2640 -0.0235
 6088W        W22935   4.729  15.842  15.435  0.2198  0.2372  0.1658
 6089W        W22936  14.071   2.998   3.830  0.0285  0.0898  0.0363
 6090W        W22937  15.181   4.244  15.298  0.3447  0.2456  0.1539
 6091W        W22938  11.834   6.889   1.080  0.0618  0.0209 -0.0741
 6092W        W22939   1.376   1.407   0.669  0.4428  0.2953  0.1082
 6093W        W22940   9.783  18.219  14.724 -0.0406  0.3814 -0.1015
 6094W        W22941  15.617   6.515   3.749  0.1711  0.0215  0.1174
 6095W        W22942   7.781  14.923  15.647 -0.2303 -0.0792 -0.0689
 6096W        W22943   6.016  12.755   3.620 -0.1710 -0.0111 -0.3189
 6097W        W22944   2.844  13.228   2.557  0.0490 -0.0179 -0.3217
 6098W        W22945  11.055   2.386  13.563  0.1874  0.2355 -0.2262
 6099W        W22946   0.547   7.117  15.068 -0.0761 -0.1276 -0.1321
 6100W        W22947  14.791  16.649  14.131 -0.0741  0.3739 -0.1105
 6101W        W22948   7.182   8.699  12.974  0.3866  0.0222  0.1596
 6102W        W22949   3.310   4.611  14.965 -0.1217  0.0130  0.0963
 6103W        W22950   7.696  18.658   1.820  0.3140 -0.0940  0.0592
 6104W        W22951   6.224  12.929  13.427  0.1401 -0.1876 -0.0004
 6105W        W22952  18.509   5.577  11.941 -0.3007 -0.1764 -0.1184
 6106W        W22953   3.601  15.163   2.975 -0.1368  0.2168  0.0842
 6107W        W22954  16.745   7.047   2.627  0.0696 -0.3352 -0.2375
 6108W        W22955   4.820   3.893  13.713  0.0871 -0.0247  0.2824
 6109W        W22956  14.693   5.934  14.761 -0.0444  0.1738 -0.2591
 6110W        W22957   7.456   7.668   5.504 -0.3003 -0.1432 -0.1209
 6111W        W22958   5.856   7.257   2.263 -0.2745 -0.0604  0.0555
 6112W        W22959   4.788  16.229   4.502  0.3398 -0.0788  0.0897
 6113W        W22960   1.770  11.244   1.103  0.0805 -0.0198 -0.6042
 6114W        W22961   4.581  15.364  15.231  0.1668 -0.1710  0.2012
 6115W        W22962  12.927   4.666   5.257 -0.1997 -0.1457  0.0561
 6116W        W22963   2.137  15.685  12.075 -0.2661 -0.1728 -0.1830
 6117W        W22964  15.259  14.904   3.136  0.0588  0.1980 -0.1691
 6118W        W22965  16.746   0.762   4.188  0.2949 -0.0621 -0.1591
 6119W        W22966  18.754  10.744  14.760 -0.0059  0.0323  0.0300
 6120W        W22967  17.674  12.989   3.988 -0.1975  0.0909 -0.3218
 6121W        W22968   8.479   5.404  15.357 -0.0462 -0.0020  0.2085
 6122W        W22969   2.337   2.415  11.346 -0.3042 -0.1164  0.3881
 6123W        W22970   6.109   0.276  14.018 -0.1061 -0.0887 -0.5187
 6124W        W22971   1.236  11.977   0.788  0.1048 -0.2061  0.0350
 6125W        W22972  18.206   7.509  15.595  0.0594 -0.0693  0.2398
 6126W        W22973  17.415   3.469   5.158 -0.0994  0.2604  0.1329
 6127W        W22974   2.463  15.840  15.385  0.5152  0.1475  0.0161
 6128W        W22975   2.410  10.143   1.845 -0.0428 -0.3081 -0.2161
 6129W        W22976  17.086   4.864  13.668 -0.0321  0.0084  0.0709
 6130W        W22977   0.282  13.490  12.576 -0.0209  0.0110  0.2179
 6131W        W22978  13.494   9.939  14.924 -0.2132 -0.0652 -0.0545
 6132W        W22979  15.330   4.668   2.854 -0.0990 -0.1397  0.3334
 6133W        W22980   5.203   7.343  14.353 -0.2309 -0.3062 -0.0463
 6134W        W22981   9.292  17.284   2.568  0.3732 -0.1217 -0.1513
 6135W        W22982  17.523   2.316   4.555  0.2716 -0.1602  0.1301
 6136W        W22983   6.867  18.657  11.030  0.0687  0.0434 -0.0038
 6137W        W22984   4.948  16.588  11.844 -0.0058 -0.4151  0.2370
 6138W        W22985  16.002  17.157  15.538  0.0887  0.0714  0.5728
 6139W        W22986   0.115   2.907  10.835 -0.0401  0.0889 -0.1359
 6140W        W22987  14.165  13.052   1.126 -0.0863 -0.1546  0.3704
 6141W        W22988   9.874  13.937   2.531  0.1889  0.0053  0.0368
 6142W        W22989   4.558  13.231   3.312  0.2641  0.0990 -0.1996
 6143W        W22990   6.601  12.196   4.341  0.3691 -0.1136  0.2632
 6144W        W22991  14.258   5.356   2.584  0.0296 -0.1604  0.0287
 6145W        W22992  15.835  18.046   0.506  0.1424  0.1441 -0.1042
 6146W        W22993  12.030   5.788   0.231  0.3700 -0.1722 -0.4600
 6147W        W22994  14.569   8.199   1.284 -0.2463 -0.1674 -0.1852
 6148W        W22995   3.681   2.271   2.077  0.2062  0.2400  0.1858
 6149W        W22996  10.634   7.134   0.175  0.2114  0.0423  0.4423
 6150W        W22997   9.887  17.916   2.948  0.4223 -0.0622  0.1175
 6151W        W22998   4.015   7.459  12.119  0.0189 -0.0408  0.0312
 6152W        W22999  12.169   0.512  15.014 -0.3248 -0.0381 -0.3455
 6153W        W23000  17.822   3.001  13.625 -0.6274 -0.0053 -0.1166
 6154W        W23001  12.198  10.266   0.303 -0.1404  0.1453 -0.1947
 6155W        W23002   0.320  16.936   5.631 -0.0082  0.2630 -0.3270
 6156W        W23003  16.199  16.756   5.985 -0.2289  0.2334  0.0503
 6157W        W23004  11.807   9.269   3.350  0.0549  0.1814  0.0653
 6158W        W23005   3.948  11.406  14.943  0.1053  0.1739  0.0100
 6159W        W23006   3.437  14.564  15.728 -0.0438 -0.1703  0.1199
 6160W        W23007  12.501   7.258  13.303 -0.0640 -0.0183 -0.0071
 6161W        W23008   7.260  10.139   4.192  0.3482  0.2206 -0.2167
 6162W        W23009   7.944   0.762   0.182 -0.4198 -0.0982  0.1869
 6163W        W23010   3.250   8.289  12.881 -0.0866  0.0284 -0.1648
 6164W        W23011   5.552  17.560   3.493  0.0733 -0.0190  0.1926
 6165W        W23012  13.277   2.946   3.732 -0.0303 -0.1036  0.1844
 6166W        W23013   5.422  10.289  14.897 -0.1304  0.1659 -0.0269
 6167W        W23014   0.456   0.210   4.592  0.1500  0.1500 -0.0308
 6168W        W23015   9.828  18.267  13.224 -0.1342 -0.1681  0.1843
 6169W        W23016  18.578  14.547   1.877  0.1885 -0.0425 -0.1770
 6170W        W23017  15.008   4.330   4.123 -0.4117  0.0810  0.5677
 6171W        W23018   6.686   7.848  13.451  0.2172 -0.0393 -0.0121
 6172W        W23019  12.814  15.959  12.768  0.1383 -0.1683 -0.0146
 6173W        W23020  13.660  15.600   2.454  0.1115  0.2226  0.1592
 6174W        W23021  12.376  13.031   3.897 -0.2239  0.2643 -0.0710
 6175W        W23022   5.175   1.518  14.131 -0.2261  0.2503  0.3541
 6176W        W23023   6.166  13.134  11.487 -0.2648 -0.3859 -0.1511
 6177W        W23024   7.540   1.332  11.537 -0.1290  0.0443  0.0867
 6178W        W23025   2.332   9.138   3.270  0.2897  0.0375 -0.0026
 6179W        W23026  12.105   6.479   3.864  0.0738  0.0933 -0.2014
 6180W        W23027   0.180  16.399   3.963  0.0576  0.2545 -0.1467
 6181W        W23028  16.383  12.239  13.157  0.2144  0.1587 -0.0820
 6182W        W23029  10.688   7.759  15.698 -0.2055 -0.0898  0.1294
 6183W        W23030  18.062  14.146  13.876 -0.0627 -0.0813  0.0586
 6184W        W23031  15.307  11.452   5.516  0.0828 -0.2082  0.0521
 6185W        W23032   2.509   0.753  10.894 -0.1220 -0.2759 -0.1926
 6186W        W23033   3.392   7.998  15.757  0.3526 -0.0750 -0.0073
 6187W        W23034  15.193   7.055  15.417  0.1232 -0.0129  0.1031
 6188W        W23035   6.481   1.806   3.004 -0.4470 -0.1737  0.0013
 6189W        W23036  11.166  10.506   1.533 -0.1498  0.3094 -0.4262
 6190W        W23037  18.799   9.907   2.309  0.1385 -0.0540 -0.0449
 6191W        W23038  12.865  16.710   2.990 -0.5327  0.1407  0.0536
 6192W        W23039   7.119  14.671   2.399 -0.1344 -0.4209 -0.1203
 6193W        W23040  17.870   9.976  12.776  0.2159  0.3029 -0.2774
 6194W        W23041  10.484  15.881   3.206  0.1692 -0.1838  0.0783
 6195W        W23042   7.161  14.239  11.626  0.2084  0.1921  0.1326
 6196W        W23043   8.630   3.642   2.103  0.0747 -0.1622  0.3099
 6197W        W23044  10.280   1.376   3.291  0.0162 -0.0522  0.1014
 6198W        W23045  15.141  12.311  15.395  0.3857  0.3337  0.3209
 6199W        W23046   2.397   7.652   3.301  0.3911  0.0418  0.3265
 6200W        W23047  14.634  15.303   0.867  0.0685 -0.2422 -0.0482
 6201W        W23048  15.899   0.565   1.233  0.1310  0.3102  0.0450
 6202W        W23049   2.020   4.306   0.396  0.1192  0.1187 -0.2109
 6203W        W23050  18.426   6.359   4.535  0.4360 -0.0539  0.1528
 6204W        W23051  15.800   4.492   2.971  0.1535  0.3387  0.0577
 6205W        W23052  12.081  16.540   4.735 -0.0484  0.3224 -0.0092
 6206W        W23053   3.766   8.473   0.097 -0.2703 -0.2442  0.0202
 6207W        W23054   8.365  13.195  15.199 -0.3523  0.0201 -0.2156
 6208W        W23055   2.181  13.718  10.160  0.1357 -0.1440  0.1079
 6209W        W23056  14.199  17.141   3.636 -0.3182 -0.1449  0.0812
 6210W        W23057  11.256   8.015  12.753  0.1003  0.0311  0.2082
 6211W        W23058   3.804  15.006   1.341 -0.2194  0.0843  0.0101
 6212W        W23059  18.157   9.595   5.765 -0.0031  0.0355 -0.0332
 6213W        W23060   6.760   3.986   0.843  0.1881 -0.0222 -0.0687
 6214W        W23061   1.358  17.723  15.092 -0.1798  0.0489  0.1682
 6215W        W23062   1.169  13.290   2.342  0.0479 -0.2008  0.2721
 6216W        W23063  16.229  11.011   2.463  0.1573  0.1316  0.1778
 6217W        W23064   8.133  14.795  11.423  0.1384  0.0693 -0.0243
 6218W        W23065  16.538  15.875   4.794 -0.1177  0.0535 -0.0500
 6219W        W23066  10.174  12.261  11.163 -0.1288 -0.5612  0.1586
 6220W        W23067  14.989  17.625  11.352  0.1830 -0.1569  0.0677
 6221W        W23068  16.498  12.960  13.782 -0.3559 -0.2677  0.0170
 6222W        W23069   1.107  18.435   4.533 -0.0484  0.5895 -0.0181
 6223W        W23070  18.619  15.565   1.642 -0.0488  0.0735 -0.5005
 6224W        W23071   2.254  15.458  11.111  0.0222  0.1573 -0.2555
 6225W        W23072  13.244   5.301   4.191 -0.3706  0.1767 -0.2561
 6226W        W23073  14.884  16.198   0.520 -0.1231 -0.2567 -0.1282
 6227W        W23074  10.027   3.670   3.329  0.3370  0.3136  0.1038
 6228W        W23075  18.147  10.450   5.352 -0.1404  0.0792 -0.0463
 6229W        W23076   2.865  17.538   0.023 -0.4192 -0.3972  0.1240
 6230W        W23077  18.456  11.827  14.988  0.3410 -0.0136 -0.1801
 6231W        W23078  17.520  17.272  15.613 -0.0683 -0.2414 -0.1411
 6232W        W23079  18.627   1.182  12.212  0.2543 -0.2714 -0.0144
 6233W        W23080  11.576   6.716  14.452 -0.1374  0.1121  0.0031
 6234W        W23081   3.798   6.684  12.931 -0.2762 -0.1290 -0.0669
 6235W        W23082  16.582   3.294   2.730  0.0664  0.0729 -0.1792
 6236W        W23083  12.255  11.299   0.530  0.3094 -0.0579 -0.3930
 6237W        W23084   3.287   3.181  12.824  0.1696 -0.1952  0.0725
 6238W        W23085   3.966   6.855   3.884  0.4049  0.2459 -0.1304
 6239W        W23086   5.348   5.843  14.213 -0.1050  0.2676  0.3216
 6240W        W23087  11.836   7.346   2.797  0.0585 -0.0962 -0.0090
 6241W        W23088   4.201   2.455   3.206 -0.2731  0.2611  0.0247
 6242W        W23089  16.336  11.224   5.378  0.2423  0.0183  0.0227
 6243W        W23090  12.441   6.477   2.279 -0.1693 -0.1083 -0.0613
 6244W        W23091   1.449   9.489  12.937  0.1768 -0.1636 -0.2611
 6245W        W23092  12.561   7.078  13.803 -0.3442  0.1031  0.2118
 6246W        W23093   0.468  12.444  12.149  0.1697 -0.2523 -0.0053
 6247W        W23094  18.009   3.676  14.200  0.0033  0.1027 -0.1771
 6248W        W23095  12.426   0.754   1.485 -0.2214 -0.1940  0.0648
 6249W        W23096  10.137  11.099  12.947 -0.2059 -0.1870  0.3266
 6250W        W23097   8.395   8.394   3.449 -0.2539  0.1544 -0.2131
 6251W        W23098  11.481  16.050   2.693 -0.1743  0.1922  0.0686
 6252W        W23099  16.157   0.496   0.704  0.3892 -0.3387 -0.2963
 6253W        W23100   7.452  12.515  13.239  0.1948  0.3352 -0.0650
 6254W        W23101   3.275   9.388  13.343  0.0201  0.2363 -0.0394
 6255W        W23102  16.409   2.541   6.479 -0.0817 -0.0101  0.0046
 6256W        W23103  14.845   9.918  13.167 -0.2541  0.3137  0.2466
 6257W        W23104   4.126   4.325  12.687 -0.1575 -0.1251 -0.0634
 6258W        W23105  11.395   5.586  14.886 -0.0107 -0.1954 -0.1898
 6259W        W23106   5.738  18.401   0.764 -0.0736 -0.1961  0.0173
 6260W        W23107   3.909  10.164  10.821  0.3491  0.1993 -0.0289
 6261W        W23108   3.222  15.952   3.506 -0.0932  0.1448  0.0368
 6262W        W23109  16.865  10.689  14.298  0.0797 -0.1395 -0.1185
 6263W        W23110  18.057  18.611   1.095  0.0734 -0.0976  0.1435
 6264W        W23111   7.404  14.991   4.916 -0.3238  0.0332 -0.2310
 6265W        W23112   0.632  15.376  13.686  0.0322 -0.0576 -0.0504
 6266W        W23113  10.814   8.339   2.746  0.3508 -0.0776  0.0203
 6267W        W23114  13.215  13.406  12.610  0.1366  0.1167 -0.2023
 6268W        W23115   8.676   5.007   3.140 -0.3516  0.0392  0.0796
 6269W        W23116   1.060   8.684   0.815  0.2617 -0.2760  0.0296
 6270W        W23117  17.488   2.801  13.348 -0.1058 -0.2270  0.1560
 6271W        W23118  10.159  17.267  14.029  0.3426 -0.0102 -0.1044
 6272W        W23119   2.766   8.304  11.336 -0.1624  0.0990 -0.1418
 6273W        W23120  17.052   5.603  15.503  0.1124 -0.0450 -0.2203
 6274W        W23121  10.870   5.967   2.667  0.2280 -0.0148  0.0440
 6275W        W23122  14.174   7.099   0.518  0.1469 -0.2111  0.2514
 6276W        W23123   4.529   5.876   1.405  0.0365 -0.0296 -0.1320
 6277W        W23124   0.473   5.491   0.185  0.0911  0.1910  0.2471
 6278W        W23125  15.166   0.174  14.763  0.2183 -0.0780 -0.2119
 6279W        W23126  14.900  17.081   5.522 -0.3163 -0.1805 -0.0707
 6280W        W23127  15.142   2.020   0.971 -0.0819 -0.0808  0.1725
 6281W        W23128   8.465  12.551   0.686 -0.0868  0.1229  0.2240
 6282W        W23129  18.256  18.338  13.884 -0.0599  0.1764 -0.3263
 6283W        W23130   1.683  15.352   4.396 -0.0066  0.3168  0.3180
 6284W        W23131   5.121  12.304   4.541  0.0203  0.2161 -0.1652
 6285W        W23132   8.254   5.388   0.890 -0.0941  0.2641  0.2214
 6286W        W23133  12.151  15.963   3.580  0.1976  0.0267 -0.0426
 6287W        W23134   8.213  18.696   0.203  0.3024 -0.0198  0.0964
 6288W        W23135   2.791   3.836  14.691 -0.1541 -0.2388  0.2428
 6289W        W23136  15.839   6.124   2.344 -0.1352  0.1719 -0.0139
 6290W        W23137  16.053   6.424  14.340 -0.1742  0.1534  0.1457
 6291W        W23138   4.451  17.443  12.922 -0.0752 -0.0053  0.1748
 6292W        W23139   9.599  16.339  11.449 -0.0860  0.1367  0.1183
 6293W        W23140  18.115   0.224  13.230 -0.3509  0.2782  0.0550
 6294W        W23141   6.390   4.866   0.330 -0.2647 -0.2209 -0.0975
 6295W        W23142  10.983   5.209  13.305 -0.2332  0.1257  0.0272
 6296W        W23143   6.066  11.387  14.139  0.0350 -0.0475  0.1677
 6297W        W23144   5.719  16.668   3.097 -0.2595 -0.1303  0.2591
 6298W        W23145   8.886  15.140  14.012  0.0481  0.0086 -0.5261
 6299W        W23146   5.514  10.753   3.275  0.0104 -0.2266 -0.0489
 6300W        W23147   0.805   5.467  13.030 -0.2226 -0.0491 -0.3614
 6301W        W23148  10.709   3.766   0.012  0.2003  0.2085  0.1286
 6302W        W23149   5.174   9.425   4.238 -0.0277  0.1467 -0.1945
 6303W        W23150   0.657  16.975  15.512 -0.2410 -0.2093  0.0216
 6304W        W23151  14.061   7.719  15.210 -0.1420 -0.2554  0.4747
 6305W        W23152   5.330   0.385   1.203  0.0247 -0.1725  0.1152
 6306W        W23153  11.664   0.192   1.129 -0.2146  0.0709 -0.0839
 6307W        W23154  18.586  12.233   0.668  0.2369  0.3924 -0.1486
 6308W        W23155   8.751   0.751  13.327 -0.0107 -0.0427 -0.3421
 6309W        W23156   8.498  14.666  14.002 -0.0683  0.1749 -0.2007
 6310W        W23157  14.558  11.181   2.638  0.1771  0.1796  0.0328
 6311W        W23158  12.793  14.199  14.078  0.2059  0.0918  0.4518
 6312W        W23159  16.175   1.700   4.783 -0.3954  0.2705  0.0585
 6313W        W23160  15.485  16.078   5.442  0.3075 -0.3239 -0.3650
 6314W        W23161  11.637   5.563   0.015  0.3000 -0.1239 -0.1054
 6315W        W23162   6.993  17.196  12.118  0.1662 -0.1211  0.0153
 6316W        W23163  18.495  14.558  15.251  0.1077  0.2598 -0.0580
 6317W        W23164   5.650   6.499   0.265 -0.1533 -0.1659 -0.0034
 6318W        W23165  15.556   0.945  12.090 -0.0169 -0.0177 -0.2208
 6319W        W23166   3.032   1.844  11.711  0.0179 -0.1542  0.1055
 6320W        W23167  12.189  11.356   0.055  0.2862 -0.2559 -0.2706
 6321W        W23168  17.777   9.186   2.435 -0.2803  0.0526  0.0965
 6322W        W23169   0.669   4.489  11.328  0.1342  0.0608 -0.1154
 6323W        W23170  17.139  16.634  13.289  0.1748  0.3078 -0.0426
 6324W        W23171  15.866   1.348  13.231  0.1819 -0.0030 -0.0010
 6325W        W23172   8.553   0.544  14.797  0.0372 -0.4012 -0.0482
 6326W        W23173   2.141   2.302   2.862  0.0800 -0.0276 -0.2691
 6327W        W23174  17.005   4.086  12.001  0.0688  0.1126 -0.1089
 6328W        W23175   1.977   6.087  12.220 -0.1095 -0.2681 -0.0282
 6329W        W23176   2.353   9.085   1.072  0.1720  0.2689  0.1439
 6330W        W23177  18.259  14.781   1.569  0.2216 -0.0196 -0.0149
 6331W        W23178   8.488  16.242  11.711  0.1906  0.1211 -0.0232
 6332W        W23179  15.030  13.846   6.012  0.1137  0.0193 -0.1380
 6333W        W23180   2.259   3.556  13.104  0.0746  0.0178 -0.4131
 6334W        W23181  15.701   8.985   1.727  0.2407 -0.1140  0.0494
 6335W        W23182   5.117  10.783   0.269 -0.0416  0.0247  0.2357
 6336W        W23183   7.929   1.218   0.413 -0.0363 -0.0471  0.3129
 6337W        W23184   8.038  17.155  15.010  0.1204  0.0078 -0.2290
 6338W        W23185   3.595  14.378  15.146  0.0921  0.0665 -0.0396
 6339W        W23186  12.886   0.185   3.011 -0.1784 -0.1048 -0.2066
 6340W        W23187  15.586  12.631   2.889 -0.2400 -0.2427 -0.0023
 6341W        W23188   2.868   3.616   2.792  0.1888  0.4027 -0.1942
 6342W        W23189   5.822   3.228  13.197  0.0043  0.0120 -0.2740
 6343W        W23190  17.596  17.308   1.151  0.2295  0.1411  0.1150
 6344W        W23191   3.494   5.888   3.130  0.2190 -0.4284  0.7016
 6345W        W23192   2.559   6.175  14.336  0.0812  0.1113  0.1320
 6346W        W23193  17.550   8.651   0.289  0.2711  0.0713 -0.1192
 6347W        W23194   3.029  17.107  13.777  0.1149  0.0032 -0.1614
 6348W        W23195  13.644  10.765  11.891 -0.0897  0.4402 -0.0613
 6349W        W23196   1.820   7.473   3.718  0.0397 -0.3978  0.0247
 6350W        W23197   3.182   1.894   0.474 -0.0043 -0.1853  0.1212
 6351W        W23198   0.945   3.740   5.499 -0.2599  0.0779  0.0435
 6352W        W23199  15.734  11.039  14.297  0.1471  0.1068  0.2483
 6353W        W23200  14.614   9.625  12.075 -0.2824  0.1115 -0.1381
 6354W        W23201   4.427   6.661   2.667  0.0449 -0.2052  0.0074
 6355W        W23202   0.933  18.215   2.414  0.0460  0.2931 -0.0031
 6356W        W23203  15.380  13.452   4.297  0.0344 -0.0147  0.0210
 6357W        W23204   9.116  14.434   1.603 -0.0793 -0.0607 -0.4098
 6358W        W23205   5.834   8.919  12.238  0.0434  0.0705 -0.0111
 6359W        W23206  17.498   7.303   5.865 -0.0489  0.2026 -0.0307
 6360W        W23207  17.949  16.767   4.929 -0.0672 -0.2767  0.1746
 6361W        W23208   7.901   8.982   2.968  0.3139  0.0022  0.0912
 6362W        W23209   9.478  16.832   3.668  0.5280  0.0166  0.0573
 6363W        W23210  14.348   7.542  11.731 -0.0270 -0.2759 -0.0463
 6364W        W23211   9.840   1.163  14.692  0.1934  0.1290  0.1817
 6365W        W23212   9.485   5.937   0.212 -0.1304 -0.2702  0.2435
 6366W        W23213  18.489   1.834   0.946  0.2411 -0.0807  0.0614
 6367W        W23214  17.005  17.245   0.020 -0.2030  0.1452  0.0635
 6368W        W23215   5.437   7.236   5.134 -0.0223 -0.2372 -0.1247
 6369W        W23216  16.946  14.447   6.227  0.1024  0.0862  0.1418
 6370W        W23217   1.045   7.472   5.206  0.0903 -0.0732  0.0095
 6371W        W23218   2.542  14.136  12.238  0.1436 -0.0797  0.1113
 6372W        W23219   4.520  16.582  12.442  0.1508 -0.0682 -0.2475
 6373W        W23220   8.236  11.254  11.107  0.0467 -0.0724 -0.1415
 6374W        W23221   8.338   3.900  13.354  0.1801 -0.2442 -0.2431
 6375W        W23222  18.166   5.983   4.330  0.0941  0.0651 -0.0466
 6376W        W23223  13.954   3.269   2.907  0.0748  0.0608  0.0791
 6377W        W23224   4.356   4.657   0.332  0.0878 -0.2872 -0.0389
 6378W        W23225   3.999   7.065   3.383  0.0249  0.1364  0.0563
 6379W        W23226   0.573  10.320   4.935  0.0042  0.1519  0.1196
 6380W        W23227   1.904   2.847   3.684 -0.2874  0.0034  0.1613
 6381W        W23228   2.860   9.092   3.444  0.0979 -0.0717  0.0975
 6382W        W23229   4.007  13.837  10.621 -0.0595  0.0371 -0.3251
 6383W        W23230   1.737   3.116   3.215 -0.1966  0.2106  0.2138
 6384W        W23231   3.593  10.708   2.743 -0.0400 -0.3442  0.2357
 6385W        W23232   7.295   6.022   2.946 -0.0854 -0.0830 -0.0583
 6386W        W23233  17.835   9.061  11.332 -0.0111  0.0314  0.0828
 6387W        W23234   1.951  17.688   0.198 -0.4351 -0.0794 -0.1041
 6388W        W23235   9.725   1.244   3.473 -0.0964  0.4033 -0.0752
 6389W        W23236   9.914  11.538  13.150 -0.1163  0.0948 -0.0069
 6390W        W23237   6.354  15.247   0.413 -0.3248 -0.0018 -0.1170
 6391W        W23238  15.266  14.678   0.826  0.0413  0.5215 -0.1361
 6392W        W23239   7.102  11.382   4.346 -0.0398  0.3220  0.0399
 6393W        W23240   1.546  10.938  14.453  0.2637  0.4383 -0.0011
 6394W        W23241   2.391   5.966   1.680  0.2122 -0.2124 -0.1049
 6395W        W23242  11.464   3.270  15.040 -0.0166  0.0538 -0.0277
 6396W        W23243   7.318   9.454  12.539 -0.1206 -0.1292 -0.1265
 6397W        W23244   0.537  11.634   2.886  0.1588 -0.1724  0.1861
 6398W        W23245  12.215   0.085  14.784  0.1332  0.0491 -0.2503
 6399W        W23246  13.781   1.590   0.069  0.0158  0.1744  0.3730
 6400W        W23247   5.847  18.024  13.393 -0.3665 -0.2924 -0.0880
 6401W        W23248   1.430   8.266   2.438 -0.1386  0.0032  0.0298
 6402W        W23249   9.654  13.318   1.960  0.1689 -0.2410  0.2486
 6403W        W23250   3.210   4.184   1.959 -0.0239 -0.0670 -0.2065
 6404W        W23251  11.755   6.798  14.931 -0.0960 -0.2189 -0.1848
 6405W        W23252   2.559   5.774  13.926  0.1469 -0.0251  0.2233
 6406W        W23253  15.066   3.852  15.586 -0.0186  0.1002 -0.0685
 6407W        W23254   4.710  18.837  14.763  0.1445  0.0170  0.0193
 6408W        W23255  17.948   3.408  15.113 -0.2910 -0.2151  0.0416
 6409W        W23256   8.232   2.783   5.224  0.1669  0.0632 -0.2392
 6410W        W23257   7.803   8.639  15.604 -0.2780  0.0153  0.1086
 6411W        W23258  11.005   5.253   5.151  0.0013 -0.0076 -0.2269
 6412W        W23259   6.585  12.857   5.576  0.1067 -0.0479  0.0115
 6413W        W23260  17.278  13.921  14.592 -0.1605  0.1317  0.2560
 6414W        W23261  16.910   9.104   3.518  0.0215  0.1217  0.0021
 6415W        W23262  10.271  13.063  10.401  0.1076 -0.0886  0.0661
 6416W        W23263  18.747  11.891  15.402 -0.2820 -0.1159 -0.0808
 6417W        W23264   3.111  18.422  13.791  0.1288 -0.2420  0.2534
 6418W        W23265  11.160   3.741  13.029  0.3842 -0.2543 -0.1743
 6419W        W23266   4.035  17.585   4.507 -0.1209 -0.2941 -0.0840
 6420W        W23267   7.849   7.396   0.167 -0.0819  0.0650  0.3227
 6421W        W23268   4.943  12.882   0.672  0.1768  0.1085  0.0205
 6422W        W23269  10.301   7.375   1.069  0.1871  0.0044  0.3360
 6423W        W23270  15.406  14.167  11.857  0.1546 -0.1740  0.0011
 6424W        W23271   4.168  10.520  14.443 -0.0220 -0.1049  0.2386
 6425W        W23272  16.368   1.493  15.566  0.2156  0.5635 -0.2024
 6426W        W23273  10.160   0.082  15.237  0.0212 -0.0448 -0.1347
 6427W        W23274   7.675   7.958  11.520  0.0733 -0.0509  0.1704
 6428W        W23275   4.276   6.789  15.249 -0.1714 -0.1904 -0.1819
 6429W        W23276   1.872   3.134   4.173 -0.0907  0.1324  0.2567
 6430W        W23277   9.880  14.830   1.077 -0.0256  0.0795  0.3138
 6431W        W23278  15.629   8.751  12.744  0.0233  0.0177 -0.3175
 6432W        W23279   3.988  11.069  12.074 -0.1065  0.2166  0.0756
 6433W        W23280  18.819   3.641   1.073 -0.0524 -0.0716  0.1495
 6434W        W23281  15.149   0.641   5.823 -0.2241  0.3489 -0.4583
 6435W        W23282   1.384   4.825   1.714  0.1716 -0.0285  0.1632
 6436W        W23283   5.812   4.590   4.220  0.0038 -0.1594 -0.0074
 6437W        W23284   1.499  18.724   4.970  0.2663 -0.0383  0.0263
 6438W        W23285   5.388  15.952   2.399  0.3508 -0.0296  0.2587
 6439W        W23286   4.727   6.067  12.122 -0.0933 -0.2209 -0.0472
 6440W        W23287  12.383   8.353  14.877 -0.0017  0.1823  0.0343
 6441W        W23288   8.792  11.828   0.104  0.0234  0.2572  0.0835
 6442W        W23289  14.718   9.553  14.026 -0.2276 -0.1555  0.3671
 6443W        W23290   3.463   7.110   2.704 -0.3810  0.0534 -0.2675
 6444W        W23291   3.492  16.291  12.323  0.0256 -0.1698 -0.1911
 6445W        W23292   2.331  11.042  11.923  0.1224 -0.0570  0.0190
 6446W        W23293  10.369   5.727   2.894  0.0101 -0.0449  0.2839
 6447W        W23294  18.220   8.840   3.050  0.2174  0.2330 -0.0721
 6448W        W23295  13.804   0.701   3.591 -0.0788  0.0006  0.0977
 6449W        W23296   6.333   4.669   3.768 -0.1303  0.1676 -0.2327
 6450W        W23297  17.936   1.207   2.305  0.2802  0.3005  0.6660
 6451W        W23298  18.730   8.663  12.164  0.2172 -0.0407 -0.3413
 6452W        W23299   5.852  15.416  15.284  0.3092  0.1881 -0.1459
 6453W        W23300  11.221  14.291  12.575 -0.1389 -0.0004  0.3243
 6454W        W23301  18.333  13.351   2.298 -0.1718  0.3213  0.0887
 6455W        W23302   5.758  18.831  13.870 -0.2153 -0.2275 -0.1600
 6456W        W23303   6.406   9.307  10.914 -0.0358 -0.0542 -0.1578
 6457W        W23304  16.997   5.686  13.100 -0.2695  0.0972  0.0413
 6458W        W23305   5.435  16.690   4.463  0.0779  0.3969 -0.4143
 6459W        W23306   5.996  12.051   2.413 -0.1718  0.0051 -0.1807
 6460W        W23307   3.745   8.437  11.087  0.0121  0.4002  0.1230
 6461W        W23308   7.920  16.619   0.638 -0.3387 -0.0134 -0.2354
 6462W        W23309   0.334   9.808  11.204 -0.1153 -0.1674 -0.1249
 6463W        W23310  16.705   0.256   4.637 -0.0164  0.1448 -0.1589
 6464W        W23311   8.888  13.231  10.992  0.2101 -0.0683 -0.3196
 6465W        W23312   8.821   7.595   1.250  0.2020 -0.0220  0.1805
 6466W        W23313   5.065  10.871  14.686 -0.2289  0.0203  0.0524
 6467W        W23314   5.840   3.639  15.036 -0.2586  0.1433  0.2154
 6468W        W23315  13.702   6.734   5.036  0.2123 -0.5860 -0.1346
 6469W        W23316   5.405   9.856   5.482  0.0643  0.0621 -0.0952
 6470W        W23317   4.577  13.430   0.303  0.1088 -0.1737  0.2744
 6471W        W23318  13.081   2.299   0.938 -0.0660 -0.1765  0.2174
 6472W        W23319   7.387  15.463   1.158 -0.0070 -0.5004  0.3406
 6473W        W23320  15.788  14.263  12.192  0.1334 -0.3921 -0.0446
 6474W        W23321   9.839   0.907  11.574 -0.3043 -0.0453 -0.1015
 6475W        W23322   4.621   7.412  14.300 -0.1079 -0.0938 -0.1295
 6476W        W23323   5.093  15.466  15.393 -0.3445  0.3546  0.0030
 6477W        W23324   9.664   1.206  10.913  0.3053  0.0437  0.1356
 6478W        W23325   3.162   3.222   3.640 -0.0036  0.1311  0.3337
 6479W        W23326   6.072  14.103  14.602 -0.0741  0.0101  0.0658
 6480W        W23327   7.791   4.205  10.723  0.0227  0.2970  0.1163
 6481W        W23328  17.077   2.366   4.276  0.0219 -0.3946  0.1010
 6482W        W23329   2.395   7.877  12.759 -0.0639 -0.2778 -0.0275
 6483W        W23330  12.984  15.243  11.630 -0.2392  0.1613 -0.0691
 6484W        W23331  15.010  13.316   4.615  0.1737 -0.0834  0.1772
 6485W        W23332  12.462   8.897   4.802 -0.0493  0.0124 -0.2643
 6486W        W23333  11.033  16.987   0.196 -0.1968  0.1278 -0.0224
 6487W        W23334  11.927  16.012  11.814  0.1517 -0.0387  0.0014
 6488W        W23335   0.433  11.262  11.389  0.0549  0.0888  0.1370
 6489W        W23336   1.110   6.795  11.505 -0.2991  0.1979 -0.0467
 6490W        W23337   7.764  11.599   2.083  0.1826  0.0040 -0.1238
 6491W        W23338  10.646   3.864  14.891  0.0419 -0.0752  0.0319
 6492W        W23339   8.241  18.570  11.541 -0.1537  0.0314  0.1415
 6493W        W23340   8.955  18.513   1.491 -0.0580 -0.1225  0.2078
 6494W        W23341  10.318   0.931  14.688  0.1571 -0.1372  0.1341
 6495W        W23342  18.258   8.855   4.931 -0.1949  0.0718 -0.0840
 6496W        W23343  16.127  15.675   0.117  0.0480 -0.2103 -0.1384
 6497W        W23344  11.887   4.774  15.319  0.1306 -0.0506 -0.2033
 6498W        W23345  18.658  15.118  15.280 -0.2960  0.0993 -0.1227
 6499W        W23346  14.600  18.795  15.516 -0.3735  0.0047  0.0982
 6500W        W23347   7.879  17.001   1.058  0.1040  0.3697 -0.2591
 6501W        W23348   0.610  17.040  12.031 -0.1231 -0.1945 -0.0601
 6502W        W23349  17.711  13.480   4.002 -0.0594 -0.1161 -0.2499
 6503W        W23350  10.930  10.466   4.980  0.0880 -0.2486 -0.1362
 6504W        W23351  10.460  11.418   5.011  0.1745 -0.1282  0.1431
 6505W        W23352   8.396   9.372   2.106  0.0344 -0.2352 -0.4449
 6506W        W23353  12.900  18.840  15.099 -0.1721  0.2482 -0.0842
 6507W        W23354  16.949  14.967   3.453  0.1925 -0.1188  0.1786
 6508W        W23355   8.709  17.889   3.787 -0.4565  0.3562  0.1387
 6509W        W23356   8.122  12.965   2.605 -0.0175  0.2550 -0.0591
 6510W        W23357   0.439   6.065  14.190  0.3185 -0.0799  0.1451
 6511W        W23358  12.269  12.446   2.127 -0.1048  0.0330  0.1212
 6512W        W23359  18.114  14.990  13.195  0.2663  0.0689  0.0729
 6513W        W23360   6.598  10.048   3.285 -0.2864  0.1692  0.2208
 6514W        W23361   3.006  14.767  11.095  0.0769 -0.0712  0.1151
 6515W        W23362   0.317   0.931  12.287 -0.0830 -0.0448 -0.0549
 6516W        W23363  18.378   5.838  14.220  0.0238  0.0101  0.0694
 6517W        W23364  13.867  14.949   4.001  0.3071  0.0582  0.0787
 6518W        W23365   0.512   0.967  15.047 -0.0300  0.2581  0.0288
 6519W        W23366   1.329  13.491  13.716  0.2033  0.0982  0.1700
 6520W        W23367   8.810  12.472  14.483 -0.0761  0.0134  0.4850
 6521W        W23368  18.479   5.493  15.383 -0.0216  0.0942  0.0861
 6522W        W23369  11.023   2.089  12.276 -0.0263 -0.0957  0.1000
 6523W        W23370   3.533   0.997  13.521  0.2731 -0.0291 -0.0062
 6524W        W23371   3.681   8.589  13.229 -0.3339  0.1037 -0.1974
 6525W        W23372  18.406  13.100   1.286 -0.0107  0.1955 -0.2743
 6526W        W23373   3.042  17.792  13.001  0.1702  0.0938 -0.0471
 6527W        W23374   6.932   6.106  15.447  0.1244  0.2062  0.3134
 6528W        W23375   4.812   0.899  11.678  0.0405  0.2429  0.2266
 6529W        W23376  13.401  10.439  12.282  0.1196 -0.0723 -0.1488
 6530W        W23377   2.060   1.303   3.246 -0.0608  0.0193  0.0309
 6531W        W23378  16.942  17.680   0.664 -0.2299 -0.6445 -0.2236
 6532W        W23379  10.563   6.849  12.456 -0.0143  0.1186  0.1088
 6533W        W23380  11.179  11.724   4.192  0.0584 -0.0996  0.1510
 6534W        W23381  11.737   2.091  13.800 -0.0584 -0.1721  0.1749
 6535W        W23382   9.484  16.005   2.336  0.0044  0.0760  0.0340
 6536W        W23383   6.895   6.833   3.477  0.2125  0.0425 -0.2066
 6537W        W23384   8.327  15.409   5.000 -0.2456 -0.1645  0.1344
 6538W        W23385   6.949  12.274   1.443  0.0244 -0.1336 -0.0497
 6539W        W23386  12.635   0.002   3.814 -0.0131  0.1039 -0.0592
 6540W        W23387  16.782   3.176   1.956 -0.3406  0.0044  0.1262
 6541W        W23388   4.778  12.847   1.465  0.1099  0.2275  0.2316
 6542W        W23389   3.387  17.172   3.426 -0.2808 -0.1539  0.1709
 6543W        W23390   9.571   1.854  14.138 -0.5887  0.2428  0.1180
 6544W        W23391  12.444  12.004  14.153 -0.2419 -0.0367 -0.0036
 6545W        W23392  12.136   2.808  15.577 -0.0086 -0.2246  0.0561
 6546W        W23393   3.008  11.097   3.333  0.0874  0.0182  0.2050
 6547W        W23394  16.409   4.173  13.742 -0.0312  0.0026 -0.0544
 6548W        W23395  12.594  11.700   0.211 -0.0370  0.1859 -0.0270
 6549W        W23396  11.572  15.873  12.921 -0.1658 -0.0147  0.4420
 6550W        W23397  15.796   4.844  15.114 -0.0134  0.7126  0.4156
 6551W        W23398   7.802  10.708   3.055 -0.2625  0.0231  0.0523
 6552W        W23399   6.788   4.634  12.311 -0.0812 -0.2229  0.0238
 6553W        W23400  17.844   5.688   6.425  0.0297 -0.0674  0.2249
 6554W        W23401   7.944   2.553   0.662 -0.2609 -0.3994 -0.2284
 6555W        W23402  16.950  10.115  11.953  0.0514  0.2646 -0.1022
 6556W        W23403   3.047   5.776   3.378 -0.0070  0.1561  0.3206
 6557W        W23404   3.450   1.893   2.774  0.1134 -0.2456 -0.3196
 6558W        W23405   7.950  11.949  10.742  0.0999  0.0939 -0.0822
 6559W        W23406   8.649   5.308   3.938 -0.1959  0.2472  0.1473
 6560W        W23407   6.431   0.213  15.641  0.0796  0.1989 -0.1299
 6561W        W23408  15.794   4.446   5.730  0.1792 -0.1488 -0.0561
 6562W        W23409  13.738   8.289   1.291  0.0559  0.0748 -0.1092
 6563W        W23410   0.327   0.456   3.335 -0.2371 -0.0125  0.1111
 6564W        W23411  15.802   9.597   2.827 -0.0940 -0.4579 -0.0592
 6565W        W23412  17.384  14.889   4.252 -0.1404  0.3055 -0.1978
 6566W        W23413   5.763  13.742   3.463  0.2420 -0.4102  0.0862
 6567W        W23414  10.669   2.469   1.864 -0.0031 -0.2380  0.1017
 6568W        W23415  16.784  18.716   5.554  0.1411  0.3328  0.1184
 6569W        W23416  17.187  11.016  11.816 -0.1098  0.1872 -0.0758
 6570W        W23417   7.954   3.142   1.750 -0.0332 -0.2941 -0.0939
 6571W        W23418   3.465  12.248   4.099  0.0717 -0.1596 -0.2646
 6572W        W23419  18.285  12.679   0.044  0.0408  0.0500  0.2361
 6573W        W23420  14.823   3.099   2.334 -0.1428 -0.0393  0.0610
 6574W        W23421   8.869   4.756  11.450  0.3150 -0.1048 -0.0484
 6575W        W23422  17.642   1.872  13.350 -0.0187 -0.1293  0.2336
 6576W        W23423   8.447   6.134   1.316  0.1856  0.1011  0.2751
 6577W        W23424   0.436  18.531   2.012 -0.0007 -0.0869 -0.1403
 6578W        W23425   5.795   4.580  14.598 -0.2398 -0.1573 -0.1196
 6579W        W23426  15.796  16.537   2.996  0.2560  0.3283  0.3049
 6580W        W23427  13.806  12.351  13.299 -0.1611 -0.0699  0.1946
 6581W        W23428   3.806   4.319   0.594  0.0066 -0.2692 -0.0534
 6582W        W23429   9.477  10.737   1.998 -0.1107  0.0713 -0.4897
 6583W        W23430   0.377   0.955   9.974 -0.0726  0.0963 -0.0492
 6584W        W23431  18.148   1.811  11.952  0.1657 -0.4842 -0.0452
 6585W        W23432   3.770  11.537   0.413 -0.0420  0.2764 -0.1095
 6586W        W23433   0.602  16.445  13.460 -0.0632 -0.2927  0.0771
 6587W        W23434   5.760   7.773   5.008 -0.3089  0.0555  0.0345
 6588W        W23435   5.173   7.488   3.823 -0.1770 -0.0954 -0.1592
 6589W        W23436   5.513   5.593  11.723 -0.0840 -0.0369  0.1473
 6590W        W23437  17.507  14.256  13.134  0.1196  0.0183  0.2161
 6591W        W23438  10.479  10.236   3.223 -0.0030 -0.2340 -0.1255
 6592W        W23439  14.431   7.454   3.645 -0.0260  0.2299 -0.1544
 6593W        W23440  17.937   5.293   0.370 -0.1906 -0.0204  0.0399
 6594W        W23441   6.006   2.893  15.063 -0.3394  0.1165 -0.0534
 6595W        W23442   9.089  16.530  14.416 -0.1291  0.0816 -0.1195
 6596W        W23443  13.177  11.100   5.220 -0.2170  0.1283  0.2898
 6597W        W23444  17.422   1.334   4.669 -0.0071 -0.0805  0.0069
 6598W        W23445   3.327   7.423   1.783  0.2245  0.0383  0.0765
 6599W        W23446   1.912  11.396   4.076  0.0108  0.1446 -0.0625
 6600W        W23447  13.109  18.307   4.269 -0.0819 -0.1739 -0.2813
 6601W        W23448   1.290  18.075   1.976 -0.2754  0.0237 -0.0970
 6602W        W23449   4.014  14.506  11.168 -0.1784  0.0172 -0.2225
 6603W        W23450  13.690   6.529   2.247  0.2533  0.4155 -0.0231
 6604W        W23451  12.352   7.368   2.814  0.1868 -0.0688 -0.0678
 6605W        W23452  12.645   4.213   1.794 -0.3136  0.0104  0.1583
 6606W        W23453   3.512   8.919  14.853  0.0557 -0.3538  0.2854
 6607W        W23454   0.605  11.955   2.506  0.1272  0.1189 -0.0622
 6608W        W23455   1.885   6.764  15.547  0.1701  0.0873  0.1425
 6609W        W23456  16.197  17.996   2.884  0.1454  0.1330  0.4147
 6610W        W23457  12.814   4.171  13.965  0.1091 -0.2719 -0.0447
 6611W        W23458   5.956   1.692   3.042 -0.4039  0.0040 -0.2370
 6612W        W23459   1.124   5.373   5.676  0.3491 -0.1734  0.1070
 6613W        W23460  14.339   9.033   3.079  0.0160 -0.3362  0.0015
 6614W        W23461   7.040  18.154   1.033 -0.2175 -0.2159  0.0882
 6615W        W23462  18.182  16.961   1.506 -0.1359 -0.1104  0.0584
 6616W        W23463   8.964  16.533   9.340  0.0891 -0.1147  0.5859
 6617W        W23464  16.897   9.853  15.374  0.0381 -0.3465  0.4251
 6618W        W23465   0.860  12.937  10.936 -0.0185  0.3318  0.2450
 6619W        W23466   9.722   4.628   2.505  0.0032  0.0583 -0.0179
 6620W        W23467   8.053   3.864  15.145 -0.0709  0.3536 -0.3310
 6621W        W23468  15.648  17.012  14.465  0.2650 -0.3457  0.0860
 6622W        W23469   3.230   3.749   0.948 -0.2919  0.0317 -0.0972
 6623W        W23470   1.880   3.712  12.557 -0.0865 -0.2491 -0.0614
 6624W        W23471  11.992  18.333   0.311  0.0198 -0.1855  0.1599
 6625W        W23472   7.281  18.763  11.421  0.1909 -0.5691  0.0665
 6626W        W23473  10.399   9.655   4.035  0.0984 -0.3035  0.2238
 6627W        W23474   3.833  14.216   0.065  0.1156  0.1652 -0.1142
 6628W        W23475   4.906  17.412  14.159 -0.5779  0.4521  0.1430
 6629W        W23476   7.926   0.541  11.946 -0.1192  0.0918  0.2593
 6630W        W23477  11.174  15.735   2.473  0.0599  0.1447 -0.3960
 6631W        W23478  17.376  10.980   1.974  0.0399 -0.0736  0.3713
 6632W        W23479   3.286   5.908   5.094  0.0418 -0.2519 -0.3341
 6633W        W23480   8.775  15.870   1.107  0.0431 -0.1057  0.1539
 6634W        W23481   7.921   7.369  13.877  0.0184  0.0637  0.0295
 6635W        W23482  12.091   9.274  12.313 -0.4180  0.2978 -0.2197
 6636W        W23483  14.039  17.809  12.997 -0.0001  0.3523  0.1841
 6637W        W23484   0.714  15.502  10.999 -0.0704 -0.0393 -0.0855
 6638W        W23485   3.425  13.213  11.231  0.3435  0.1207  0.0446
 6639W        W23486   4.970   0.809  13.355  0.1979  0.2111 -0.1473
 6640W        W23487  13.888   4.322  15.351 -0.3515 -0.0376  0.1392
 6641W        W23488   0.933  18.466  11.181  0.3471  0.1773  0.1311
 6642W        W23489   2.798  18.270  13.410 -0.1060  0.0516 -0.0089
 6643W        W23490   7.853   1.378  14.767 -0.2489  0.0932 -0.1499
 6644W        W23491   4.427   4.726  12.552  0.2220  0.1999 -0.2470
 6645W        W23492   7.126   6.027  13.190 -0.2671  0.1046 -0.2286
 6646W        W23493   6.766  11.230  14.724  0.1909  0.0700  0.1353
 6647W        W23494   6.030   2.928  12.850 -0.0551  0.1900  0.2383
 6648W        W23495   0.155   7.206   4.295  0.0841 -0.1495 -0.2045
 6649W        W23496  10.518  12.005  13.710  0.0562  0.2652 -0.0377
 6650W        W23497   8.688  14.248  11.076 -0.0482 -0.1346 -0.2014
 6651W        W23498   6.968   2.766  15.080 -0.0754  0.0756 -0.1328
 6652W        W23499   4.096  15.287   3.278 -0.0639 -0.0208 -0.3061
 6653W        W23500   2.843   5.747   1.326  0.0152  0.4933  0.3653
 6654W        W23501  17.803  14.923   1.691 -0.0489 -0.1204 -0.2190
 6655W        W23502   9.634  16.916   4.728 -0.1436 -0.1371 -0.0652
 6656W        W23503   1.554   0.177  13.698  0.1764  0.1178  0.0361
 6657W        W23504  15.521   3.250  11.828 -0.0532  0.1670  0.2600
 6658W        W23505  18.460  15.399   3.503 -0.4771 -0.3491 -0.1162
 6659W        W23506  18.417   9.900   5.464 -0.1837 -0.0927 -0.1610
 6660W        W23507   1.808   7.999   3.521 -0.1554  0.2450  0.1298
 6661W        W23508   5.040   9.958   1.116 -0.0195 -0.3176  0.1676
 6662W        W23509  14.087   0.853  15.525  0.1837  0.0452 -0.0175
 6663W        W23510  13.472  13.418   4.557  0.0653 -0.0142 -0.0889
 6664W        W23511   8.930  18.167   2.787  0.2863  0.1414 -0.3051
 6665W        W23512   3.882   6.234   2.128 -0.0874 -0.2862  0.0246
 6666W        W23513   5.826   4.101  14.810 -0.0128  0.2473 -0.1855
 6667W        W23514   5.735  12.721   4.459  0.3407  0.0790  0.2035
 6668W        W23515   7.457   4.896   3.956  0.2526 -0.1365 -0.3012
 6669W        W23516  14.030   1.182  14.462  0.1601 -0.1556 -0.1017
 6670W        W23517  17.216  11.690   5.959 -0.0053  0.0324 -0.0153
 6671W        W23518   9.103  12.821  10.428 -0.1447 -0.1573  0.0368
 6672W        W23519  15.818   9.875   5.141  0.0192 -0.0616  0.2099
 6673W        W23520  15.152  10.987  15.530 -0.1707  0.3738  0.2972
 6674W        W23521   1.781  15.353   0.680  0.0289  0.1382  0.2579
 6675W        W23522   8.002   1.317   3.556 -0.1719 -0.0507  0.0527
 6676W        W23523   2.634  16.385  11.377 -0.1532  0.0637  0.0887
 6677W        W23524  16.877  12.178  13.176  0.0473 -0.0707  0.0144
 6678W        W23525  13.497  14.602  15.027  0.1692 -0.0010 -0.1626
 6679W        W23526   1.098   2.975  14.477 -0.0473 -0.1356 -0.0329
 6680W        W23527  11.532  18.598   2.182 -0.0887 -0.2041  0.1159
 6681W        W23528   3.005  15.453   4.775  0.0281 -0.3392  0.2360
 6682W        W23529   6.306   6.327  13.136  0.0817  0.0336 -0.4472
 6683W        W23530  12.190   4.292   3.386  0.2267  0.0665  0.1030
 6684W        W23531   7.798   3.126  13.007 -0.1958 -0.0515  0.0591
 6685W        W23532   7.839  15.460   1.314 -0.1457 -0.0186 -0.1626
 6686W        W23533  16.369   1.067  15.280 -0.3211 -0.2578 -0.0925
 6687W        W23534   8.845  17.654  15.275 -0.0865  0.2522  0.0993
 6688W        W23535   5.496  12.954  11.185  0.0106  0.1113 -0.1112
 6689W        W23536   6.892  17.892   3.839  0.2853  0.0258  0.2021
 6690W        W23537   5.732   3.135   0.223  0.1534 -0.2136  0.2680
 6691W        W23538  11.688   9.151   3.851  0.1633  0.0614  0.0768
 6692W        W23539  13.427  17.616   4.197  0.1334 -0.0194  0.2306
 6693W        W23540  12.186  18.818  13.743  0.1066  0.1294  0.0702
 6694W        W23541  14.119   4.639   1.583 -0.2634 -0.0762 -0.2316
 6695W        W23542  14.506  10.425   3.018  0.1134  0.1093  0.0892
 6696W        W23543   8.238  16.482  10.325  0.1344  0.3845 -0.0458
 6697W        W23544  11.516  17.226   3.367  0.1376  0.0707  0.1753
 6698W        W23545   0.804   7.364   3.939  0.0224 -0.0000 -0.0727
 6699W        W23546   4.641   5.145   2.858 -0.0855 -0.1860  0.4110
 6700W        W23547   0.600   3.250   1.837  0.0060 -0.1678 -0.0271
 6701W        W23548  17.764   6.735  12.962  0.1918 -0.0805  0.2135
 6702W        W23549   0.039   8.105  12.981 -0.1026  0.2514 -0.0444
 6703W        W23550   9.690   7.954  12.823  0.3729  0.2892  0.0105
 6704W        W23551   7.322  14.642   1.499 -0.0937 -0.2359  0.3759
 6705W        W23552   0.365   4.766   4.868  0.1694  0.0320 -0.5676
 6706W        W23553  12.005   8.856   1.093 -0.1364  0.1273 -0.1687
 6707W        W23554   8.873  17.073  14.670 -0.2814  0.2707  0.2656
 6708W        W23555   3.685  18.541  12.440 -0.2291  0.3016  0.1928
 6709W        W23556   6.032   3.275   1.094 -0.1267 -0.2033 -0.1857
 6710W        W23557   4.273   2.402   1.493  0.2158 -0.3336  0.0077
 6711W        W23558  10.187   6.529  12.289 -0.3340  0.0072 -0.1431
 6712W        W23559   1.756   6.955  13.251  0.1525 -0.2164 -0.1640
 6713W        W23560  14.907   8.034  12.466  0.2407  0.0518 -0.1534
 6714W        W23561   9.246  17.768  11.057  0.0107 -0.2593  0.1807
 6715W        W23562   2.487   9.594  14.788  0.2149 -0.1500  0.1079
 6716W        W23563   6.511   6.842  15.331  0.2552 -0.0205  0.0897
 6717W        W23564   0.219   3.072   0.233  0.2307 -0.2285  0.0320
 6718W        W23565   9.104  10.294   5.259 -0.0459 -0.1733 -0.0228
 6719W        W23566   8.946  16.036  15.335  0.3269  0.2888 -0.2025
 6720W        W23567  10.216   7.802  13.757  0.0278  0.3093 -0.0571
 6721W        W23568  18.619   7.404  12.700 -0.1516 -0.2111 -0.0151
 6722W        W23569  16.567  13.538   1.627 -0.1007  0.1318  0.1067
 6723W        W23570   0.192   6.835  13.602  0.1169  0.1080 -0.1946
 6724W        W23571   9.054  10.226   0.018 -0.0557  0.0713  0.0751
 6725W        W23572   9.019   4.290  13.671  0.0387 -0.1011 -0.0792
 6726W        W23573   9.373  16.585   3.165  0.0457  0.0285  0.0287
 6727W        W23574  14.235  16.227   3.444 -0.1625  0.0828  0.1914
 6728W        W23575   2.943  16.493  13.274 -0.2867 -0.1210  0.2185
 6729W        W23576  10.474  15.003   1.740 -0.1278 -0.3368  0.0744
 6730W        W23577   8.163  16.688  15.436 -0.0804 -0.3968 -0.1647
 6731W        W23578   0.084  14.740  11.698  0.1061  0.0814 -0.2102
 6732W        W23579  15.956  17.679   5.176 -0.1876  0.0004  0.0375
 6733W        W23580   6.780   1.751   0.445 -0.1573 -0.4355  0.0590
 6734W        W23581  12.370   9.182  15.286  0.2085 -0.1036 -0.1650
 6735W        W23582   7.092  18.502   1.328  0.0826 -0.1152 -0.1829
 6736W        W23583   5.733  10.628   2.817  0.1938 -0.0327  0.1559
 6737W        W23584   7.332  15.445   4.075 -0.1085  0.0242 -0.0332
 6738W        W23585   0.126   1.515   4.309 -0.4110  0.0177  0.2240
 6739W        W23586  16.747   5.826   2.454  0.1211  0.0972 -0.0892
 6740W        W23587  10.824  10.462  10.611  0.1128  0.0016  0.1371
 6741W        W23588   7.894   6.973  13.084 -0.3043  0.1803  0.0380
 6742W        W23589  14.643   9.112  12.408 -0.0781  0.1522  0.0836
 6743W        W23590  11.509   3.970   2.701 -0.3550 -0.0645  0.0676
 6744W        W23591  11.589   7.163  12.536 -0.0077 -0.3078 -0.0276
 6745W        W23592  10.730  12.717  13.272  0.2737 -0.0666  0.0284
 6746W        W23593   8.300  14.408   3.046  0.0226  0.1837  0.2888
 6747W        W23594   8.970   3.079   1.784 -0.0698  0.0487 -0.2081
 6748W        W23595  18.374  11.668  13.875 -0.0182  0.3793  0.0081
 6749W        W23596  15.810   2.246  12.941 -0.3804 -0.0902  0.5065
 6750W        W23597   9.870   6.223   2.834 -0.1431 -0.2773  0.2503
 6751W        W23598   5.167  11.532  12.690 -0.0056  0.0087  0.2875
 6752W        W23599   5.902   7.543   0.280 -0.2900 -0.0683 -0.0665
 6753W        W23600   7.677  14.645   1.988 -0.0411  0.0152 -0.1023
 6754W        W23601  12.283   4.653   0.189  0.0239  0.2490 -0.1356
 6755W        W23602   9.821  12.757  14.633 -0.4853 -0.0081  0.0389
 6756W        W23603   0.492   2.541  14.195  0.0921 -0.0387 -0.1105
 6757W        W23604  18.229  18.793   3.092 -0.0806  0.0527 -0.0687
 6758W        W23605  18.532   7.911   3.211  0.3669 -0.2038  0.0010
 6759W        W23606  15.334   0.619   3.055 -0.1047  0.1517 -0.2129
 6760W        W23607   8.458   7.515   0.429 -0.0979 -0.2295 -0.0172
 6761W        W23608   9.940  17.442   3.321 -0.1322 -0.0797  0.4308
 6762W        W23609   8.476   5.371  12.948 -0.2199 -0.0330  0.0065
 6763W        W23610   9.751   9.789  12.520  0.1999  0.0410 -0.0278
 6764W        W23611   7.559   9.882  12.285 -0.0280  0.2551  0.2835
 6765W        W23612   1.437  13.288   4.694 -0.3152  0.1689 -0.1561
 6766W        W23613   9.459  18.153  10.811 -0.0356  0.2713  0.1819
 6767W        W23614   7.606   9.483   1.166 -0.0237  0.5220 -0.0133
 6768W        W23615   1.077   6.982   4.107 -0.0769 -0.2917  0.3479
 6769W        W23616  16.785   4.139   2.018  0.3201 -0.2705 -0.1272
 6770W        W23617   4.336   8.463  14.458 -0.1384  0.2070 -0.0689
 6771W        W23618   0.164   2.974   1.918  0.6742  0.4223 -0.0728
 6772W        W23619  17.448  18.809  11.694  0.0523 -0.2320 -0.1153
 6773W        W23620   3.479  15.321   4.893  0.1656  0.2363 -0.1973
 6774W        W23621  10.990   9.849   3.957  0.0380 -0.1009  0.1687
 6775W        W23622   0.840  15.980  14.682  0.4739  0.0850  0.2298
 6776W        W23623  16.232  14.345   5.144 -0.0149 -0.1267 -0.1391
 6777W        W23624  10.990   5.369  14.761 -0.4853  0.4569  0.4575
 6778W        W23625  11.105   3.853   1.849  0.3241 -0.0330  0.1266
 6779W        W23626   8.564   3.438  13.710  0.1274  0.1663  0.2473
 6780W        W23627   1.599   5.713  12.096 -0.0463  0.1877  0.2615
 6781W        W23628   6.010   5.476  15.153 -0.2556  0.2254  0.2582
 6782W        W23629  18.764  14.385  13.481 -0.2384  0.1770  0.1358
 6783W        W23630  16.758   6.764  11.674  0.1470  0.0153  0.0862
 6784W        W23631   2.145   0.727   2.508 -0.3907  0.1688  0.0622
 6785W        W23632  15.215   1.291  11.132 -0.2203  0.0148 -0.2141
 6786W        W23633  18.709   4.194  15.508 -0.2078 -0.1203  0.3147
 6787W        W23634   4.821  11.571   5.921 -0.4666 -0.0349  0.2004
 6788W        W23635   6.340   1.440  14.631  0.2286 -0.0340  0.2043
 6789W        W23636   9.665  11.628   1.886 -0.2450  0.1793 -0.1347
 6790W        W23637  11.264  14.545  14.539  0.1614  0.2591  0.0584
 6791W        W23638  14.604  16.993   0.286 -0.0305 -0.5530  0.1630
 6792W        W23639   8.236   5.374   4.307 -0.1856 -0.1565 -0.1431
 6793W        W23640  17.804  11.641   4.576  0.1962 -0.0332  0.1730
 6794W        W23641   3.508   9.773   3.611  0.1560  0.1086 -0.2285
 6795W        W23642  10.850   5.122   0.975  0.2798 -0.1652  0.0230
 6796W        W23643  13.953  12.764  13.045 -0.1134  0.2452 -0.0854
 6797W        W23644   3.878  10.705   1.621 -0.0285 -0.1484  0.1213
 6798W        W23645   1.053  11.795  15.172 -0.2847  0.2644 -0.0037
 6799W        W23646  14.908  11.283  12.422  0.0938 -0.0447  0.2568
 6800W        W23647  16.103   9.984  11.111 -0.0913  0.1689 -0.0548
 6801W        W23648  18.200   4.277  13.076 -0.2152  0.1075  0.2457
 6802W        W23649  15.118   8.937   3.680 -0.2824 -0.0181  0.0963
 6803W        W23650  10.051   8.919   4.893 -0.0410 -0.1601 -0.1211
 6804W        W23651   5.582  14.325  10.519  0.5393  0.2057  0.0009
 6805W        W23652   4.562  11.668   5.485  0.1787 -0.0077  0.3448
 6806W        W23653   1.118  11.454   0.614  0.0998 -0.2666 -0.0815
 6807W        W23654  15.624  14.662  14.559  0.2180  0.0103 -0.0113
 6808W        W23655   5.659   0.824   4.490  0.0175  0.1291  0.3510
 6809W        W23656   1.797  10.091  11.247  0.1704 -0.0207  0.3561
 6810W        W23657  12.444   7.764   1.736 -0.0689  0.0520 -0.0189
 6811W        W23658   7.759   8.217  10.411  0.2083 -0.3654  0.0962
 6812W        W23659   8.623  14.287  14.866 -0.0526 -0.0693 -0.1407
 6813W        W23660   3.198   0.050   1.670  0.1315  0.0676  0.2309
 6814W        W23661   6.518   1.404  11.218 -0.1766  0.1474 -0.0698
 6815W        W23662  11.592  11.789   5.540 -0.1957 -0.2915  0.0458
 6816W        W23663  15.209  15.982  14.473 -0.1465  0.0653  0.1188
 6817W        W23664   4.552   2.681   4.646  0.0582  0.0653 -0.3233
 6818W        W23665   3.430  15.828   4.921  0.0236  0.2559 -0.3440
 6819W        W23666  18.126  17.887   4.652 -0.2098  0.0816 -0.3221
 6820W        W23667  11.869   9.362  12.792  0.3506 -0.0009  0.3052
 6821W        W23668   5.078   6.892   5.558  0.3254  0.1989 -0.0074
 6822W        W23669  16.570  12.686  13.182  0.1429  0.1045  0.0650
 6823W        W23670   5.774   6.000  14.386  0.1018 -0.2344 -0.1185
 6824W        W23671  10.153   2.008   2.652  0.0356 -0.0258 -0.1226
 6825W        W23672  17.892   0.021   0.401  0.0945 -0.2256  0.2239
 6826W        W23673  12.813  13.413  14.432  0.2481 -0.1760 -0.0261
 6827W        W23674  16.096   9.362   2.483 -0.0022  0.0730 -0.3399
 6828W        W23675  17.119   4.594   3.255  0.0125  0.0345 -0.0594
 6829W        W23676  18.268  11.184  13.583  0.0695 -0.1220 -0.1108
 6830W        W23677  15.972   9.975   5.714  0.2234 -0.1179  0.0024
 6831W        W23678   1.693  11.679  15.109 -0.0314 -0.1319 -0.1631
 6832W        W23679  10.443  15.172   2.558  0.1992 -0.0519 -0.0679
 6833W        W23680  13.478   0.955   2.353 -0.1785  0.1092  0.0736
 6834W        W23681   5.103  16.598  10.728  0.0505 -0.1606 -0.1519
 6835W        W23682   8.341  11.849  11.040 -0.2263  0.2108 -0.2732
 6836W        W23683  11.197  15.888  13.344  0.1414 -0.2617  0.0695
 6837W        W23684   0.915  14.574  12.331 -0.3199 -0.1249 -0.3909
 6838W        W23685  13.471  18.661   4.246 -0.0446  0.0706 -0.0136
 6839W        W23686  18.248  17.693  14.625 -0.0678 -0.0020  0.3538
 6840W        W23687   1.685   4.990  12.615 -0.1534  0.1851  0.0730
 6841W        W23688  16.129   3.711  12.310 -0.1198 -0.3607  0.3988
 6842W        W23689   7.088  10.119   2.971  0.0325 -0.0864 -0.1578
 6843W        W23690   7.414   8.106   5.322 -0.1146  0.0742  0.2584
 6844W        W23691  12.547  13.246   3.470 -0.0857 -0.3754 -0.2581
 6845W        W23692  11.343   5.688  15.422  0.2298 -0.2056 -0.0023
 6846W        W23693   5.247  16.241  11.563 -0.1259 -0.3586 -0.0337
 6847W        W23694   4.191  17.824  15.529  0.0669 -0.0658  0.0269
 6848W        W23695  13.961   9.390   2.649 -0.6000 -0.0337  0.3106
 6849W        W23696  11.832   1.802  11.195 -0.1635  0.2267  0.2024
 6850W        W23697   9.451   8.461  11.706 -0.1160  0.0552 -0.1514
 6851W        W23698  17.658   2.992   0.881  0.0157  0.1025 -0.1719
 6852W        W23699   7.657  15.796   0.336  0.1605  0.0479  0.1177
 6853W        W23700   5.544  10.666   0.203  0.0262  0.4563 -0.2706
 6854W        W23701  12.694  12.406   2.338 -0.0760  0.2142  0.0693
 6855W        W23702  17.133   0.225   3.655  0.0445 -0.0246  0.0730
 6856W        W23703  16.285  18.327   4.355 -0.1142  0.0717 -0.1927
 6857W        W23704   5.397  14.755  12.820  0.1829 -0.3171  0.2061
 6858W        W23705   5.978   4.376  12.623  0.1159  0.0823 -0.1253
 6859W        W23706   9.711   9.936   3.436 -0.1494  0.3782  0.0490
 6860W        W23707  16.885   5.389  13.966  0.1407  0.0470 -0.1330
 6861W        W23708  10.940   0.384   5.493 -0.0751  0.0940  0.4047
 6862W        W23709  16.116  18.228  14.956 -0.3011  0.4171 -0.1038
 6863W        W23710  14.366   8.091  13.435  0.1586  0.0886 -0.2298
 6864W        W23711   5.986  17.453  10.333 -0.1440  0.1391  0.0569
 6865W        W23712  17.717  18.262  14.746  0.2742  0.4008  0.1430
 6866W        W23713  13.661  14.670  12.764 -0.0262 -0.1603 -0.0837
 6867W        W23714  12.939  16.211   2.533  0.0330  0.1726  0.1007
 6868W        W23715  14.616   3.423  11.938 -0.0463  0.2637  0.3552
 6869W        W23716   5.993  12.417  15.654 -0.1400 -0.1511  0.2993
 6870W        W23717  17.453  10.225  11.807  0.3545 -0.2673  0.0541
 6871W        W23718   4.517  16.622  15.660  0.3272  0.2606 -0.0313
 6872W        W23719  14.700   8.815  13.958  0.1877 -0.0362 -0.1956
 6873W        W23720   3.881  13.030  12.019 -0.2206  0.3560  0.0255
 6874W        W23721  11.325   2.321  13.972 -0.0855  0.0058  0.0961
 6875W        W23722   4.911  11.599   2.222  0.0149  0.1143  0.0335
 6876W        W23723  16.473  15.179  13.326 -0.1807  0.1568  0.2089
 6877W        W23724   9.428  10.709   4.127  0.2525 -0.1777  0.1324
 6878W        W23725  14.553  15.471  13.428  0.0505  0.0524 -0.3103
 6879W        W23726  15.966   8.641   0.604  0.3315 -0.1742 -0.3232
 6880W        W23727   5.981  12.651  13.806  0.0479  0.1454 -0.1869
 6881W        W23728   4.727   7.327  13.253  0.0349  0.0757 -0.0351
 6882W        W23729  16.645   7.196   3.256  0.1974 -0.0435 -0.2075
 6883W        W23730  15.075   5.664   4.785  0.0180 -0.2336  0.0280
 6884W        W23731  12.891   1.716   1.594 -0.2951  0.0571  0.2238
 6885W        W23732  15.422   4.618   2.011 -0.0064 -0.2866  0.0827
 6886W        W23733   6.348   6.418   1.412 -0.4342  0.1176  0.2016
 6887W        W23734  17.000   7.706  12.527  0.1352 -0.3430 -0.0969
 6888W        W23735   9.782   6.997   2.008  0.3528  0.1943  0.1324
 6889W        W23736   5.778   2.121   4.182 -0.3389 -0.0587 -0.1025
 6890W        W23737  11.019  12.207   4.294 -0.2442  0.3386  0.0494
 6891W        W23738   5.644  10.915  12.414  0.2986 -0.1504 -0.2873
 6892W        W23739  10.726  12.547   4.777 -0.3120 -0.0615 -0.0928
 6893W        W23740   8.560  18.797  12.221 -0.2869  0.1875  0.0642
 6894W        W23741   2.150   1.151   2.272 -0.1260  0.0972 -0.0292
 6895W        W23742  11.773  13.860  11.326 -0.0756 -0.2388 -0.1696
 6896W        W23743  17.767  15.931  13.418 -0.1311 -0.1764  0.2650
 6897W        W23744   7.623   4.126   4.517 -0.3257 -0.2465  0.0025
 6898W        W23745   1.423  17.834   1.420  0.1441  0.2243 -0.1544
 6899W        W23746  13.581   8.178   2.695  0.4259  0.1317  0.2241
 6900W        W23747  15.204   7.337  12.060 -0.1200 -0.1371 -0.0130
 6901W        W23748   8.894   0.689  11.983  0.1789  0.3415  0.3129
 6902W        W23749   4.045   2.299   0.588 -0.1442 -0.1001  0.0387
 6903W        W23750  14.022   8.898  13.594  0.1009 -0.0535 -0.0456
 6904W        W23751  17.551   1.534   2.524  0.0914 -0.0688 -0.2317
 6905W        W23752   1.947   8.657  13.938  0.0335  0.2976  0.0601
 6906W        W23753   5.311   6.408   2.968 -0.3571 -0.0792  0.4326
 6907W        W23754  18.456   7.393  14.326 -0.2235  0.0364 -0.0935
 6908W        W23755   2.019  16.388   0.090  0.0563  0.3074 -0.1272
 6909W        W23756   8.528   1.535  15.685  0.2601  0.2302 -0.0401
 6910W        W23757   7.436  16.059   3.476 -0.1039  0.3031 -0.0445
 6911W        W23758   4.234  12.088  11.772 -0.2496  0.1798 -0.1084
 6912W        W23759   7.505  11.517  13.841 -0.0373 -0.1722  0.1955
 6913W        W23760  13.926   9.688  14.819  0.2925  0.2826  0.0035
 6914W        W23761  10.416  10.637  13.073  0.3080  0.2470  0.4195
 6915W        W23762  13.703  13.550  12.807 -0.0785 -0.0293 -0.1299
 6916W        W23763  13.798   8.758   1.557 -0.3759 -0.1382  0.3628
 6917W        W23764   1.319   8.029   4.075 -0.0705 -0.5053  0.1028
 6918W        W23765  10.431   9.602  13.211 -0.2227  0.0216  0.1186
 6919W        W23766  13.776   5.235   2.550 -0.6255 -0.1807 -0.3952
 6920W        W23767   9.558   8.401   1.462 -0.0371  0.0875  0.2481
 6921W        W23768   5.152   8.344   4.570  0.0206  0.1855  0.0899
 6922W        W23769  14.679   0.852  12.253 -0.4003 -0.2097  0.1075
 6923W        W23770   3.608  13.136   5.078  0.0222  0.1300 -0.3504
 6924W        W23771   4.061   2.182  11.027 -0.1412  0.2524  0.0503
 6925W        W23772  12.658   1.475  13.158 -0.2119  0.0521  0.1181
 6926W        W23773  10.476   2.153  12.719 -0.2806  0.2067  0.0462
 6927W        W23774   1.646  13.547   1.074 -0.0361  0.0616 -0.0209
 6928W        W23775   3.076  12.814   1.579 -0.1647 -0.0385  0.0641
 6929W        W23776   6.488   2.067   5.586 -0.2517 -0.3332  0.0585
 6930W        W23777  14.718   9.985   1.972  0.1634 -0.0242 -0.2997
 6931W        W23778   3.293   8.611  14.571  0.5960 -0.0069  0.2315
 6932W        W23779  11.629  11.780   3.614  0.1943  0.0607  0.1828
 6933W        W23780  13.863   9.338  15.558  0.1352  0.1510 -0.0606
 6934W        W23781   5.677   4.588   0.284  0.0560  0.1947  0.1606
 6935W        W23782  10.412   7.889   4.364 -0.2096  0.0467  0.0458
 6936W        W23783   1.573  11.112   4.941  0.0038  0.0050  0.4352
 6937W        W23784   7.569   4.683   0.884  0.1358  0.0716  0.0670
 6938W        W23785  18.742   9.738   3.259  0.4879 -0.0986  0.1626
 6939W        W23786   0.006   9.272   3.844  0.3102 -0.3821  0.1830
 6940W        W23787  14.279   8.658   5.173 -0.2213 -0.2958 -0.2738
 6941W        W23788  11.290   3.340   0.674  0.4517 -0.1928  0.2294
 6942W        W23789   8.438   5.895   2.189 -0.3459  0.0322 -0.2635
 6943W        W23790  14.236   6.245  14.174  0.1496 -0.0627  0.0001
 6944W        W23791  10.652   0.504   1.470  0.2738 -0.2667 -0.0259
 6945W        W23792  11.801  13.213  12.460  0.4808 -0.0606  0.2794
 6946W        W23793   3.116   8.290   4.720 -0.2275  0.1798 -0.0591
 6947W        W23794  16.765  16.500   4.416 -0.0094 -0.0018  0.1496
 6948W        W23795  15.867  16.931   5.425 -0.1376 -0.0146 -0.0346
 6949W        W23796  15.929   0.448   0.130 -0.4637  0.0340 -0.0885
 6950W        W23797  13.077   1.055   3.274 -0.1452 -0.1689  0.1725
 6951W        W23798  12.486  17.872  14.068 -0.0205 -0.0771 -0.2879
 6952W        W23799   5.629  11.580  13.175  0.1751  0.1170  0.1020
 6953W        W23800  15.526  16.440   0.568  0.0991 -0.0581 -0.3197
 6954W        W23801   6.711   8.490   1.015  0.1149  0.2509 -0.2690
 6955W        W23802  17.197  12.574   2.754 -0.0145 -0.0052  0.2173
 6956W        W23803  15.697   2.035  13.762  0.0230 -0.2219 -0.0304
 6957W        W23804  10.487   1.313  12.212 -0.1406 -0.1148  0.2413
 6958W        W23805  16.204   7.353   5.147  0.0789  0.0558 -0.2229
 6959W        W23806   2.313   1.070   4.951 -0.0129  0.2360 -0.0150
 6960W        W23807   3.877  11.420  12.583 -0.1910 -0.2807  0.1997
 6961W        W23808   1.989   3.938  13.403 -0.1420  0.1736 -0.2135
 6962W        W23809  17.483   5.814   2.947  0.0673 -0.1702 -0.4156
 6963W        W23810  11.453  14.658   3.379 -0.2482  0.1506 -0.0060
 6964W        W23811  14.696  12.339  14.055 -0.1610  0.4975  0.0682
 6965W        W23812   3.352  11.935   3.753 -0.3311 -0.1017  0.0543
 6966W        W23813   9.175   6.656   3.350  0.2542 -0.1554 -0.0445
 6967W        W23814  15.932   9.476  11.256 -0.2723 -0.1023 -0.0102
 6968W        W23815   7.074   2.451  13.430 -0.2870  0.3110  0.1098
 6969W        W23816  16.974   6.368  14.662  0.3087 -0.2001 -0.0446
 6970W        W23817  16.691  16.314   2.898 -0.0811 -0.1389  0.0839
 6971W        W23818   8.684  17.430  15.688 -0.0747  0.0734  0.0400
 6972W        W23819  14.062   2.484   3.923  0.0891  0.1493 -0.1070
 6973W        W23820   5.657   9.063   4.462 -0.1476 -0.1088  0.0554
 6974W        W23821   8.572   1.125  13.036 -0.0887 -0.2920 -0.0078
 6975W        W23822  15.530  11.458   2.841 -0.1577  0.4805  0.3324
 6976W        W23823   7.614   7.635   3.399  0.0583  0.2618  0.0157
 6977W        W23824  13.203   8.664  15.149 -0.1922  0.1425 -0.0380
 6978W        W23825   5.326  15.562   1.881  0.1722  0.4364  0.1597
 6979W        W23826  17.962  12.978  13.074 -0.3604 -0.0953 -0.2653
 6980W        W23827  17.580   8.553   5.203  0.0876  0.1059 -0.0769
 6981W        W23828  13.218  16.691  11.145 -0.0277 -0.1613  0.3940
 6982W        W23829   9.516  16.308  12.822 -0.0988 -0.1991  0.0191
 6983W        W23830   2.366  17.916  13.518  0.0882 -0.0154  0.0874
 6984W        W23831   5.553  15.687  10.856 -0.2203  0.0039 -0.0640
 6985W        W23832   4.016   3.547   3.407  0.0886  0.0678 -0.1007
 6986W        W23833   8.452   9.138  15.409 -0.0868  0.1659 -0.0452
 6987W        W23834   0.091   4.190   1.854  0.1139 -0.2048  0.0390
 6988W        W23835   5.369   8.950  14.233  0.1611  0.0824  0.1413
 6989W        W23836   5.238   3.722   3.109  0.0020 -0.0738  0.1944
 6990W        W23837  12.347   6.362   0.652 -0.2124 -0.0567 -0.2538
 6991W        W23838   6.840  17.440   0.769 -0.0192 -0.1129 -0.0086
 6992W        W23839  11.983   6.575   1.476 -0.0636 -0.0909  0.0217
 6993W        W23840   6.932   1.997  11.738 -0.2149 -0.2492 -0.3989
 6994W        W23841   9.200  17.495   0.678  0.1889 -0.4242 -0.2359
 6995W        W23842  14.400  12.805  13.881 -0.1364 -0.3033  0.1567
 6996W        W23843   4.588   1.227  15.253 -0.0543  0.1857 -0.2127
 6997W        W23844   6.977   5.411   1.491 -0.1336  0.4124  0.1545
 6998W        W23845   0.990   1.381   1.929  0.1303 -0.2783  0.1703
 6999W        W23846   4.101   2.659   1.952 -0.0253  0.0720  0.4936
 7000W        W23847  13.743  18.178  12.558 -0.3920 -0.1521 -0.0821
 7001W        W23848   5.541   4.507  15.080 -0.5042  0.0577 -0.0262
 7002W        W23849   1.365   3.715   4.912 -0.2115 -0.1006  0.0436
 7003W        W23850  16.826   0.414   2.711 -0.0778 -0.0314 -0.0039
 7004W        W23851   5.615   4.514   3.351  0.4000 -0.2589 -0.0239
 7005W        W23852   2.120  18.262  14.765 -0.1281  0.2250  0.0593
 7006W        W23853  14.568  17.683  15.317 -0.2114 -0.0411  0.3344
 7007W        W23854  15.165  16.544  15.317  0.2769  0.3584 -0.2380
 7008W        W23855   0.685  17.306   5.286  0.0879 -0.1026 -0.1780
 7009W        W23856   7.852  16.375   2.084  0.1046 -0.0208 -0.1966
 7010W        W23857   2.006  16.204  13.522 -0.0085  0.0059 -0.0890
 7011W        W23858   7.002  14.289   1.341 -0.1106 -0.1530 -0.1221
 7012W        W23859   7.058   6.904   5.317  0.1101  0.1894  0.0831
 7013W        W23860   3.361   0.010  12.085  0.0435 -0.3869 -0.2076
 7014W        W23861  12.667  17.427   0.620  0.2203 -0.0020  0.1933
 7015W        W23862   3.159   1.930   4.731 -0.1119 -0.1859  0.2979
 7016W        W23863   6.077   0.195  13.542 -0.0049 -0.0630 -0.0462
 7017W        W23864   8.654   0.217  13.501  0.0932  0.1516  0.0442
 7018W        W23865  10.706   6.141  13.516 -0.1901  0.0289 -0.1236
 7019W        W23866  10.781   2.618   2.881 -0.1632  0.2892 -0.1945
 7020W        W23867  12.763  16.961  12.080 -0.1909  0.2603 -0.1776
 7021W        W23868   9.388   5.825   1.608 -0.2080  0.2767  0.1348
 7022W        W23869  15.413  17.275   0.540  0.1061  0.2177 -0.1184
 7023W        W23870   0.104   3.416  11.686 -0.0836 -0.0405  0.1391
 7024W        W23871   8.187  17.524  12.606 -0.1923 -0.1076 -0.0528
 7025W        W23872  13.950   6.780  13.348 -0.1226  0.1200 -0.0678
 7026W        W23873  11.659   1.754   2.652  0.1043  0.0610 -0.0338
 7027W        W23874   8.272   6.830   4.018  0.0945 -0.0949  0.0634
 7028W        W23875  12.769  15.154  12.717 -0.0084 -0.0850  0.0276
 7029W        W23876   3.371  10.049   1.874 -0.0335  0.0414  0.0215
 7030W        W23877  15.381  15.225   5.440  0.1396  0.0005 -0.3528
 7031W        W23878   5.356   9.492   0.573  0.0472 -0.2005  0.0640
 7032W        W23879  10.563  11.275  10.274 -0.0913 -0.1855  0.2830
 7033W        W23880  15.610   2.437   4.089 -0.3455 -0.1334  0.0246
 7034W        W23881   7.353   5.614   4.803  0.4291 -0.2664  0.0255
 7035W        W23882   9.753  15.438  15.769  0.0432  0.0361  0.0016
 7036W        W23883  10.672  10.700  11.068  0.0202  0.2786  0.3659
 7037W        W23884   4.880  11.917  13.541  0.0138 -0.0877  0.2472
 7038W        W23885  16.002  12.925   1.486  0.2858  0.0540 -0.0048
 7039W        W23886   8.475  11.550  12.209  0.2050 -0.3854 -0.1874
 7040W        W23887  13.581  16.793   2.086 -0.0422 -0.1293  0.1333
 7041W        W23888   5.118  12.828   1.111 -0.2424 -0.1849  0.0151
 7042W        W23889   4.935   7.075   1.909  0.0932 -0.2736  0.2541
 7043W        W23890  11.413  12.378  12.870 -0.1778 -0.0656 -0.0444
 7044W        W23891  10.905  16.946  10.891  0.1658 -0.5587 -0.1029
 7045W        W23892  12.703  11.114  14.027  0.0616 -0.0766  0.0025
 7046W        W23893   9.616  15.567   3.222 -0.2375  0.1368  0.0830
 7047W        W23894   9.212  16.195   1.115  0.2452 -0.0209 -0.1382
 7048W        W23895  11.529   4.037  13.264  0.1722 -0.2768 -0.1340
 7049W        W23896  17.613  12.859  12.184 -0.1578 -0.1882  0.0263
 7050W        W23897  16.163   1.265   4.463  0.0437 -0.1832  0.0391
 7051W        W23898  12.168  15.120   0.126  0.3577 -0.0646  0.0632
 7052W        W23899   4.101   7.845  13.497 -0.0036 -0.1138  0.2371
 7053W        W23900  16.348   5.548  14.025  0.1555  0.0160 -0.0929
 7054W        W23901   4.830   8.733  10.065  0.1024 -0.1993  0.2731
 7055W        W23902   8.960  18.023  12.939 -0.1673  0.2019 -0.3629
 7056W        W23903  14.644  16.952   3.555  0.2724 -0.1280 -0.0271
 7057W        W23904  17.284   4.593  15.187 -0.3038 -0.1090  0.1373
 7058W        W23905   4.387  10.614   2.322  0.0242  0.2364  0.0092
 7059W        W23906  14.291  17.331   2.626 -0.1101 -0.0050 -0.2252
 7060W        W23907  11.727   4.823   0.419  0.0756  0.2674  0.0325
 7061W        W23908   0.465   8.567  11.084  0.0689  0.4294 -0.1467
 7062W        W23909  10.029  11.341   2.987 -0.0176  0.0233  0.2395
 7063W        W23910   9.142   5.963  14.148  0.2237  0.3251 -0.2705
 7064W        W23911  14.435  16.329  13.944 -0.3175  0.2160  0.1214
 7065W        W23912   4.704   4.251  12.765 -0.1335  0.4868 -0.1265
 7066W        W23913   4.422   7.731  15.398 -0.1102  0.0835 -0.1837
 7067W        W23914  14.903   1.360  11.553 -0.1497  0.1034  0.3376
 7068W        W23915   2.036   5.632   3.968  0.2245 -0.1521 -0.2085
 7069W        W23916  10.655   2.207   0.507 -0.2963  0.2765 -0.3009
 7070W        W23917  14.546  13.931   0.951  0.1337 -0.0806  0.1541
 7071W        W23918  12.613   0.735  12.156  0.1979  0.2702 -0.1091
 7072W        W23919   0.205  10.561   3.704 -0.1364  0.1173  0.1846
 7073W        W23920   5.943  15.389  14.795  0.1310  0.4210  0.1530
 7074W        W23921   4.868  11.002  10.243 -0.1601  0.1253  0.2720
 7075W        W23922  18.450   2.574  14.538  0.0676 -0.0022 -0.0687
 7076W        W23923   3.798  11.018  15.196  0.1414 -0.1836  0.1192
 7077W        W23924  14.920   9.276  11.928 -0.4181 -0.2473 -0.0869
 7078W        W23925  12.265   4.623   1.874 -0.2480  0.2701  0.0853
 7079W        W23926  12.129  15.057  11.375 -0.2136 -0.0230 -0.3138
 7080W        W23927   5.792   7.951   3.542  0.0672 -0.1459 -0.0798
 7081W        W23928  18.506  16.599   0.468  0.0989 -0.1941  0.0989
 7082W        W23929  10.711   9.148   1.241 -0.0037  0.1846  0.1178
 7083W        W23930  12.713   4.935  11.077  0.0587 -0.2372 -0.1577
 7084W        W23931  16.748   3.054   1.285  0.0499 -0.0516  0.1564
 7085W        W23932  10.659   2.829  12.875 -0.3454 -0.0093 -0.0884
 7086W        W23933   7.206  16.187   1.399  0.0649  0.0298  0.1672
 7087W        W23934   8.583  17.826  12.599 -0.1413 -0.1553  0.2550
 7088W        W23935  12.870  13.733   1.752  0.0547  0.2451 -0.0450
 7089W        W23936   3.694  14.913  13.855 -0.3302  0.0103 -0.1210
 7090W        W23937   7.877   8.549  13.413 -0.0128 -0.2736  0.3558
 7091W        W23938  10.175  10.845   0.421  0.0198  0.0703  0.1456
 7092W        W23939   2.856   6.980   4.503  0.0484  0.0107  0.2305
 7093W        W23940  14.011  13.069   0.584  0.0016 -0.1791  0.2712
 7094W        W23941   8.369   4.562   1.023  0.2506  0.2287  0.1616
 7095W        W23942  17.787   5.877   4.749 -0.0145 -0.0920  0.2446
 7096W        W23943   5.673   1.465   3.354 -0.2209 -0.1403 -0.1923
 7097W        W23944   3.940  13.472   1.266  0.1829 -0.1060  0.0826
 7098W        W23945  17.833  13.314  14.319  0.1556 -0.2052  0.1059
 7099W        W23946  16.492  14.695  13.851 -0.1934 -0.0859  0.0105
 7100W        W23947  13.277  12.295  15.196  0.1952  0.2544  0.1473
 7101W        W23948   1.952   9.109   4.931 -0.1490 -0.0084  0.0198
 7102W        W23949   5.399  15.256  14.822  0.0305  0.2435  0.2213
 7103W        W23950  11.439  10.313  10.876 -0.0145  0.0334 -0.3127
 7104W        W23951  10.470  16.050  13.858  0.1713 -0.3757  0.0104
 7105W        W23952   4.350   3.330  11.544 -0.1200 -0.1107 -0.2970
 7106W        W23953   1.343   1.350   5.903  0.1758  0.2679 -0.0522
 7107W        W23954   8.539  10.682   2.862  0.3108  0.1236 -0.2454
 7108W        W23955   2.466  10.327  13.017  0.1639 -0.1188  0.0267
 7109W        W23956  11.986  14.139   4.795 -0.0752 -0.0519 -0.0565
 7110W        W23957   3.146  10.661   3.543 -0.2402 -0.2993 -0.3723
 7111W        W23958   1.135   8.735   2.646  0.2580  0.1270  0.0950
 7112W        W23959  13.167  10.594   2.545  0.1061  0.4386 -0.2277
 7113W        W23960  18.241   6.172   2.431  0.0649  0.0144 -0.1421
 7114W        W23961  11.680   2.605  11.843  0.1924  0.1455 -0.0994
 7115W        W23962   5.599  11.932   5.243 -0.2601  0.0222 -0.3361
 7116W        W23963   2.634  13.774   3.808  0.0794  0.1446 -0.3706
 7117W        W23964  10.647   6.619   2.295  0.0415  0.1650 -0.1203
 7118W        W23965   1.685   7.212   3.011 -0.1734 -0.1946 -0.0031
 7119W        W23966   8.482   4.980  11.240  0.0699 -0.0971  0.2151
 7120W        W23967  16.517  11.066   1.975 -0.2313  0.0216  0.1721
 7121W        W23968   0.298  17.370  13.468  0.3214  0.0513 -0.0254
 7122W        W23969   6.163  10.160   2.392  0.2577  0.0607 -0.2808
 7123W        W23970  15.094   3.376   4.615  0.2182  0.0394  0.1993
 7124W        W23971   7.737   9.420  13.799  0.2044 -0.2775 -0.3097
 7125W        W23972  13.772   5.263  13.563  0.0160 -0.2286 -0.3424
 7126W        W23973  10.210  12.155   0.605  0.0492 -0.1430 -0.1131
 7127W        W23974  15.439   7.941  12.451  0.2242  0.1278  0.1155
 7128W        W23975   0.212  12.038  14.966 -0.1441  0.0374 -0.0214
 7129W        W23976   3.543   6.850  11.297 -0.1450  0.1969 -0.2200
 7130W        W23977   4.609  13.598   1.232  0.2333 -0.0326  0.2064
 7131W        W23978  18.721   4.993   2.276  0.0528 -0.0834  0.1110
 7132W        W23979  15.172  18.775  13.545 -0.1803 -0.0474  0.3773
 7133W        W23980   1.483  14.316  11.755  0.4200  0.1327 -0.2214
 7134W        W23981  18.309  15.643   4.805 -0.0561  0.0206  0.1111
 7135W        W23982   2.448   8.762  11.869  0.2661  0.3227 -0.1391
 7136W        W23983  12.131   0.845  13.464 -0.3644 -0.0248  0.0927
 7137W        W23984   9.728   1.733  11.259 -0.0129  0.4117  0.0080
 7138W        W23985  18.091   9.460  14.815 -0.1700  0.3783 -0.1097
 7139W        W23986  17.744  18.286   5.254 -0.1738 -0.1459  0.2473
 7140W        W23987  14.674  16.248   1.048 -0.4556  0.1431 -0.0345
 7141W        W23988  12.542   0.879  12.692  0.0927 -0.2392 -0.1856
 7142W        W23989  13.045   8.381   3.969  0.2687 -0.3586  0.0642
 7143W        W23990  10.795   2.188   3.877  0.1144 -0.1810  0.2333
 7144W        W23991  14.199   7.171   3.288  0.2327  0.0656  0.1299
 7145W        W23992  10.570   3.018  11.154  0.0307 -0.1607  0.0779
 7146W        W23993   5.388  14.589  12.293  0.0430  0.0059 -0.0985
 7147W        W23994   8.177   1.321  14.248  0.2053  0.2507  0.2455
 7148W        W23995  14.126   2.784  10.932 -0.1986 -0.0749  0.3233
 7149W        W23996  11.443   8.675   4.115  0.2015  0.0154  0.1729
 7150W        W23997   6.653  13.554  12.547  0.0554 -0.0990  0.0348
 7151W        W23998  12.963   8.246   1.120 -0.2681  0.1931  0.1035
 7152W        W23999   4.145  13.440  11.901 -0.0516  0.1958  0.4617
 7153W        W24000  17.200   2.992   5.229 -0.1997 -0.0541  0.5666
 7154W        W24001  17.536  12.746  13.665 -0.0602  0.1931 -0.1032
 7155W        W24002  13.974  14.393   5.835 -0.1414 -0.3505  0.1656
 7156W        W24003  14.023   8.867  11.682  0.1071 -0.0398 -0.1077
 7157W        W24004   1.032   5.208  13.429 -0.1737  0.0873  0.0855
 7158W        W24005  13.922  18.163   4.849  0.2667  0.2570 -0.0846
 7159W        W24006   1.530   6.835   2.096  0.3995 -0.2059 -0.1297
 7160W        W24007  15.709   1.567  14.595  0.3555 -0.0920  0.2337
 7161W        W24008  15.368  14.595   4.794 -0.1586  0.0832  0.2557
 7162W        W24009   1.285   4.645  11.900 -0.0501  0.0993  0.0670
 7163W        W24010  18.792   7.327   1.797 -0.0610 -0.3042  0.0559
 7164W        W24011   7.466   1.702  15.519  0.0688  0.0760 -0.0249
 7165W        W24012  12.241   3.567  13.548 -0.1488 -0.0579 -0.0249
 7166W        W24013  17.977   6.219  14.968  0.1929 -0.0650 -0.3091
 7167W        W24014  13.955   8.911  12.994 -0.2282 -0.0211 -0.1732
 7168W        W24015   1.786  16.609  15.480 -0.2172  0.0878  0.1088
 7169W        W24016  10.319  14.499  12.588  0.0739 -0.0003  0.0587
 7170W        W24017  11.623   5.612  12.557  0.0681  0.2060 -0.0352
 7171W        W24018   2.213  14.252  11.258 -0.0048 -0.3421  0.0020
 7172W        W24019   3.553   6.286   1.706 -0.0878  0.0096  0.0361
 7173W        W24020  12.965  16.177  14.027 -0.0421  0.0179  0.0759
 7174W        W24021   4.551  14.876  12.052 -0.3679 -0.0437 -0.0270
 7175W        W24022  11.549   4.200  11.852  0.5775  0.1204  0.1788
 7176W        W24023   4.632   5.917  13.486 -0.0014  0.0009 -0.2647
 7177W        W24024   3.943   0.862   2.267  0.1746  0.0784 -0.0547
 7178W        W24025  12.406  13.928   4.274  0.3161  0.2997  0.2492
 7179W        W24026  10.430  15.132  14.347 -0.0312 -0.0908  0.2188
 7180W        W24027   3.755   2.559   5.004 -0.4864 -0.2350  0.2024
 7181W        W24028   8.783   9.939  13.412  0.1845 -0.0509 -0.1068
 7182W        W24029   9.651   2.410  13.122 -0.1362 -0.1033 -0.1670
 7183W        W24030  10.628   6.875   3.402  0.0778  0.2001  0.3112
 7184W        W24031  16.352   1.914   2.554  0.2405  0.0102  0.1237
 7185W        W24032  14.950  10.049   4.542  0.4887  0.1514 -0.2073
 7186W        W24033  17.589   3.689   1.747  0.2942  0.0467 -0.0963
 7187W        W24034   4.426   8.280   2.832  0.0548  0.1924  0.0723
 7188W        W24035  13.830  17.696   4.466  0.2637  0.0891  0.1555
 7189W        W24036  17.249   3.474  12.930  0.0639  0.3443  0.1585
 7190W        W24037  14.161   2.676  11.965 -0.4615 -0.1958  0.2439
 7191W        W24038  14.035   0.340   3.904  0.0225 -0.2785 -0.1913
 7192W        W24039  10.180  18.114   1.117 -0.1233 -0.1558 -0.2771
 7193W        W24040   9.230  15.511  15.379 -0.1362 -0.1251  0.1822
 7194W        W24041   4.219  16.199   1.478  0.1117  0.2270  0.0762
 7195W        W24042  12.389  11.761   4.361  0.0127 -0.3599  0.1703
 7196W        W24043   6.584  16.260  12.377 -0.0765  0.3451 -0.0272
 7197W        W24044   9.228  10.156   3.393 -0.2243  0.2446  0.1692
 7198W        W24045   1.612   6.967   2.585  0.1970  0.2253 -0.1410
 7199W        W24046  16.843  18.736  11.844  0.1397 -0.0717 -0.0564
 7200W        W24047   3.948   7.267   0.538 -0.2740 -0.1878  0.0090
 7201W        W24048   7.353   8.550   2.072  0.0165  0.0277 -0.1164
 7202W        W24049  12.967   6.128   3.553  0.0718  0.4628 -0.0337
 7203W        W24050   3.600  12.148   1.141 -0.0338  0.1181  0.0830
 7204W        W24051  15.333  17.027   1.293  0.0154  0.1130 -0.0274
 7205W        W24052  16.793   2.858  11.869  0.3728 -0.0229 -0.2840
 7206W        W24053   8.614   4.694  12.997  0.2248  0.0882  0.0565
 7207W        W24054   8.684   2.641   3.889  0.0441  0.0027  0.0986
 7208W        W24055  12.500   1.254  14.512  0.1062  0.2057  0.2844
 7209W        W24056   3.416   6.236   2.311 -0.3851 -0.1702 -0.3065
 7210W        W24057   8.625   9.440  12.182  0.0835 -0.1648  0.1191
 7211W        W24058   8.809  13.940  12.224  0.0729  0.2122  0.1190
 7212W        W24059   6.214   2.259  14.283 -0.1931 -0.3547  0.2124
 7213W        W24060   8.348  18.327  12.328  0.2195  0.0393 -0.0203
 7214W        W24061   3.923  11.568   5.511 -0.0198 -0.0524 -0.3255
 7215W        W24062  11.248   1.428   4.073  0.0500 -0.0163  0.2803
 7216W        W24063  14.834   6.890   4.758 -0.0141 -0.1833  0.0428
 7217W        W24064   4.161   0.507  10.916 -0.1659  0.0975  0.0329
 7218W        W24065   8.473   2.507   2.481 -0.5514  0.1054 -0.1073
 7219W        W24066   6.672   1.183  11.661 -0.1827 -0.2865 -0.2893
 7220W        W24067   6.892   9.828   2.249 -0.2661 -0.1921 -0.0068
 7221W        W24068   8.961  16.755   2.213 -0.1538  0.3264  0.0272
 7222W        W24069  11.030  10.416  11.956 -0.3365  0.1386  0.0361
 7223W        W24070   8.032   7.395  13.340 -0.1352 -0.0770 -0.0360
 7224W        W24071   0.798   2.066   2.016 -0.2168  0.0923 -0.6703
 7225W        W24072  14.159   2.507   3.425 -0.0856 -0.0305  0.4416
 7226W        W24073   0.120   5.623   5.991  0.0929 -0.0475 -0.0029
 7227W        W24074   2.425   0.664  14.695 -0.0290  0.0413 -0.1244
 7228W        W24075  18.765   9.751   0.521 -0.0190  0.1665  0.3537
 7229W        W24076   2.450  10.662   4.913 -0.2640  0.0829 -0.1773
 7230W        W24077   2.976  10.287  11.967  0.1363  0.0974 -0.2868
 7231W        W24078  12.152   6.469  15.003  0.2150 -0.1502  0.0253
 7232W        W24079   0.517   5.714   3.177  0.1287 -0.0192 -0.3502
 7233W        W24080   0.450   4.596   0.935 -0.0702  0.1809 -0.0903
 7234W        W24081   1.687   6.558   0.585  0.1950  0.1207  0.0232
 7235W        W24082  15.766  17.433  13.569  0.0608 -0.0958 -0.0584
 7236W        W24083   7.105  18.678   4.120 -0.0161 -0.2569 -0.1615
 7237W        W24084   3.082   8.796   5.656 -0.0860 -0.1615 -0.1905
 7238W        W24085  11.795  11.510  12.240 -0.1674  0.1899  0.1205
 7239W        W24086  17.352   3.218   1.900  0.2881  0.4370  0.4084
 7240W        W24087  18.062   0.939   0.500 -0.0814 -0.3256  0.1981
 7241W        W24088  15.550   5.532   3.048  0.0544  0.2356  0.0316
 7242W        W24089   0.921   5.263  14.598  0.0713  0.0963 -0.0796
 7243W        W24090   9.256  14.819   3.562  0.1214 -0.4364 -0.1264
 7244W        W24091   6.898   5.394   0.678 -0.1096 -0.1587  0.1910
 7245W        W24092   8.495   3.863  11.328 -0.0510  0.2598  0.0231
 7246W        W24093   9.779  17.525  14.329  0.1794  0.0656 -0.3723
 7247W        W24094  16.778   0.760  15.597 -0.1748  0.0277 -0.0408
 7248W        W24095  10.632  11.982   0.117  0.1110 -0.2030 -0.3059
 7249W        W24096   1.446   2.659   3.460 -0.1825  0.4985 -0.0230
 7250W        W24097   5.537   3.221   1.180  0.2446  0.0443  0.0096
 7251W        W24098  14.843   0.796   6.204  0.1136  0.2220  0.0837
 7252W        W24099  16.197  14.531  11.958  0.2436 -0.1022  0.0584
 7253W        W24100  13.900   6.336  12.422 -0.2696  0.1838 -0.4164
 7254W        W24101   8.900   6.464  13.924  0.2208  0.1549  0.0993
 7255W        W24102  17.466   5.249   0.016 -0.3179  0.1858  0.3790
 7256W        W24103  12.648   6.767   0.683 -0.0759  0.3314 -0.0167
 7257W        W24104   9.828   2.821  14.209 -0.1175 -0.0167 -0.0900
 7258W        W24105   5.638   7.207  14.220 -0.1896 -0.0311  0.3396
 7259W        W24106   2.131  12.295   2.993  0.1565  0.2241 -0.0028
 7260W        W24107   4.767   5.603  12.970 -0.0885 -0.0626 -0.0869
 7261W        W24108   8.634   8.027   4.381  0.1218  0.0946 -0.0822
 7262W        W24109   1.460  17.981  10.777 -0.0177  0.2703 -0.0175
 7263W        W24110   7.665   3.520  15.344  0.0148  0.0217  0.1846
 7264W        W24111   2.746  15.449  15.551 -0.0320  0.1569  0.0803
 7265W        W24112  14.228  17.481  13.270  0.0540 -0.1768 -0.1390
 7266W        W24113  17.267  16.211  14.782 -0.2359 -0.0599  0.1943
 7267W        W24114  18.243  15.186   1.916  0.0399  0.0587  0.3570
 7268W        W24115   8.641   2.928  12.434  0.4596 -0.1651 -0.2038
 7269W        W24116   7.991  11.174  15.532  0.0705 -0.1062 -0.0498
 7270W        W24117  16.317   3.120   5.522 -0.1098 -0.0398 -0.2151
 7271W        W24118   2.009   5.811  13.043 -0.2045  0.0073  0.0039
 7272W        W24119   8.717   2.806   0.878  0.2066 -0.2300  0.2822
 7273W        W24120  16.623   3.396  13.922 -0.1558  0.2106 -0.0368
 7274W        W24121   0.271  18.808  14.108  0.1092 -0.0655  0.0291
 7275W        W24122   5.531   0.228  13.432  0.3292 -0.1724  0.0866
 7276W        W24123   9.244  11.806  11.944  0.3481 -0.0026 -0.0549
 7277W        W24124  10.595   6.925  11.095 -0.1731 -0.2766  0.4153
 7278W        W24125  17.302   8.375  11.217 -0.3982 -0.4065 -0.2541
 7279W        W24126   9.968  12.471   0.939  0.2821 -0.3224 -0.1721
 7280W        W24127   5.077  18.357  13.864 -0.1511  0.0127 -0.2155
 7281W        W24128   4.360   1.990   0.309  0.5141 -0.2990 -0.2318
 7282W        W24129  11.375  15.147   1.122 -0.1307 -0.1848  0.1278
 7283W        W24130  13.748  14.618   5.453  0.0257 -0.1712  0.1957
 7284W        W24131   0.573   8.628  14.470  0.0620 -0.3250  0.0716
 7285W        W24132  16.894   4.786   1.163  0.1673 -0.1927  0.0952
 7286W        W24133   4.309   6.325  15.049 -0.0945  0.2294 -0.1626
 7287W        W24134   7.009  15.385  11.982  0.0646 -0.0780 -0.0989
 7288W        W24135  13.511   8.926  12.900  0.0134  0.1179  0.0450
 7289W        W24136  16.382  16.045   5.701  0.1279  0.0288 -0.0900
 7290W        W24137   0.704   3.728   4.077 -0.1152 -0.2100 -0.0832
 7291W        W24138  18.373   6.250  14.570  0.2908  0.2450 -0.3955
 7292W        W24139   0.266  17.403   3.418 -0.0296  0.1771  0.3328
 7293W        W24140   5.679  11.834   3.368  0.0798 -0.2120 -0.0558
 7294W        W24141   6.054  11.718   3.740  0.0657  0.3031 -0.1165
 7295W        W24142   1.590   5.080   2.079 -0.0299 -0.0069 -0.2292
 7296W        W24143   3.476   9.117   0.033 -0.4896 -0.3421  0.2771
 7297W        W24144   7.349  16.809  11.247 -0.3465  0.2401  0.1392
 7298W        W24145  15.595  18.569  15.483  0.2044  0.1320 -0.1663
 7299W        W24146   4.260   0.769   4.456  0.0300 -0.3128  0.0347
 7300W        W24147   6.109  17.881   0.643 -0.1138 -0.3201  0.0968
 7301W        W24148   2.689   4.480   1.263 -0.3361  0.0353 -0.0353
 7302W        W24149   5.045   2.422  12.166 -0.1016  0.2092 -0.2878
 7303W        W24150  16.229   6.537   3.883 -0.2307  0.0102  0.1165
 7304W        W24151   5.323  11.866   4.298 -0.0808  0.1610  0.0531
 7305W        W24152   9.387  12.961  11.375 -0.2222 -0.2200  0.2794
 7306W        W24153  16.649   4.656  13.466  0.3114 -0.0948 -0.2140
 7307W        W24154  12.292  13.279  12.718 -0.0632 -0.1122  0.0464
 7308W        W24155  13.002  10.105  14.421  0.1366  0.0228 -0.2585
 7309W        W24156  16.696  18.008   5.702 -0.2125 -0.0400 -0.1190
 7310W        W24157   1.460  11.996  11.449 -0.0549  0.0418 -0.3806
 7311W        W24158  15.923   6.285  11.718 -0.0580 -0.0135  0.1888
 7312W        W24159  10.321  11.992   1.056 -0.0370 -0.1596  0.0132
 7313W        W24160  17.370  10.838  13.423  0.1824  0.0159 -0.0873
 7314W        W24161   0.948   9.465  14.326  0.1038  0.1129 -0.0074
 7315W        W24162   6.194  16.001  13.236 -0.0117  0.1808 -0.1815
 7316W        W24163   9.677   7.248   3.949  0.1186 -0.1787 -0.0210
 7317W        W24164   4.989   1.813  11.788  0.4051 -0.0584  0.1200
 7318W        W24165   4.344   3.448   4.297  0.2006 -0.2720 -0.2228
 7319W        W24166   5.584  15.066  12.300 -0.3144  0.3424  0.0178
 7320W        W24167   3.132   1.320  11.820  0.3579 -0.1554  0.3578
 7321W        W24168  16.776   6.894  14.615 -0.0848 -0.1178  0.0586
 7322W        W24169   0.239  16.895   3.512  0.1380  0.0190  0.1793
 7323W        W24170   4.450  13.961  10.758  0.1784 -0.1783 -0.1669
 7324W        W24171  11.444  12.800  12.529  0.0595  0.1138  0.5436
 7325W        W24172  17.793   8.959  15.654 -0.1300  0.2465  0.1138
 7326W        W24173   6.957  11.199  12.644  0.0986 -0.3552 -0.3197
 7327W        W24174   1.361   7.259  14.884 -0.0630 -0.1186 -0.0237
 7328W        W24175   1.576   9.556  13.503 -0.1882  0.3107  0.0759
 7329W        W24176   9.908  15.583  11.107  0.4249 -0.1138  0.0552
 7330W        W24177  13.660   2.554   0.671 -0.0912 -0.1174  0.3371
 7331W        W24178  16.243   1.366  12.886 -0.1072 -0.0606  0.3300
 7332W        W24179  14.451  13.983   0.016 -0.0787  0.1056  0.2778
 7333W        W24180  10.186   0.296   4.488  0.0828 -0.1549  0.1495
 7334W        W24181  17.518   4.854   0.492  0.2143  0.0926 -0.1480
 7335W        W24182   9.622  10.076  12.891  0.3633  0.1596  0.2058
 7336W        W24183   9.890   0.173  14.320  0.1082 -0.2667  0.1469
 7337W        W24184   6.757   6.221  13.498 -0.1716  0.2617  0.2461
 7338W        W24185  13.699  17.784   1.104 -0.3614 -0.0729 -0.0552
 7339W        W24186   0.184  16.929  15.224  0.3160 -0.0528 -0.0160
 7340W        W24187  15.508   4.280  12.934 -0.0109  0.2649 -0.0556
 7341W        W24188   7.102  16.594   2.225 -0.0622 -0.1515  0.0412
 7342W        W24189   9.844   9.752  10.317 -0.2260 -0.2546  0.1279
 7343W        W24190  17.002  12.833   0.420 -0.1468  0.1003 -0.1068
 7344W        W24191   2.180  10.294   4.503 -0.1265 -0.1222 -0.0132
 7345W        W24192  16.665   0.062  12.368  0.0599 -0.3606 -0.0885
 7346W        W24193   3.117  10.417   5.503  0.0827 -0.2437 -0.0175
 7347W        W24194  16.492  13.157  14.213 -0.0001 -0.1173  0.1166
 7348W        W24195   2.405  13.351  12.052 -0.1471  0.0605  0.2343
 7349W        W24196   7.394  12.026  13.095 -0.1732  0.0545  0.4763
 7350W        W24197   9.128  18.067  14.837 -0.1667 -0.1264  0.1119
 7351W        W24198   8.736   6.843   3.144 -0.3562  0.1058 -0.2738
 7352W        W24199  13.046  17.762  15.510  0.0561  0.1277  0.0171
 7353W        W24200   2.831   0.271  15.481 -0.0223  0.3421  0.0635
 7354W        W24201   4.084  10.917  13.747 -0.1939  0.1366  0.3031
 7355W        W24202   4.995  11.011  13.645  0.1650  0.1418  0.0113
 7356W        W24203   2.214   8.133  13.670 -0.0696  0.1703 -0.0783
 7357W        W24204  14.964  14.537   0.437 -0.4062  0.1770  0.1533
 7358W        W24205  14.103   2.911  15.409  0.2803  0.3949 -0.0292
 7359W        W24206   3.174  18.300   2.444  0.0578 -0.1183 -0.4162
 7360W        W24207  17.291  16.726   4.934  0.1142  0.1235  0.0889
 7361W        W24208   0.511   7.891  15.247 -0.0780 -0.0039  0.0618
 7362W        W24209  18.457   0.326  13.611  0.0732 -0.2293  0.0353
 7363W        W24210   0.282  10.448   1.619 -0.0662 -0.1959 -0.1198
 7364W        W24211   3.827  15.765  11.882  0.3190 -0.2182 -0.4612
 7365W        W24212  13.010   1.550  11.667  0.1355  0.2291 -0.0884
 7366W        W24213  15.225  11.092  13.430  0.0283 -0.0400 -0.0975
 7367W        W24214   0.774  14.848  13.615  0.0657  0.2166  0.1188
 7368W        W24215   6.539   9.642   2.549  0.0679 -0.0465  0.0073
 7369W        W24216  14.010   0.772  12.222  0.0202  0.4373  0.0904
 7370W        W24217  11.098  18.655  15.372 -0.0235  0.1311  0.1736
 7371W        W24218   2.185  17.730  14.099  0.0710  0.0860 -0.0810
 7372W        W24219   1.447  10.620   4.885  0.0432 -0.2549  0.1133
 7373W        W24220  16.976  16.103   3.335  0.3608  0.1129 -0.1627
 7374W        W24221   7.714  12.879  14.278  0.3653 -0.3149  0.0021
 7375W        W24222  10.621   0.558   3.211  0.1628 -0.1657 -0.0861
 7376W        W24223  15.866  17.085   1.663  0.1437 -0.1901 -0.0800
 7377W        W24224  17.920   2.066   5.809 -0.0775 -0.2012  0.0332
 7378W        W24225   5.739   8.071  13.848 -0.3875 -0.2545  0.1245
 7379W        W24226   2.733   2.760  12.138 -0.1000  0.0219  0.0924
 7380W        W24227   3.826  13.725   0.785  0.1182 -0.0809 -0.0397
 7381W        W24228  13.967  16.060  13.788  0.1405  0.2479 -0.0566
 7382W        W24229  11.283   9.719  12.567  0.2418 -0.2206  0.0780
 7383W        W24230  17.323   9.886  15.128  0.1566 -0.2120  0.3164
 7384W        W24231   6.937  18.766   3.350  0.4454 -0.1714 -0.1196
 7385W        W24232   2.764  15.517   2.017  0.4356  0.0449  0.0579
 7386W        W24233  17.902   9.154   4.770  0.0416  0.1271  0.0083
 7387W        W24234   2.119   0.162   4.265 -0.1671  0.3308  0.1309
 7388W        W24235  13.880  14.272  12.418  0.3020  0.0554 -0.1594
 7389W        W24236   8.264  13.911  14.681  0.0398  0.0083 -0.0051
 7390W        W24237   7.185   9.773  10.694 -0.1898  0.2355 -0.3703
 7391W        W24238  16.975   7.162   5.982 -0.1700 -0.0256 -0.0532
 7392W        W24239  15.830   1.879   3.214  0.1877 -0.0723  0.1958
 7393W        W24240   7.637  18.621   4.111 -0.3242  0.0493  0.0178
 7394W        W24241   1.136   6.587  15.778  0.2782 -0.4689 -0.0362
 7395W        W24242   2.044   7.844  14.574  0.1456 -0.0145 -0.2383
 7396W        W24243  12.688  18.691   2.570 -0.0456  0.2369 -0.0305
 7397W        W24244   0.934   7.056   4.744 -0.2751  0.0720  0.0415
 7398W        W24245  11.735   4.566   0.008 -0.0686 -0.0012 -0.0366
 7399W        W24246  11.331   8.261  11.776 -0.1864  0.4145  0.1367
 7400W        W24247   0.259   1.486   3.747 -0.0434  0.0390  0.0720
 7401W        W24248   1.588   7.587   4.501 -0.1224  0.1213 -0.0512
 7402W        W24249  18.701   7.593   5.239 -0.2000 -0.0595  0.2424
 7403W        W24250   5.275  17.436  11.712  0.0917 -0.1459 -0.0368
 7404W        W24251  16.509   4.371   5.619 -0.0112 -0.0033  0.0522
 7405W        W24252  11.855   8.324  15.200  0.0506 -0.0829  0.1731
 7406W        W24253   2.870  15.231   1.573  0.0600  0.3246  0.0391
 7407W        W24254  10.251  11.087  14.791  0.2365  0.0704 -0.0619
 7408W        W24255  16.449   5.466   2.848 -0.3155  0.0090 -0.0782
 7409W        W24256  14.997  13.371  10.826  0.1127 -0.0424 -0.2406
 7410W        W24257   7.964   3.944   2.241  0.3090  0.1203 -0.0011
 7411W        W24258   6.709   9.884  14.267  0.4055 -0.0541  0.0644
 7412W        W24259  10.494   9.067  14.468 -0.3482 -0.2941 -0.0558
 7413W        W24260  12.466  18.272   1.371 -0.0004  0.4470  0.1908
 7414W        W24261  15.348  14.082   1.954 -0.1086  0.2824  0.1026
 7415W        W24262  13.026   2.914  12.848 -0.0257 -0.1131  0.3339
 7416W        W24263   9.841   1.198   1.615  0.0685 -0.0424  0.0020
 7417W        W24264   2.580  18.464  12.671  0.2473  0.0709 -0.0680
 7418W        W24265   5.434  15.644   5.374  0.1766 -0.1151  0.1549
 7419W        W24266  15.406   0.466   1.161  0.0832  0.0186 -0.2478
 7420W        W24267   2.985   9.882   0.546 -0.0756  0.0549 -0.0687
 7421W        W24268   0.716  16.375   3.974 -0.2512  0.0741 -0.2483
 7422W        W24269  17.652  13.908   4.238  0.0936 -0.3370  0.2474
 7423W        W24270  12.547   8.649   3.564 -0.1522  0.0698  0.3674
 7424W        W24271   1.684   4.607   4.444 -0.0278  0.2642  0.6444
 7425W        W24272  10.943  18.794  11.308  0.3165 -0.1101 -0.2377
 7426W        W24273  18.129  11.125  12.864 -0.0863 -0.2296  0.2848
 7427W        W24274  11.929   6.222  14.554 -0.0841 -0.1731 -0.0210
 7428W        W24275   3.834   8.997   2.559  0.2599 -0.0414 -0.2787
 7429W        W24276   7.963  14.579  14.924 -0.1061  0.4203  0.0858
 7430W        W24277   3.012   7.161  13.883 -0.0730  0.3916 -0.0175
 7431W        W24278   8.495   4.403  11.352 -0.1920 -0.0656  0.3631
 7432W        W24279   3.384   5.389   2.117 -0.1842  0.1171 -0.3338
 7433W        W24280  11.551  13.322  10.386  0.1977 -0.0017 -0.2485
 7434W        W24281  18.648  13.569   1.166 -0.1072 -0.0219 -0.0718
 7435W        W24282  18.016   0.476  14.853 -0.0272  0.1106 -0.1210
 7436W        W24283   2.332   8.617  14.976  0.0299  0.0514  0.2479
 7437W        W24284   6.464   9.734   5.178  0.0969  0.1404  0.0188
 7438W        W24285  18.531   2.594   1.078  0.2559  0.2934  0.1603
 7439W        W24286   6.350   8.372  11.078 -0.1533 -0.0053 -0.0818
 7440W        W24287  13.319  16.111   4.247  0.2491  0.4546  0.1405
 7441W        W24288  16.519  16.482   0.878  0.0005  0.1440  0.0473
 7442W        W24289   1.557   0.375  12.567 -0.0355 -0.0071 -0.1809
 7443W        W24290   8.874   3.515   4.452 -0.1487 -0.1527 -0.1449
 7444W        W24291   6.651   6.502   0.905 -0.3145  0.0100 -0.2832
 7445W        W24292   8.788   7.739  14.916  0.0822 -0.2128  0.0789
 7446W        W24293  15.514  10.685  13.843  0.1963 -0.0016 -0.3889
 7447W        W24294  16.761  14.546  11.813  0.0719  0.1839 -0.2723
 7448W        W24295  18.387  14.676   4.275  0.0120 -0.2785 -0.2026
 7449W        W24296   6.712   1.870   2.469 -0.0588  0.0579  0.0180
 7450W        W24297   9.326   2.557   2.350 -0.1427  0.0368 -0.3345
 7451W        W24298   9.225   1.067  11.944  0.1145  0.0734  0.1621
 7452W        W24299   9.574   8.843  11.405  0.3360 -0.1071 -0.0319
 7453W        W24300   4.319   1.806   2.367  0.1393  0.0024  0.1744
 7454W        W24301  13.886   6.256  14.507  0.1304 -0.0259 -0.1040
 7455W        W24302   5.004   3.446   4.448 -0.3421 -0.1641  0.1240
 7456W        W24303   6.220  18.178   2.169 -0.3852  0.1734  0.0336
 7457W        W24304  12.067   1.129   1.255 -0.0171 -0.0856 -0.4073
 7458W        W24305  18.662  15.068   1.594 -0.1260 -0.2463 -0.0714
 7459W        W24306  17.896  11.242   5.411  0.2238 -0.2360 -0.1880
 7460W        W24307  13.530  13.785   0.091 -0.0154 -0.0331 -0.1456
 7461W        W24308   7.929  13.450  15.443 -0.1254  0.1193  0.2154
 7462W        W24309   3.563  18.070   5.506  0.3834 -0.2230  0.2853
 7463W        W24310   2.258  10.035   2.598  0.0166 -0.0560 -0.0734
 7464W        W24311  13.403  14.263   2.827  0.1949 -0.1385  0.0835
 7465W        W24312   2.174  11.944  13.262  0.2404 -0.0855  0.0823
 7466W        W24313  13.627   7.627   2.119  0.0157  0.1097  0.1763
 7467W        W24314  17.603  16.831   0.768 -0.0918 -0.2141  0.1136
 7468W        W24315   0.717   7.949   1.598 -0.0111 -0.0591 -0.2149
 7469W        W24316   3.324   5.007  11.970 -0.1416  0.2065 -0.0475
 7470W        W24317  16.992   7.818  15.342  0.2484  0.1892  0.0078
 7471W        W24318  14.944   5.784   1.244  0.2733  0.0001 -0.1596
 7472W        W24319  13.110   1.447   4.679 -0.1315  0.2757 -0.0221
 7473W        W24320   7.153   4.365   0.588 -0.0397  0.2412 -0.1914
 7474W        W24321   4.649  13.133  15.491  0.0911 -0.0105  0.0859
 7475W        W24322   3.391  15.739  14.165 -0.1731 -0.3219  0.0420
 7476W        W24323   1.074   9.076  15.636 -0.1522  0.0447  0.0813
 7477W        W24324   9.086   8.699  14.755 -0.1160 -0.1136  0.0252
 7478W        W24325  15.720  16.247  12.276 -0.0220  0.0061  0.0683
 7479W        W24326   0.789   2.400  15.130 -0.0562 -0.0515  0.0341
 7480W        W24327  17.000  11.148   2.907 -0.0384 -0.0524 -0.1802
 7481W        W24328  15.265   8.133  12.848  0.0703 -0.1055 -0.1330
 7482W        W24329   5.145   9.476  14.545  0.0566 -0.4371 -0.0496
 7483W        W24330   6.229   3.452  11.291 -0.2819  0.0801  0.1418
 7484W        W24331  17.924  11.482  14.187 -0.1487 -0.3011 -0.0504
 7485W        W24332  15.264   2.824  11.790 -0.1315  0.0118 -0.0690
 7486W        W24333  17.205  18.667  12.174 -0.3724 -0.0229 -0.2522
 7487W        W24334   4.073  18.163  13.131 -0.0672  0.3318 -0.1082
 7488W        W24335  11.488   8.200  13.178  0.0143  0.1863  0.3536
 7489W        W24336   7.568   9.980  13.789  0.0086 -0.5284 -0.2204
 7490W        W24337   2.848   8.517  11.781 -0.3025  0.0575  0.0150
 7491W        W24338  12.853   9.726  11.033 -0.2106 -0.1293 -0.1496
 7492W        W24339   7.114  16.456  10.414  0.1458  0.6208  0.0820
 7493W        W24340   2.393  13.637  14.781 -0.0847  0.0329 -0.2233
 7494W        W24341   9.270  16.595  13.124 -0.0531 -0.1178 -0.0928
 7495W        W24342   3.644   7.529   0.003  0.1887  0.0007  0.1095
 7496W        W24343  15.394  11.298  12.351 -0.1766 -0.1673 -0.1046
 7497W        W24344   1.153   5.487   4.060 -0.0138 -0.0267  0.0873
 7498W        W24345   4.872  11.296   3.563 -0.1131  0.1343 -0.1429
 7499W        W24346  16.307   2.429   3.434 -0.1959 -0.0634 -0.0156
 7500W        W24347   5.259  11.035   5.445 -0.2999 -0.3048 -0.0516
 7501W        W24348  14.285   6.390   3.702 -0.0427  0.0113 -0.0111
 7502W        W24349   8.811   1.027  14.985 -0.0093 -0.1033  0.1390
 7503W        W24350   5.875   1.129   0.788  0.6605  0.0492 -0.1681
 7504W        W24351   8.170  15.896   0.140  0.0304  0.0261  0.3307
 7505W        W24352  12.542  17.726   2.307 -0.0178 -0.1287  0.0178
 7506W        W24353  16.192  16.895  11.617  0.1214  0.1280 -0.2956
 7507W        W24354  15.839  16.727  12.582 -0.2426  0.2260  0.1661
 7508W        W24355  14.806  13.932  14.802 -0.0954  0.1012  0.1548
 7509W        W24356  18.535  18.411   2.463 -0.0937 -0.0235  0.0985
 7510W        W24357  12.135   4.926  14.008  0.0732 -0.3278  0.2558
 7511W        W24358   2.937  15.775   3.125 -0.3303 -0.1079  0.1365
 7512W        W24359   2.379   8.541  14.192 -0.0717  0.0883  0.1906
 7513W        W24360   8.356   8.716  13.478  0.3513 -0.2009  0.2134
 7514W        W24361  17.714   4.217  15.138  0.2779  0.1665 -0.0823
 7515W        W24362   6.436  14.853   1.738  0.1765 -0.0842 -0.0547
 7516W        W24363   7.861   7.344   5.243 -0.0925 -0.2295  0.0913
 7517W        W24364   2.357  11.333   3.002 -0.0056  0.3966  0.1006
 7518W        W24365   2.744   5.858   5.116 -0.0767 -0.0247 -0.1407
 7519W        W24366   9.710  14.677  14.501  0.4240 -0.0935  0.2829
 7520W        W24367   2.264  18.082   4.185  0.0945 -0.1131  0.1609
 7521W        W24368  15.100  18.853  11.730  0.3507  0.1837 -0.2700
 7522W        W24369   0.660  11.371  13.796  0.0750 -0.0655  0.1186
 7523W        W24370   5.659  13.909  14.267 -0.1946  0.0379  0.1234
 7524W        W24371   4.788   3.871   5.160 -0.0642  0.0121  0.1517
 7525W        W24372  14.131  13.555   0.758 -0.1472  0.1663 -0.0871
 7526W        W24373   3.739  13.933  15.466  0.1911  0.2070  0.0039
 7527W        W24374  17.381   4.819  10.773  0.0788  0.1862  0.0505
 7528W        W24375   6.322   7.543  12.423 -0.1604 -0.0929 -0.0465
 7529W        W24376   1.937  15.157  14.857 -0.0414  0.0240  0.0871
 7530W        W24377   2.695  18.215   3.343  0.0726  0.1828  0.0002
 7531W        W24378   8.881  10.315  13.947  0.3512 -0.1537  0.0529
 7532W        W24379   6.152   6.453  11.682  0.1215  0.1261 -0.2746
 7533W        W24380   1.923   7.775  12.735 -0.2174  0.0499  0.3577
 7534W        W24381   9.066   6.585  11.946 -0.1849  0.1760 -0.0590
 7535W        W24382   2.739  12.307  14.278  0.0448 -0.0597 -0.2957
 7536W        W24383   8.461  13.001  11.107  0.2030  0.1524 -0.1447
 7537W        W24384   9.807   1.601  12.715 -0.0643 -0.1113  0.0928
 7538W        W24385   2.391   3.549  14.824  0.2503  0.1060 -0.1283
 7539W        W24386   4.078  15.820  12.723 -0.4690 -0.0484  0.2169
 7540W        W24387   3.695  17.153   0.124  0.0817 -0.1670  0.1485
 7541W        W24388  15.436  14.512   2.287  0.0488  0.2921  0.0965
 7542W        W24389  16.107   4.389   1.413  0.0541 -0.4726 -0.1115
 7543W        W24390   3.963   2.481  12.646 -0.1919 -0.1693 -0.1493
 7544W        W24391  10.864  14.984  15.671  0.0016 -0.0199  0.0195
 7545W        W24392  11.689  10.977   4.049  0.2866  0.1605 -0.1764
 7546W        W24393   7.068  17.915  11.505 -0.0744 -0.1135 -0.1717
 7547W        W24394   1.790   6.465   3.550  0.4162  0.3534  0.0566
 7548W        W24395  16.157   8.354   2.789  0.3629 -0.1465 -0.3527
 7549W        W24396  15.782   2.759   4.464 -0.3243 -0.2184 -0.2430
 7550W        W24397   6.871  14.354   3.549 -0.2979  0.0353 -0.0074
 7551W        W24398   5.311   5.907   2.777  0.0067  0.0317  0.1714
 7552W        W24399  11.240   7.394   3.126  0.2669 -0.1023 -0.0559
 7553W        W24400   5.868  16.991  12.023 -0.0928  0.0902  0.0912
 7554W        W24401   3.219   0.653  13.241  0.1121 -0.2819  0.0453
 7555W        W24402   0.383   1.069  11.173  0.2056  0.0623  0.1947
 7556W        W24403  12.606   3.762  13.835 -0.0846 -0.0888 -0.0521
 7557W        W24404   0.268   5.444  12.173  0.0749 -0.0878  0.0086
 7558W        W24405   8.681  11.415   0.933  0.0960  0.0495 -0.0837
 7559W        W24406   8.363  13.866  11.322 -0.0413  0.3035 -0.1517
 7560W        W24407  12.205  14.031  13.379  0.0010 -0.0673  0.0473
 7561W        W24408  13.824   4.193  11.876 -0.0971 -0.0095  0.2611
 7562W        W24409  15.608  17.971  13.741  0.1527 -0.2110  0.2434
 7563W        W24410  15.780  11.861   1.817 -0.1789  0.2489 -0.2363
 7564W        W24411  10.341  13.751   3.212  0.2666  0.1874  0.1552
 7565W        W24412  14.491  12.717  15.275  0.0841  0.2247  0.0205
 7566W        W24413  16.593   8.657  15.419  0.2747 -0.0354 -0.0699
 7567W        W24414  10.844  13.208   3.854 -0.1600  0.0895 -0.1819
 7568W        W24415   2.977   3.219   4.226 -0.0924  0.0486  0.0223
 7569W        W24416  16.262  17.465   0.374  0.0539 -0.0856 -0.0282
 7570W        W24417   8.014   5.046  13.984 -0.2344  0.1561 -0.0269
 7571W        W24418  15.700  13.588  15.454  0.0027  0.2132  0.0902
 7572W        W24419   2.700   8.805  14.545  0.4152 -0.2406  0.0948
 7573W        W24420   6.368   8.843  14.452 -0.0325 -0.1471 -0.1537
 7574W        W24421   5.009  13.060   2.036  0.0023  0.1123 -0.1900
 7575W        W24422   6.234  11.518  12.422 -0.0785 -0.4164  0.2185
 7576W        W24423   7.769  11.869  14.615  0.0739 -0.2237  0.2462
 7577W        W24424  10.009   7.476   0.675  0.1623 -0.0144  0.0302
 7578W        W24425   4.184  10.680  11.820 -0.0440  0.0165  0.0295
 7579W        W24426  16.883  12.717   6.148 -0.0314  0.3287  0.0457
 7580W        W24427  12.007  16.379   3.776  0.0050 -0.0027 -0.2673
 7581W        W24428   4.983  13.858   0.544 -0.1503  0.2773  0.1779
 7582W        W24429  11.369  14.615   0.951  0.4839 -0.2922  0.2343
 7583W        W24430  13.468  10.655   4.391  0.1026 -0.0336 -0.0031
 7584W        W24431  10.054  15.614   4.847 -0.2346 -0.2331  0.0157
 7585W        W24432   2.564   9.404   1.431 -0.0355 -0.0493  0.1233
 7586W        W24433  14.593   7.526   3.205 -0.0936 -0.0410  0.1132
 7587W        W24434  13.796   9.729   3.024  0.0180  0.1387  0.2554
 7588W        W24435   5.666   5.769  15.414  0.2231  0.2924  0.0891
 7589W        W24436   8.509   8.746  12.974 -0.1887 -0.0684  0.0530
 7590W        W24437   4.746  15.834   4.756  0.1580 -0.0884 -0.3405
 7591W        W24438   8.883   8.859  13.403  0.1786 -0.1947  0.2592
 7592W        W24439  11.793  16.946   3.750 -0.3074  0.1933  0.3239
 7593W        W24440   2.064   7.738   4.671 -0.1358  0.0805  0.1264
 7594W        W24441   0.888   7.070  14.699 -0.1693  0.0392 -0.3365
 7595W        W24442   5.659   6.600  11.621  0.0032  0.0896 -0.0430
 7596W        W24443   6.597   9.469   4.777 -0.1321 -0.1121 -0.1528
 7597W        W24444  18.323   9.900   2.559 -0.2465 -0.1250 -0.1089
 7598W        W24445   9.467  15.756   1.890 -0.0898  0.0748 -0.2924
 7599W        W24446   0.293  10.091   3.231 -0.0099  0.0026  0.3144
 7600W        W24447   2.723   5.007  14.144  0.1365 -0.0261 -0.2464
 7601W        W24448  18.600   5.311   5.986 -0.0683  0.2087  0.0028
 7602W        W24449  12.565   5.732  10.692 -0.4212  0.0210 -0.0625
 7603W        W24450   7.548   2.629  14.338  0.0985  0.1539  0.0470
 7604W        W24451  17.881   6.072  15.451  0.0107  0.3063 -0.0530
 7605W        W24452  16.948   7.459  12.947 -0.4738  0.1512 -0.1630
 7606W        W24453   1.353  12.680   1.457 -0.0277 -0.0723  0.1283
 7607W        W24454   9.986   2.125  11.366 -0.3564  0.2065  0.0402
 7608W        W24455   8.153  15.802   1.543  0.0102 -0.1024 -0.1545
 7609W        W24456   8.072  11.481  12.788  0.5129  0.0225 -0.2592
 7610W        W24457  15.084  13.600  15.252  0.0669 -0.1344 -0.1998
 7611W        W24458   5.449   4.007  13.636 -0.2740 -0.1264 -0.1249
 7612W        W24459   0.152   7.927   2.973  0.1270  0.0707 -0.2055
 7613W        W24460  11.664   0.593   4.492  0.0289  0.1364  0.3134
 7614W        W24461   4.048   5.215   3.920  0.0416 -0.0908  0.0634
 7615W        W24462   9.991  11.858  10.924  0.3046  0.4185  0.1739
 7616W        W24463   5.921   2.494  12.516  0.2042  0.3036  0.3452
 7617W        W24464  18.393  10.005   4.906 -0.2410 -0.3059  0.1183
 7618W        W24465  14.833   2.223  12.470 -0.4676 -0.1390  0.0425
 7619W        W24466   6.493   9.216  12.916  0.0258 -0.1039 -0.1265
 7620W        W24467  16.654   9.068  14.502  0.4346  0.0111 -0.0626
 7621W        W24468   1.927   0.724   5.376 -0.0225  0.0784  0.2856
 7622W        W24469  16.561  11.361  13.585  0.1140 -0.2967  0.0793
 7623W        W24470   6.709   8.273  15.014 -0.0334  0.1050  0.0106
 7624W        W24471  11.419  15.360   3.400  0.2174  0.0610 -0.1399
 7625W        W24472  12.141   2.829  15.081 -0.1862 -0.1035 -0.2892
 7626W        W24473   9.266  15.897  12.725 -0.1359  0.0942  0.1182
 7627W        W24474  17.485   8.348   4.766  0.4334 -0.0499 -0.3393
 7628W        W24475   4.000  12.179  10.841  0.2491  0.4204  0.1378
 7629W        W24476   2.678   8.431  12.266 -0.2321 -0.1382  0.0845
 7630W        W24477   4.466   5.664  12.071 -0.0784 -0.0111  0.1317
 7631W        W24478   8.836   0.587  10.566  0.1715  0.4191  0.1312
 7632W        W24479  12.140   9.768  14.195 -0.0499 -0.2682 -0.0728
 7633W        W24480   2.127  18.629  10.268 -0.2296 -0.0173  0.2079
 7634W        W24481  11.342   4.559  10.582 -0.2335  0.1410  0.0644
 7635W        W24482   5.114  15.231   0.957 -0.2945  0.0064  0.2107
 7636W        W24483  13.957   0.156  14.278  0.1634 -0.2536 -0.0073
 7637W        W24484  15.306   9.672   5.262  0.1211 -0.1166 -0.1584
 7638W        W24485  15.951   3.174  13.610  0.0258 -0.0109  0.0035
 7639W        W24486  11.183  10.402  14.787  0.1646  0.4632  0.1133
 7640W        W24487   7.509   4.165   2.127  0.3142 -0.0212 -0.3133
 7641W        W24488   4.375  11.503  12.871  0.0045 -0.0183  0.1669
 7642W        W24489   7.471  11.494   3.549 -0.0686 -0.0626 -0.3896
 7643W        W24490  13.813  10.199  12.441  0.1151  0.1396 -0.0064
 7644W        W24491   1.871   0.528   4.053 -0.0919 -0.2208  0.0149
 7645W        W24492  11.239   1.662  14.640 -0.2151  0.4574 -0.3382
 7646W        W24493   0.201   3.355  14.782 -0.0032 -0.1227  0.0835
 7647W        W24494   6.408   1.449   2.385  0.0164 -0.1131 -0.1347
 7648W        W24495   5.736  17.451   4.780  0.4198 -0.1351  0.0237
 7649W        W24496   8.759   5.423   4.428 -0.0540 -0.5578  0.1660
 7650W        W24497  10.996  16.515  11.759 -0.0225 -0.1803 -0.0980
 7651W        W24498  11.426   7.890   3.911 -0.1595  0.1826 -0.1029
 7652W        W24499  10.861  18.290   4.941 -0.1636  0.3007  0.0901
 7653W        W24500   6.892  16.948  15.342  0.0827  0.0684 -0.0729
 7654W        W24501   5.345   3.558   3.678 -0.0182 -0.2033 -0.0369
 7655W        W24502  16.180  15.278  11.517 -0.0959 -0.3069  0.0616
 7656W        W24503   6.267   7.729   2.177 -0.0513  0.2142 -0.1017
 7657W        W24504   8.684  18.355  14.642 -0.0233  0.2933 -0.0411
 7658W        W24505   2.326  16.453  11.002 -0.0952 -0.0924  0.0719
 7659W        W24506  13.611  14.389  11.863 -0.1380  0.1486 -0.0662
 7660W        W24507  17.285   9.128  15.335 -0.5013  0.2229 -0.4920
 7661W        W24508   1.442   0.977   4.484  0.1007  0.1353 -0.1404
 7662W        W24509   4.320   4.928   4.456 -0.2010 -0.1203  0.2942
 7663W        W24510   5.513  13.202   9.636  0.2120  0.0142 -0.1141
 7664W        W24511   3.857  15.289   0.596  0.0449  0.1106  0.0067
 7665W        W24512  11.938  14.876   1.910  0.1006 -0.1629 -0.0773
 7666W        W24513  11.615   3.502  14.178  0.0083 -0.1675  0.3035
 7667W        W24514   4.760   2.274   0.010 -0.4630 -0.1097  0.2321
 7668W        W24515   3.244  17.141  15.126 -0.0088  0.0838 -0.1664
 7669W        W24516   6.450   9.351   3.525 -0.1701 -0.0670  0.1142
 7670W        W24517   1.319  12.779  14.406  0.1661 -0.1823 -0.2927
 7671W        W24518  11.477   5.289   3.687 -0.1583 -0.0066 -0.1078
 7672W        W24519  18.259   0.032   4.488  0.2640 -0.1429  0.4571
 7673W        W24520   6.105   1.659  11.485  0.3857 -0.2296  0.3186
 7674W        W24521   0.288  18.648   2.966 -0.1401  0.0657  0.1977
 7675W        W24522   8.274   6.635  12.351  0.1207  0.2292 -0.0727
 7676W        W24523   2.853   1.606  13.636 -0.1416 -0.1171  0.2444
 7677W        W24524  18.351   3.075   3.489  0.0352  0.1180 -0.0862
 7678W        W24525  18.416   9.138   4.397 -0.2394 -0.2810 -0.1365
 7679W        W24526  10.978   8.906  14.317 -0.0945  0.1126 -0.0876
 7680W        W24527   6.365   5.995   5.179 -0.3111  0.5036 -0.0114
 7681W        W24528  18.729  11.713   1.394 -0.4552 -0.1959  0.1440
 7682W        W24529   8.843  12.784  14.061  0.0217  0.0275  0.1679
 7683W        W24530   4.673   2.957  12.511 -0.0649 -0.1929  0.0968
 7684W        W24531  17.562   8.206  13.720 -0.0311  0.1120 -0.1199
 7685W        W24532  16.325   6.876   5.380 -0.1108 -0.1264 -0.0919
 7686W        W24533   0.016   9.399   4.350  0.3278  0.1142 -0.1310
 7687W        W24534   0.397   6.404   0.317 -0.4289 -0.3051 -0.0639
 7688W        W24535  14.448   6.076   2.185  0.1063  0.0855 -0.0573
 7689W        W24536  10.595  10.410   4.129 -0.0524  0.2538  0.1038
 7690W        W24537   9.242   3.889   1.693 -0.1666 -0.2804  0.1194
 7691W        W24538   1.760   8.509   1.435 -0.0655  0.3627 -0.0065
 7692W        W24539  16.083   2.194   4.106  0.3606  0.0728  0.2150
 7693W        W24540  10.668  12.088  14.701 -0.2311 -0.0860  0.0133
 7694W        W24541  18.356  16.062   4.568 -0.2589  0.0319  0.2219
 7695W        W24542   7.175  15.056  11.234  0.1018  0.4674  0.1097
 7696W        W24543   5.882  14.445  14.932 -0.1382 -0.1969 -0.0933
 7697W        W24544  11.542   8.004   0.620 -0.5374 -0.0407 -0.1574
 7698W        W24545  17.914  18.239  11.856  0.1512  0.2704  0.2244
 7699W        W24546   3.932  15.630   2.153  0.1422 -0.0192 -0.1927
 7700W        W24547  18.577  15.692  11.749  0.0170  0.0643 -0.1738
 7701W        W24548  10.179   3.021  14.641 -0.1396  0.0700  0.2235
 7702W        W24549  17.843  12.866   5.048  0.2021  0.1142 -0.1540
 7703W        W24550   8.758  14.020   2.936  0.2209  0.1483  0.1293
 7704W        W24551   9.875   6.573   1.768  0.1936 -0.3126  0.0129
 7705W        W24552   5.939  16.284  14.272 -0.0500 -0.0158  0.0690
 7706W        W24553   3.119   0.481   4.271 -0.0837  0.2951  0.2655
 7707W        W24554   9.272  16.432  15.455 -0.0742 -0.0105  0.2390
 7708W        W24555  17.287   5.167   2.539  0.3250  0.0618  0.0167
 7709W        W24556   6.060  16.632   4.317 -0.3068 -0.1201 -0.0058
 7710W        W24557   7.853   1.642   0.649 -0.1324 -0.1621 -0.0670
 7711W        W24558  15.435  11.977  13.482  0.1461  0.4951 -0.4394
 7712W        W24559  15.722   4.212   5.281 -0.0585 -0.1124 -0.0600
 7713W        W24560   7.476  15.186   3.182  0.2178 -0.2307 -0.0630
 7714W        W24561   1.396   9.837   5.344  0.0181 -0.3271 -0.0500
 7715W        W24562  15.196  12.513   0.599  0.0029  0.0077 -0.2961
 7716W        W24563   9.773  16.576  12.267 -0.2793 -0.2176 -0.0871
 7717W        W24564   3.599   0.280   1.917 -0.3214 -0.4337 -0.0990
 7718W        W24565  13.307   9.438   2.178 -0.0508 -0.0722  0.0478
 7719W        W24566  15.747  10.217   2.707  0.0663 -0.0495  0.3040
 7720W        W24567   3.471   9.294  12.023  0.0377  0.3235  0.3686
 7721W        W24568  11.497  11.636   0.795 -0.0371  0.0014  0.0402
 7722W        W24569  17.625   7.768   3.537  0.1841  0.1044 -0.0758
 7723W        W24570  18.148  16.421   2.773 -0.3252  0.0217 -0.1193
 7724W        W24571   1.336  10.627   0.692  0.2828 -0.1803 -0.0118
 7725W        W24572  15.518   8.821   4.025  0.0568  0.0632 -0.1202
 7726W        W24573   0.096  18.207   4.189  0.6901 -0.0012  0.3761
 7727W        W24574  11.624   9.189   0.565  0.0810  0.0169  0.1371
 7728W        W24575   9.384   3.850  11.068  0.2555  0.1179  0.0309
 7729W        W24576   6.581  18.254  12.902  0.0503 -0.0378 -0.2487
 7730W        W24577  13.777   6.945  12.850 -0.0483  0.2137 -0.1498
 7731W        W24578  10.507  14.040   1.774 -0.1769 -0.0207  0.0950
 7732W        W24579  12.940   2.397  15.264 -0.0502 -0.2028 -0.0365
 7733W        W24580  18.251  15.420  12.962  0.0914  0.0970 -0.1554
 7734W        W24581  17.469   8.741   5.649 -0.2257 -0.1626  0.1093
 7735W        W24582   9.615   9.993  15.107  0.3847  0.0382 -0.1579
 7736W        W24583  17.589  13.962  13.688  0.2657  0.1873  0.1396
 7737W        W24584  11.102   1.159  15.428 -0.1176 -0.0753  0.0744
 7738W        W24585   1.828   7.435   1.467 -0.1442  0.5870 -0.1519
 7739W        W24586   6.887   1.197   2.259 -0.1650 -0.3702 -0.1232
 7740W        W24587   7.972   0.932   1.805  0.0936 -0.0442  0.2461
 7741W        W24588  11.527  16.807  11.711  0.2503  0.1746  0.2378
 7742W        W24589  11.641   8.590   4.573  0.0359  0.0384 -0.0717
 7743W        W24590  17.289  11.695   0.092  0.0057  0.3485  0.1422
 7744W        W24591   0.664  10.034  13.145  0.1851  0.0645  0.3063
 7745W        W24592  11.731   2.939   1.717 -0.1004  0.2088  0.1939
 7746W        W24593   9.884  14.596  12.263  0.0543  0.0488  0.2021
 7747W        W24594  13.433   0.901  12.748 -0.0082 -0.0796 -0.1382
 7748W        W24595   9.840  12.772  10.049  0.3008  0.2668  0.0780
 7749W        W24596  18.169   3.098  12.711 -0.0808 -0.0019  0.1148
 7750W        W24597  13.620   5.003  12.706 -0.1366 -0.1364  0.1612
 7751W        W24598   2.750   3.213   3.255  0.0016 -0.3097  0.0512
 7752W        W24599   2.308   0.744  13.789  0.0022  0.0101  0.4605
 7753W        W24600   9.278   3.161  12.196 -0.0987  0.0896 -0.0817
 7754W        W24601   7.879   2.485  15.002  0.0849  0.3479 -0.1488
 7755W        W24602  10.307   5.750   3.886  0.0004  0.2005  0.1971
 7756W        W24603   1.539   1.776  15.637 -0.1384  0.0657  0.0078
 7757W        W24604   4.011  17.403  10.802  0.2001 -0.1158 -0.0372
 7758W        W24605  15.375  16.519  13.432  0.1539  0.2228 -0.0181
 7759W        W24606  16.015   3.910  14.960 -0.0088 -0.2985 -0.1689
 7760W        W24607   5.279  11.491  13.572  0.0632 -0.1734 -0.1615
 7761W        W24608  18.610  17.355  12.502  0.1046 -0.2426  0.1520
 7762W        W24609   1.195   6.318  11.328 -0.2080 -0.1215  0.2354
 7763W        W24610  15.682  10.636   3.551 -0.2012 -0.1958 -0.0188
 7764W        W24611  15.892   1.149   2.771  0.0627 -0.1955 -0.0655
 7765W        W24612   9.585   7.951  10.861  0.1202 -0.3279  0.2011
 7766W        W24613   1.647  10.578  14.940  0.1806  0.1031 -0.1868
 7767W        W24614   9.678  12.961   0.142 -0.0108  0.1464 -0.2792
 7768W        W24615   9.706  12.034  15.739  0.2391 -0.1610 -0.0829
 7769W        W24616   9.183   9.343  10.762  0.0814  0.1834  0.1630
 7770W        W24617   2.152   2.597   4.112 -0.1206 -0.3073 -0.2052
 7771W        W24618   0.044  11.417   0.715  0.2201  0.2466  0.1516
 7772W        W24619   4.164  11.713   3.675  0.1109  0.2676 -0.2736
 7773W        W24620   8.314   5.202  11.669  0.1513  0.1457  0.0224
 7774W        W24621  12.281   6.536   4.675  0.3718  0.2030  0.3588
 7775W        W24622   0.964   5.816   3.246 -0.1168  0.1344  0.0388
 7776W        W24623  14.146  11.664  10.701 -0.0575  0.0306 -0.2343
 7777W        W24624   3.355  14.773  10.702  0.0600 -0.1418 -0.0567
 7778W        W24625  17.658  15.382  14.776  0.1225  0.1439 -0.1938
 7779W        W24626   9.675  11.636  13.638 -0.1833 -0.0357  0.2412
 7780W        W24627  12.637   8.332  11.560  0.2214 -0.1385 -0.0569
 7781W        W24628   8.219  18.854   5.283  0.0565 -0.2950  0.0122
 7782W        W24629   6.170  11.467   4.660 -0.4590 -0.1001 -0.2726
 7783W        W24630  12.260   6.593  12.770 -0.6394  0.0630  0.2075
 7784W        W24631   4.099  13.729   1.963  0.0768 -0.1720 -0.1267
 7785W        W24632   8.815  12.086  12.648 -0.4347 -0.3712 -0.1091
 7786W        W24633   5.596   7.356   4.100  0.2063 -0.0758 -0.1266
 7787W        W24634  13.970   8.241   2.330  0.1082 -0.1049 -0.0501
 7788W        W24635  11.614   2.671   2.148 -0.3182 -0.2197  0.0398
 7789W        W24636  18.683   1.829  12.170 -0.3373 -0.2654  0.0078
 7790W        W24637   2.480   7.047   4.075 -0.5563  0.0911 -0.2530
 7791W        W24638   7.043   9.723  11.168  0.2604 -0.3559 -0.0302
 7792W        W24639  18.553   9.164  14.881  0.1255 -0.4694 -0.3616
 7793W        W24640   0.821  12.221  11.246 -0.1080  0.1534  0.1745
 7794W        W24641   4.478   9.369  12.287 -0.0004  0.1529  0.1250
 7795W        W24642   7.448   0.002   1.396 -0.1000  0.0775 -0.0385
 7796W        W24643   9.171  18.070  12.424 -0.0316 -0.4498  0.0181
 7797W        W24644  14.910  13.725  14.357  0.3885 -0.0410 -0.1882
 7798W        W24645   3.809   6.849   2.983 -0.1412 -0.2464 -0.2255
 7799W        W24646  10.690   0.086   3.211  0.0121  0.1674  0.0262
 7800W        W24647  12.571  17.255   4.952  0.1301 -0.0910 -0.0752
 7801W        W24648  14.512  13.133  10.493  0.0614 -0.1827 -0.1174
 7802W        W24649  14.083  14.928  11.087 -0.0520 -0.2376 -0.0429
 7803W        W24650   2.767  17.782  14.898 -0.1866 -0.3344  0.3480
 7804W        W24651  14.929   3.585  10.584  0.1770 -0.2433 -0.1645
 7805W        W24652  10.355   8.470   4.945 -0.1830 -0.5098 -0.3421
 7806W        W24653   1.567  13.226   4.087  0.1630 -0.3278  0.0019
 7807W        W24654  12.226   4.133  13.936 -0.1233 -0.1644 -0.3590
 7808W        W24655   0.323  14.340   2.843 -0.0857 -0.0384 -0.0747
 7809W        W24656  14.753  11.246   0.602 -0.1517 -0.0634 -0.0520
 7810W        W24657  13.148   8.521   2.356 -0.1929  0.1178 -0.0772
 7811W        W24658   9.964   6.684  15.274  0.1465 -0.0193 -0.0727
 7812W        W24659  13.186   7.794   0.941 -0.1769  0.0225 -0.1922
 7813W        W24660   5.373   2.157  10.925  0.1750 -0.0604 -0.1152
 7814W        W24661   7.268   2.250  12.645 -0.0272 -0.1461  0.0131
 7815W        W24662   0.732   8.433   1.807  0.0272  0.2250  0.1007
 7816W        W24663   3.719   1.438   2.451  0.0590  0.2371 -0.0813
 7817W        W24664  12.101   5.969  10.718  0.1385 -0.2953 -0.1704
 7818W        W24665   2.773  13.280   3.541 -0.0427  0.0812 -0.1327
 7819W        W24666   0.868   6.485   3.976 -0.3545 -0.2103  0.1168
 7820W        W24667   1.647   6.888   5.511 -0.0095 -0.1623  0.3133
 7821W        W24668  16.018   5.001  11.509 -0.0073 -0.3117  0.2926
 7822W        W24669   8.703   3.559   5.565 -0.2905 -0.0995 -0.1321
 7823W        W24670   4.886   8.471   1.921 -0.2325  0.0087  0.2171
 7824W        W24671  12.428  13.351   1.783 -0.1659 -0.1341 -0.1213
 7825W        W24672  15.907  16.616   1.533  0.0791  0.0241 -0.2395
 7826W        W24673  15.308   2.205  15.284  0.0811 -0.3188 -0.0143
 7827W        W24674  13.181   0.894   3.989  0.0385 -0.1687 -0.2619
 7828W        W24675   7.665  12.846   1.902  0.1105 -0.1655 -0.1636
 7829W        W24676  11.223   2.881   4.158 -0.2420 -0.0149  0.0432
 7830W        W24677  16.757   1.646  13.768  0.2331  0.2513  0.2483
 7831W        W24678   3.568  14.413   0.606  0.2872  0.0330  0.0724
 7832W        W24679  17.652  15.086   0.712 -0.0364 -0.2342  0.2002
 7833W        W24680  15.744  11.261   6.132 -0.0388 -0.1675  0.0907
 7834W        W24681   9.962  14.673   4.592 -0.3213  0.1329 -0.2900
 7835W        W24682  13.831   5.595  10.781 -0.2502  0.1264 -0.1471
 7836W        W24683  17.691  14.334  11.862 -0.0076  0.3701  0.0324
 7837W        W24684   4.080  12.480  12.982  0.0757  0.1787 -0.0257
 7838W        W24685  16.754   4.137   3.269  0.0281 -0.3731 -0.1192
 7839W        W24686   4.920  16.593  13.906  0.1748  0.0034  0.1529
 7840W        W24687  12.295  11.103   1.425  0.1827  0.0583  0.1235
 7841W        W24688  15.473  12.921  15.445 -0.1216 -0.0813  0.2214
 7842W        W24689   4.627   3.085   3.325  0.0705 -0.1321 -0.0050
 7843W        W24690   7.495   4.920  12.707  0.1799 -0.1486 -0.0940
 7844W        W24691   3.916   8.399   0.983  0.2518  0.1824 -0.1196
 7845W        W24692   2.901  12.896   0.881 -0.0013  0.0385 -0.1843
 7846W        W24693   8.042   9.634  12.224  0.1910  0.0571  0.1248
 7847W        W24694   4.169  12.892   9.899 -0.0330  0.1447 -0.1063
 7848W        W24695   4.957   9.778   5.752 -0.0134  0.2396  0.1269
 7849W        W24696   0.402   2.559   2.676  0.1338 -0.0203  0.3271
 7850W        W24697  11.830  16.661  11.264 -0.0227 -0.0338 -0.2962
 7851W        W24698   1.070   8.390  14.270  0.2132  0.0322 -0.3986
 7852W        W24699   3.056   9.378  14.136 -0.1032 -0.1938  0.0281
 7853W        W24700   2.704  14.255  13.137 -0.2940  0.0388 -0.0590
 7854W        W24701   7.563   9.525  14.775 -0.0582  0.0025  0.0465
 7855W        W24702  12.058  12.094  14.556 -0.0973  0.1269 -0.0535
 7856W        W24703  12.614   0.691   4.690 -0.0905 -0.0847 -0.0445
 7857W        W24704   7.452   3.494   2.864 -0.2042  0.1467 -0.0256
 7858W        W24705  11.570  14.048  10.880 -0.1212  0.0119  0.4549
 7859W        W24706   1.025  15.915  15.663 -0.0542 -0.0158  0.0994
 7860W        W24707  15.918   5.379  12.105 -0.0946 -0.1165  0.0866
 7861W        W24708   8.944   4.562   5.626 -0.3010 -0.2417 -0.0182
 7862W        W24709  18.819   9.873   2.806 -0.0895 -0.1513  0.3024
 7863W        W24710   5.228  16.175  11.031 -0.0483  0.1322  0.0352
 7864W        W24711   3.485   8.604   2.597 -0.1977 -0.0874  0.2098
 7865W        W24712   6.822  14.481  15.662  0.2169  0.1333 -0.1841
 7866W        W24713  13.272   2.835   2.276  0.1040  0.5755  0.1462
 7867W        W24714  12.172  13.821  14.780 -0.1502 -0.0939  0.0514
 7868W        W24715   8.359   5.796   4.056 -0.1825 -0.0991  0.0462
 7869W        W24716   5.452  18.034  13.814 -0.0051 -0.1334  0.0771
 7870W        W24717  10.692   3.661   0.629 -0.0218 -0.2794  0.2442
 7871W        W24718  17.878  18.618  13.764  0.1166  0.0426 -0.1643
 7872W        W24719  17.679  14.066   0.775 -0.0985  0.3889  0.1883
 7873W        W24720  17.803  16.303   3.234 -0.2667  0.0192 -0.0001
 7874W        W24721   2.435   9.121   5.114  0.3722  0.3887  0.0057
 7875W        W24722   3.715   7.582  13.270  0.0185  0.0526 -0.1218
 7876W        W24723  17.591   8.763   4.379  0.3170 -0.3048 -0.2068
 7877W        W24724  10.729   9.667   1.123  0.1305  0.0638  0.0877
 7878W        W24725  11.241  13.027  10.774 -0.1613  0.1252 -0.1337
 7879W        W24726   4.943  15.861   2.102 -0.0121  0.0561  0.2044
 7880W        W24727   4.924   1.191   4.084  0.0945 -0.1400  0.0620
 7881W        W24728   5.361  13.636   3.827  0.0331  0.0807  0.0845
 7882W        W24729  13.413  13.691   3.531  0.3947 -0.1996  0.0768
 7883W        W24730  12.440   1.293  10.579 -0.0979 -0.0673  0.0585
 7884W        W24731  18.263  14.201   3.658 -0.1016  0.0063 -0.0285
 7885W        W24732   4.357   6.266   1.690  0.0697 -0.0653 -0.1836
 7886W        W24733  17.211  16.991  12.942  0.1718  0.2471 -0.3643
 7887W        W24734   3.377  14.411  12.468 -0.0561 -0.1550 -0.0916
 7888W        W24735   5.496   8.547   1.154 -0.3962  0.1369  0.0933
 7889W        W24736  13.445   4.936   3.885  0.1364 -0.2066  0.0123
 7890W        W24737  13.919  10.613   0.494  0.2726  0.2817 -0.1982
 7891W        W24738  17.325   2.056  13.993 -0.2981 -0.1109 -0.3552
 7892W        W24739  12.737   7.223  11.674 -0.0427 -0.1647  0.4027
 7893W        W24740   1.180   9.911   4.372  0.2290  0.1457  0.0408
 7894W        W24741   7.301   6.912  10.801 -0.0265  0.3149 -0.3684
 7895W        W24742   0.410   5.081  13.699  0.2680 -0.0403 -0.0497
 7896W        W24743   5.591   1.700  15.267 -0.0927 -0.1634 -0.1848
 7897W        W24744   3.507  14.736   2.243  0.1125  0.3329 -0.2291
 7898W        W24745  12.069  11.585  14.561 -0.1039 -0.1377 -0.2774
 7899W        W24746  14.522  16.274   2.481  0.2147 -0.4182 -0.2104
 7900W        W24747  18.627  17.797  12.822 -0.2909  0.1060  0.0242
 7901W        W24748   1.562  13.809   1.638  0.0643  0.1604  0.1334
 7902W        W24749   3.251  17.993   4.644 -0.0950 -0.0995  0.1086
 7903W        W24750  17.026   4.649  14.517 -0.0929 -0.1633  0.1963
 7904W        W24751  13.030   8.289  11.893  0.0301  0.1863  0.1340
 7905W        W24752  12.342   3.954   3.729  0.0046  0.1751  0.3464
 7906W        W24753  13.113  17.158  11.443  0.2097 -0.1685  0.5197
 7907W        W24754   3.004   5.586  11.709  0.1733 -0.2299  0.1345
 7908W        W24755  17.381  16.553   2.961 -0.3517 -0.5154 -0.0439
 7909W        W24756  10.706   6.226   1.786  0.2252  0.0866  0.0809
 7910W        W24757  13.920   4.971  14.570 -0.2742 -0.2086  0.1001
 7911W        W24758   9.498  17.686  10.616 -0.1611  0.1328  0.0116
 7912W        W24759   0.569   7.304   0.625 -0.1776 -0.3038 -0.1191
 7913W        W24760   6.557  13.997  12.339 -0.0239 -0.0075  0.0452
 7914W        W24761   0.563   2.314  13.670  0.3065  0.0755  0.0642
 7915W        W24762   2.721  11.762   2.170 -0.0954 -0.0835 -0.1069
 7916W        W24763  11.017   4.489   4.393  0.1946  0.1613 -0.0283
 7917W        W24764   8.300   7.047   2.885 -0.1377  0.2735 -0.1433
 7918W        W24765   5.975   5.895   4.038  0.1066  0.0745 -0.0112
 7919W        W24766  18.105  15.368  11.751  0.0565 -0.0492  0.3400
 7920W        W24767   0.181  18.269  15.603  0.0691  0.2936 -0.1289
 7921W        W24768  12.127   0.266   0.813  0.2660 -0.1172 -0.2961
 7922W        W24769  10.099  14.029  10.684  0.2367  0.0453  0.2981
 7923W        W24770  16.027  12.328   4.882  0.1667  0.0626  0.2065
 7924W        W24771   9.648  10.830   0.459 -0.0968 -0.0397  0.1417
 7925W        W24772   7.950  13.491  14.370 -0.0568  0.1094 -0.0871
 7926W        W24773   3.007  17.492   3.634 -0.0424 -0.0752 -0.0731
 7927W        W24774  10.351  14.866   4.289 -0.1967  0.0134 -0.1326
 7928W        W24775  11.614  11.020  12.405 -0.1363 -0.1317 -0.0617
 7929W        W24776  10.972  17.524   0.161 -0.3139  0.0356 -0.1926
 7930W        W24777  16.818  10.733  15.310 -0.3145 -0.0370  0.0898
 7931W        W24778   7.135   1.457  12.371 -0.0359 -0.0827  0.0569
 7932W        W24779  18.126   7.578  13.894  0.1233  0.0741 -0.1182
 7933W        W24780   0.724   7.666   0.005  0.0238  0.0018  0.0346
 7934W        W24781   9.301   8.403   3.356  0.2598  0.3138 -0.0621
 7935W        W24782  13.831  12.916   2.862 -0.2078  0.0577 -0.2290
 7936W        W24783   7.642  17.480  14.746  0.4011  0.0911 -0.0916
 7937W        W24784  10.586  17.476   1.556  0.0271 -0.1486  0.0071
 7938W        W24785   9.147   1.642  12.121  0.1543  0.0578 -0.1081
 7939W        W24786  14.704  10.833  14.756 -0.0682 -0.0533 -0.0312
 7940W        W24787   5.954   8.301   5.739  0.3092  0.2015  0.3924
 7941W        W24788   1.900   6.615   2.300 -0.1548 -0.1845 -0.1508
 7942W        W24789   5.661   2.184   3.158  0.1726  0.0922  0.2430
 7943W        W24790  15.248   5.280   3.448 -0.0699 -0.0602  0.0892
 7944W        W24791   2.768   2.895   3.665 -0.1805 -0.0555  0.0496
 7945W        W24792  16.210  11.602  13.282  0.4116 -0.0511  0.1581
 7946W        W24793   5.200   5.169   4.945  0.0357 -0.1296  0.2490
 7947W        W24794  14.206  14.861  11.575  0.0390 -0.0649  0.1802
 7948W        W24795  11.556  16.333  11.525 -0.0090  0.1000 -0.4014
 7949W        W24796   3.439   6.023  14.850 -0.1078  0.1087  0.3303
 7950W        W24797   0.288   9.308   5.017  0.1763  0.4269 -0.0589
 7951W        W24798   2.428   3.990  15.079 -0.2293  0.1813 -0.0651
 7952W        W24799   2.340   1.669  13.768 -0.1267 -0.2428 -0.1601
 7953W        W24800  14.773  13.633   1.708 -0.1734  0.0847 -0.0303
 7954W        W24801  10.073  12.856   4.319  0.3546  0.2736  0.1700
 7955W        W24802   3.889  12.170   2.977  0.0892  0.0815  0.1810
 7956W        W24803   9.352  17.286  13.797  0.2352  0.0888  0.0838
 7957W        W24804  16.572   2.456  13.702  0.2195  0.3074  0.2049
 7958W        W24805   1.946  14.537  14.076 -0.2625  0.1989  0.0591
 7959W        W24806  11.127  15.811   0.131 -0.1583  0.2197  0.1036
 7960W        W24807   6.544  14.046  12.842  0.2784  0.0605 -0.0191
 7961W        W24808   9.665  13.115  12.438  0.0720 -0.1285  0.0575
 7962W        W24809   4.644   9.244   4.447  0.0919 -0.0087  0.0055
 7963W        W24810   1.114  18.114   4.155 -0.0004 -0.1540 -0.1678
 7964W        W24811   0.167  14.446   1.006 -0.0440  0.0326  0.0965
 7965W        W24812  14.161  10.895   2.793 -0.3203  0.3192  0.0649
 7966W        W24813  14.779   8.629  15.292  0.0044 -0.0401 -0.0479
 7967W        W24814  15.171  12.325   5.307  0.0404  0.0996 -0.3362
 7968W        W24815  13.606  11.748   0.098  0.0324  0.0978 -0.2227
 7969W        W24816   0.415   5.107   3.272 -0.3739  0.1141 -0.1387
 7970W        W24817   7.836  14.486   2.856 -0.5105 -0.1585 -0.1111
 7971W        W24818   3.384  16.695   1.709 -0.0331 -0.2418  0.1553
 7972W        W24819   4.221   7.280  15.264  0.2109 -0.0983  0.0862
 7973W        W24820   3.864  18.287   3.364  0.1301  0.0055 -0.0918
 7974W        W24821   1.933   5.245  14.696 -0.0202 -0.1278  0.1217
 7975W        W24822   0.857   5.703   2.711  0.0597  0.2366 -0.2506
 7976W        W24823   9.758  13.535   0.103 -0.1785  0.1567 -0.0024
 7977W        W24824   0.482  12.420  13.913  0.1849 -0.1212 -0.0548
 7978W        W24825   7.481  11.051  14.073 -0.0495 -0.3902  0.1799
 7979W        W24826  18.274   4.202  15.773 -0.1671  0.1094  0.2431
 7980W        W24827  13.156  13.325  13.156 -0.0194  0.0107  0.2224
 7981W        W24828  13.299   4.140   3.499 -0.3346  0.0446  0.1772
 7982W        W24829  15.456   0.602   3.536  0.3748 -0.0274  0.0305
 7983W        W24830  17.666   5.233  11.555  0.0147  0.0277  0.0863
 7984W        W24831  10.134  18.139  12.518  0.0139  0.2006  0.1111
 7985W        W24832   4.250  12.987  10.724 -0.0078  0.3958  0.2394
 7986W        W24833   0.060   0.181   3.695  0.0794 -0.0557  0.0943
 7987W        W24834   5.285  17.521   4.519 -0.0296  0.0492  0.1746
 7988W        W24835   0.261  15.665  15.321 -0.0553 -0.2987 -0.2057
 7989W        W24836  14.686   5.539  13.535 -0.1570 -0.0614  0.1216
 7990W        W24837   9.850  10.728   1.464 -0.0244 -0.0992  0.0562
 7991W        W24838   2.888   7.504  13.484  0.1025 -0.2299  0.0451
 7992W        W24839   5.905   6.864   3.917  0.0667  0.0497 -0.3779
 7993W        W24840  16.309   6.544  14.769 -0.1991  0.3556 -0.1507
 7994W        W24841  14.786  13.144  15.171 -0.2513  0.2496 -0.2266
 7995W        W24842  10.447   0.853   0.097  0.3576 -0.1600 -0.1710
 7996W        W24843   6.555  11.301  14.165 -0.2216  0.0954  0.0963
 7997W        W24844   7.267   2.995   2.501 -0.1108  0.1216 -0.0655
 7998W        W24845   6.361  15.843   4.502 -0.1930  0.1357  0.2178
 7999W        W24846   9.102   4.153   0.744 -0.3171 -0.0362 -0.1744
 8000W        W24847   7.484  16.419  10.780 -0.0915 -0.3007  0.4148
 8001W        W24848   2.934  12.156   5.533  0.2461 -0.3457  0.1643
 8002W        W24849  15.902   0.182   4.927  0.1520 -0.3108  0.1485
 8003W        W24850  13.334   7.895  12.205 -0.0587  0.0513 -0.0305
 8004W        W24851   2.481   8.908  13.258  0.1207 -0.0010  0.2416
 8005W        W24852   0.868  11.640  14.226 -0.0893  0.3183 -0.2133
 8006W        W24853  15.327  12.290  14.129 -0.0849 -0.3198 -0.3525
 8007W        W24854   3.646   9.132   0.551  0.1767  0.0646  0.2227
 8008W        W24855  10.757   4.079  13.912 -0.1148  0.1198 -0.2965
 8009W        W24856   5.808   2.313   5.115  0.2156 -0.2564 -0.1626
 8010W        W24857  13.786   7.848   5.647  0.0744 -0.1562 -0.0208
 8011W        W24858   7.131   8.852   2.486 -0.0200  0.1976 -0.0735
 8012W        W24859   4.692  17.689   3.317  0.0366  0.0824 -0.0824
 8013W        W24860  14.405   3.369  14.092  0.2897  0.3258 -0.1046
 8014W        W24861   8.281  18.243   4.528  0.0006  0.0017  0.1718
 8015W        W24862   6.630   8.718   1.479  0.1603 -0.1174  0.1435
 8016W        W24863  12.777  17.827   0.864 -0.0611  0.1019  0.0014
 8017W        W24864   5.890  14.161  13.596 -0.0866  0.1729 -0.1614
 8018W        W24865  18.590  14.157  14.374 -0.3173  0.1412  0.0369
 8019W        W24866   1.607   4.822   6.347  0.0816  0.0277 -0.0331
 8020W        W24867   7.150  11.217  15.658 -0.0050  0.0926 -0.3300
 8021W        W24868   6.451   4.717   1.032 -0.2018 -0.0532 -0.1496
 8022W        W24869   6.387   0.622  12.307  0.0409 -0.1577  0.1824
 8023W        W24870   5.375   5.441   2.303 -0.3329  0.0231  0.0387
 8024W        W24871  15.055   7.904   5.062  0.1361 -0.2356 -0.0287
 8025W        W24872   1.704   6.308  11.203  0.0877 -0.1922  0.2200
 8026W        W24873   5.788   9.263  11.268 -0.1649 -0.0726  0.1217
 8027W        W24874   5.247   6.161  14.577  0.0929  0.0428  0.3030
 8028W        W24875   4.221  15.325  11.953 -0.0468 -0.0163 -0.1600
 8029W        W24876  18.653   3.029  14.619  0.1032 -0.1782  0.2946
 8030W        W24877   0.645  10.128   1.693  0.3423 -0.1187 -0.1185
 8031W        W24878  10.084  17.860   0.337  0.0393 -0.0437  0.0965
 8032W        W24879   4.317   1.784   4.766  0.1880 -0.1704  0.1414
 8033W        W24880   6.650   2.637  14.484 -0.2156 -0.3164 -0.4496
 8034W        W24881  13.989   0.204  12.253  0.0397 -0.1934 -0.3964
 8035W        W24882  15.916   8.526  13.264  0.1590  0.1959  0.1457
 8036W        W24883  10.719  14.875  13.183 -0.0345  0.0890  0.3708
 8037W        W24884  12.299  17.604   4.532  0.1024 -0.3134 -0.2791
 8038W        W24885   7.121  14.064  14.725  0.0112 -0.1650 -0.1795
 8039W        W24886   7.799  10.502   3.648  0.1601  0.0916  0.2539
 8040W        W24887   2.698  17.174   3.342  0.1237 -0.1886 -0.1648
 8041W        W24888   9.861  17.850   4.797 -0.3570  0.2021  0.2735
 8042W        W24889  10.832  17.596  13.831 -0.0182 -0.2191 -0.0856
 8043W        W24890   5.587  13.869  15.438  0.2819  0.2020 -0.2812
 8044W        W24891  10.237  16.158   3.996  0.2541 -0.1844  0.1652
 8045W        W24892  11.758   1.032  11.804  0.1088 -0.0112  0.2961
 8046W        W24893  11.781  11.326  13.785  0.0909  0.4188 -0.3077
 8047W        W24894  12.867  11.947   0.660 -0.1675  0.4245  0.3349
 8048W        W24895  15.166  14.189   4.916 -0.2569 -0.1681  0.1565
 8049W        W24896   3.084  17.069  11.993 -0.0486 -0.2212 -0.1362
 8050W        W24897   6.760   2.196   3.393  0.0154  0.1852  0.0914
 8051W        W24898   0.594  18.289  12.483 -0.1609  0.3612 -0.1818
 8052W        W24899   4.217   6.333   3.010  0.0230  0.0007 -0.1694
 8053W        W24900  10.113  11.597  13.848 -0.1004  0.1494  0.1072
 8054W        W24901  16.911   2.947  14.168 -0.2335  0.2495  0.0327
 8055W        W24902   7.218  15.885  11.184 -0.0788  0.1272  0.0606
 8056W        W24903  10.300   2.424   4.733 -0.3088 -0.1183  0.1288
 8057W        W24904   9.172   5.729  11.579  0.0040  0.0259 -0.0130
 8058W        W24905  14.732  18.180  15.320  0.3346  0.1180 -0.0361
 8059W        W24906   6.330  18.752  11.017 -0.1438 -0.3007 -0.0830
 8060W        W24907   7.655   9.276   5.141 -0.1114 -0.1580  0.5797
 8061W        W24908  12.011  17.394  13.422 -0.0825  0.3140  0.0640
 8062W        W24909  13.679  14.607  14.133 -0.0219  0.1504  0.1729
 8063W        W24910   2.091  16.496   0.808 -0.1898  0.0600  0.0478
 8064W        W24911   6.337   7.085   0.900 -0.0038 -0.3937  0.0782
 8065W        W24912  10.072  15.005  12.608  0.1718 -0.2027  0.0243
 8066W        W24913   7.724  10.320  15.710 -0.3436  0.1753 -0.2339
 8067W        W24914  12.546  18.814   0.545 -0.0698  0.0738  0.1482
 8068W        W24915   6.131  12.387  14.207 -0.2118 -0.1665 -0.1504
 8069W        W24916  11.227  16.017   1.457  0.2902  0.1861  0.1032
 8070W        W24917  18.677   1.976  14.003 -0.2317  0.1648 -0.0574
 8071W        W24918   3.094   4.617  12.195  0.3912  0.1982 -0.0079
 8072W        W24919  15.839   7.291   4.835  0.1248 -0.0053 -0.0358
 8073W        W24920   3.826  16.423   2.415 -0.0884  0.1034  0.4102
 8074W        W24921  11.744   0.354  14.829 -0.2431  0.2079 -0.0139
 8075W        W24922   6.734  14.394   9.422 -0.3992 -0.1914  0.0935
 8076W        W24923   5.307   1.659   4.569 -0.1763  0.3924 -0.1994
 8077W        W24924   8.068  18.127   1.180 -0.0831  0.0600 -0.3393
 8078W        W24925   8.697   8.685  14.418 -0.1093 -0.2111 -0.2715
 8079W        W24926   9.656  17.140   0.996  0.1204  0.2004  0.1361
 8080W        W24927   4.345   0.302  14.606 -0.3187  0.1432 -0.0702
 8081W        W24928   9.138  12.772   1.532 -0.1679 -0.1516 -0.2667
 8082W        W24929  11.595  16.539   3.977  0.1265 -0.0172  0.0447
 8083W        W24930   0.932  14.326   0.887  0.0732  0.0093 -0.0408
 8084W        W24931  16.051   3.411   1.915  0.0045  0.0868  0.1051
 8085W        W24932   1.743   3.199  14.778 -0.0474 -0.1908 -0.3126
 8086W        W24933  10.089  18.853   0.808 -0.0075 -0.0507  0.0460
 8087W        W24934  16.464   2.872  13.920  0.0706 -0.1475  0.0967
 8088W        W24935  16.033  13.381   0.526  0.0360  0.1076  0.1657
 8089W        W24936  18.253  10.703  13.076  0.2154 -0.1125  0.3921
 8090W        W24937  16.418   3.297  12.071  0.2675 -0.0806 -0.1472
 8091W        W24938   6.852  14.684  10.916  0.0925 -0.0545  0.0623
 8092W        W24939  12.889   2.084   1.921  0.1145 -0.2413 -0.0549
 8093W        W24940   5.212   1.669  11.217  0.0699 -0.0673 -0.0079
 8094W        W24941   6.060  14.562   5.285  0.1433 -0.1125 -0.0255
 8095W        W24942  15.781   2.905   0.988  0.1159 -0.0990 -0.2474
 8096W        W24943   3.167  14.222  12.890  0.0223  0.0204  0.0936
 8097W        W24944  10.854   5.024   0.464  0.2801 -0.0415  0.2813
 8098W        W24945  12.672  11.686  12.033 -0.2447 -0.1784  0.1725
 8099W        W24946  18.200  10.744   4.071 -0.1588 -0.0752  0.3629
 8100W        W24947   0.299  17.186   4.639  0.1014  0.1837 -0.0302
 8101W        W24948  13.557  12.528  11.912 -0.1458  0.0088  0.0976
 8102W        W24949   6.344   3.529  14.092  0.1014 -0.0959  0.0134
 8103W        W24950   8.795   1.678  14.834 -0.0461  0.1285 -0.0483
 8104W        W24951   5.943   9.398  13.740  0.3193  0.1205  0.2751
 8105W        W24952   8.574   3.740   1.179 -0.0526  0.0958 -0.0039
 8106W        W24953   8.450   3.211   1.258 -0.2161 -0.3276  0.0505
 8107W        W24954  15.080  18.159  14.509 -0.0435  0.1556  0.3202
 8108W        W24955  14.964   3.505   2.988 -0.2418  0.1856 -0.0837
 8109W        W24956  13.358  10.892   1.697  0.0864  0.1276 -0.0375
 8110W        W24957   6.839   4.033   5.182  0.0599  0.4211 -0.2281
 8111W        W24958   8.893  14.030   4.557 -0.1244 -0.1545  0.1572
 8112W        W24959   3.654   0.212   0.903 -0.0224  0.2029 -0.2478
 8113W        W24960  17.959  18.817  11.849 -0.1403 -0.3145 -0.1098
 8114W        W24961   0.091   3.806   0.018 -0.0480  0.1005 -0.0204
 8115W        W24962  14.481   0.944   3.183 -0.1181  0.3845 -0.0236
 8116W        W24963  15.454   0.438  14.403  0.1650  0.1303  0.3078
 8117W        W24964   7.345   9.298   0.170  0.0553 -0.0993 -0.0664
 8118W        W24965   2.071   2.204   1.528  0.1518 -0.3571 -0.0195
 8119W        W24966  10.052   0.543  15.769  0.1368 -0.4779  0.0082
 8120W        W24967   0.205   6.323  12.871 -0.0358 -0.1218  0.0497
 8121W        W24968   8.611  16.027   1.571 -0.0523  0.2355 -0.0641
 8122W        W24969  11.303  10.710  10.516 -0.3255 -0.1712  0.1593
 8123W        W24970   4.929  13.978  11.673 -0.0312  0.1060  0.1433
 8124W        W24971  13.862  16.122  14.472 -0.1767  0.0139 -0.0597
 8125W        W24972   3.060  11.638  12.926 -0.1332 -0.1560 -0.1357
 8126W        W24973  10.525   9.468   2.656 -0.0754 -0.1306  0.1259
 8127W        W24974  10.661  12.582   4.319 -0.3407  0.1186 -0.0510
 8128W        W24975  15.099   6.649   1.816  0.1309 -0.2822 -0.0877
 8129W        W24976  18.052   0.707  13.366 -0.0548  0.1463 -0.1651
 8130W        W24977  17.187   6.689   2.649  0.3067  0.1579  0.3201
 8131W        W24978  18.497   9.927  13.571 -0.3295  0.0567 -0.0810
 8132W        W24979   3.369   4.369  11.846 -0.4499  0.1787 -0.2400
 8133W        W24980   9.322   4.530  11.454  0.2555  0.3662 -0.1535
 8134W        W24981  18.479   0.167   5.425 -0.0225 -0.0379 -0.2035
 8135W        W24982  16.191   2.685   3.018  0.2504  0.2638 -0.0602
 8136W        W24983  16.940  10.850  13.093  0.2492 -0.0424 -0.2225
 8137W        W24984   3.705  16.758   3.163 -0.0469 -0.0097  0.0320
 8138W        W24985  11.938  12.783   3.850 -0.1974 -0.0926 -0.2082
 8139W        W24986   7.384   5.973   2.299  0.1613  0.0492 -0.1951
 8140W        W24987  13.567  18.663  12.973 -0.0898 -0.0046 -0.1112
 8141W        W24988   9.685  14.736   2.755 -0.1243 -0.1478 -0.2401
 8142W        W24989   6.064   0.280  15.270 -0.3309 -0.2303  0.3830
 8143W        W24990  10.354   5.916  12.273 -0.0828  0.1031 -0.2021
 8144W        W24991   2.275  12.351  11.324 -0.4969 -0.3440 -0.2568
 8145W        W24992   7.110   6.967   1.415 -0.0622  0.0745 -0.3682
 8146W        W24993   9.935  18.712  13.487 -0.0130 -0.1544 -0.0209
 8147W        W24994  10.705   2.319  14.111  0.2912 -0.2097 -0.1854
 8148W        W24995   3.482  14.522  11.198  0.1090 -0.0910  0.1256
 8149W        W24996  18.716   2.638  14.956  0.0021 -0.2144 -0.0159
 8150W        W24997   7.647   7.132  15.579 -0.5284  0.0384 -0.3406
 8151W        W24998   0.556   9.613  14.016  0.4368 -0.1471  0.1077
 8152W        W24999   0.335   6.420  15.568  0.1159 -0.0270 -0.0568
 8153W        W25000   2.056   3.366   4.599 -0.0592  0.1340  0.1464
 8154W        W25001  16.827   9.555  15.007  0.1719  0.1503 -0.0384
 8155W        W25002  15.828  16.861   4.325 -0.3034  0.1594  0.0702
 8156W        W25003   4.966  14.624  12.592  0.0496  0.1190 -0.0297
 8157W        W25004   6.089   2.723   5.002 -0.0879  0.1351 -0.0131
 8158W        W25005   3.650  16.701   3.663 -0.1327 -0.0412 -0.2632
 8159W        W25006   1.593  12.245   1.604 -0.1015  0.1200 -0.1771
 8160W        W25007   4.418  16.434   1.005 -0.3117 -0.1895  0.0249
 8161W        W25008  14.138  11.823   3.669  0.1451  0.0451  0.1585
 8162W        W25009  11.611  15.870   4.481  0.1626  0.4988 -0.1363
 8163W        W25010  12.614   9.076  13.567  0.0610 -0.0870 -0.0207
 8164W        W25011   7.364   1.383  14.658  0.1033 -0.3822  0.1219
 8165W        W25012  11.676   7.054   3.230  0.1218 -0.2543 -0.0887
 8166W        W25013  18.250   0.587   3.378  0.4023 -0.1269  0.0550
 8167W        W25014   5.660  15.019   2.342 -0.1997  0.0770 -0.3753
 8168W        W25015  11.341   8.831   3.650 -0.0566 -0.0132 -0.0432
 8169W        W25016  17.419   0.976   4.341 -0.0173 -0.3087  0.0115
 8170W        W25017  12.282   4.888  14.543  0.0245 -0.4250 -0.1624
 8171W        W25018   7.496   6.499   2.192  0.3300  0.1449 -0.2553
 8172W        W25019  16.891  16.198   0.443 -0.0513 -0.0301 -0.0006
 8173W        W25020   6.175   0.437   0.203  0.1143  0.1481  0.0557
 8174W        W25021   0.029   7.673   3.426  0.1438  0.4259  0.0071
 8175W        W25022   0.985   2.305  15.604  0.0122  0.1158 -0.1536
 8176W        W25023   1.052  15.418  15.652  0.3272 -0.1277  0.1122
 8177W        W25024  18.805   0.269   2.660 -0.3345 -0.0216  0.3661
 8178W        W25025  10.923   4.660  13.189 -0.0743 -0.0537 -0.0907
 8179W        W25026   6.448   5.062   2.834 -0.0652 -0.0900 -0.2034
 8180W        W25027  10.751  16.703  11.380  0.2929  0.0448 -0.1574
 8181W        W25028   9.499   7.157   4.512  0.0295 -0.0404  0.2411
 8182W        W25029   8.246   7.871  12.933 -0.0339 -0.2101 -0.1666
 8183W        W25030   2.506   8.038   2.882 -0.1134 -0.1265 -0.2516
 8184W        W25031  14.440   0.922  11.855  0.3677 -0.1969 -0.2557
 8185W        W25032   2.118  14.029  13.984  0.3630  0.0927  0.1097
 8186W        W25033   0.478  17.452  15.440  0.0900 -0.1637 -0.0023
 8187W        W25034  14.802   1.600  14.055 -0.0152  0.3244  0.2275
 8188W        W25035  16.265  14.121   0.699  0.0708  0.1201 -0.0912
 8189W        W25036  11.643   4.036  11.367 -0.1472 -0.2377  0.1181
 8190W        W25037  12.155   0.323   2.332 -0.1332 -0.0794 -0.0810
 8191W        W25038   6.873  17.685  10.250 -0.2640 -0.1139  0.0342
 8192W        W25039  16.377   5.882   3.430  0.0055 -0.0778 -0.0324
 8193W        W25040   5.046  18.839  10.834  0.1002 -0.0537  0.0986
 8194W        W25041  11.475   0.995   0.446  0.1602 -0.0847  0.0088
 8195W        W25042   6.860   4.799   3.675 -0.3628 -0.0080 -0.1359
 8196W        W25043  15.987   5.928  12.488 -0.1576  0.0262 -0.2097
 8197W        W25044   1.032  11.779   2.807  0.3090 -0.3860  0.2792
 8198W        W25045  13.210  14.779   2.541 -0.1593  0.0372 -0.0410
 8199W        W25046   2.342  14.304   3.658 -0.0620 -0.4094 -0.0122
 8200W        W25047   1.588   1.216  12.922  0.1329 -0.1184 -0.0155
 8201W        W25048  15.238   6.797   4.434 -0.0088 -0.0167  0.1170
 8202W        W25049  11.338  18.543   5.101  0.0364 -0.3377 -0.2386
 8203W        W25050   6.612  15.618   3.143 -0.0895 -0.1689  0.0568
 8204W        W25051  14.994   9.357  14.494 -0.3972  0.0929  0.1390
 8205W        W25052   5.445   4.816   5.828  0.0584  0.0435  0.3328
 8206W        W25053   2.586   8.322   3.893  0.0422  0.0891 -0.0245
 8207W        W25054  11.497   8.820   1.075  0.1109  0.0867 -0.0984
 8208W        W25055  15.161  14.296  14.806  0.3314  0.1444  0.3269
 8209W        W25056  18.106  13.380  11.529  0.0238 -0.0055  0.0318
 8210W        W25057   4.114   8.701   1.384 -0.0396 -0.1074 -0.3054
 8211W        W25058  13.878   9.492  10.415 -0.1773  0.1633 -0.4920
 8212W        W25059   9.545  14.490   1.297 -0.1079  0.1436  0.0680
 8213W        W25060   0.127   7.938  15.575 -0.0514 -0.1776 -0.0943
 8214W        W25061   5.374  14.085  11.453 -0.2176  0.0274 -0.0554
 8215W        W25062  15.077  10.450  12.102  0.0368  0.1633  0.1939
 8216W        W25063  18.852  15.127  11.393  0.1009 -0.0411  0.1879
 8217W        W25064   5.532   9.063  12.595  0.0682  0.0453  0.2724
 8218W        W25065   4.128  10.171   1.161 -0.0945 -0.1396 -0.2847
 8219W        W25066   0.300  11.542   5.346  0.1735  0.0601 -0.0794
 8220W        W25067   4.516   3.032   0.171  0.3588 -0.0669  0.3016
 8221W        W25068  10.582  12.608  14.644 -0.3015 -0.0915 -0.1317
 8222W        W25069   4.442  11.311  11.127  0.0322  0.1518 -0.2524
 8223W        W25070  10.916   2.574  15.493  0.1898 -0.0464 -0.2647
 8224W        W25071  11.056  13.453   2.105 -0.1637  0.2668 -0.1450
 8225W        W25072   7.841  18.603  14.034  0.1212 -0.2837 -0.2576
 8226W        W25073  15.851  12.939   1.920 -0.2761 -0.3829 -0.3133
 8227W        W25074   2.220  16.957   3.252  0.1101 -0.0907  0.1817
 8228W        W25075   7.092   5.277  13.157  0.2240  0.0554 -0.2305
 8229W        W25076  13.204  17.645   0.685  0.0315 -0.0113  0.0579
 8230W        W25077  17.392   3.328   4.319 -0.1793  0.0595 -0.0102
 8231W        W25078   4.301   0.998   1.824  0.1442  0.0534  0.3807
 8232W        W25079   5.228   4.862  15.373 -0.0740  0.0539 -0.0763
 8233W        W25080   9.185  13.887   3.654 -0.1741 -0.2719  0.1564
 8234W        W25081   4.074  12.608  11.069  0.3936 -0.1108  0.1691
 8235W        W25082  17.289   7.046   3.044 -0.0297 -0.1746 -0.0375
 8236W        W25083  11.874  13.207   2.350 -0.0036 -0.0000 -0.0831
 8237W        W25084   4.390  15.635  13.986 -0.1236  0.0202  0.1211
 8238W        W25085  18.819   6.508   6.350 -0.1310 -0.0605  0.0605
 8239W        W25086  10.202   9.284  10.492  0.1855 -0.2371 -0.1372
 8240W        W25087   0.357  15.060   3.640 -0.0384  0.1542  0.0103
 8241W        W25088  11.534  15.592  12.069  0.1549 -0.0510  0.2662
 8242W        W25089   8.304   8.271   5.172  0.2023  0.2388  0.0433
 8243W        W25090  11.402  15.664  10.966  0.0319 -0.1455 -0.2075
 8244W        W25091  11.578   3.682   4.076  0.0089 -0.1086  0.2525
 8245W        W25092   1.596   6.463   0.068 -0.0142  0.2023  0.2634
 8246W        W25093   9.238   1.788  11.174 -0.0100 -0.3489  0.1946
 8247W        W25094   2.832   2.095  15.619 -0.0330 -0.3981 -0.2051
 8248W        W25095   9.880   5.016   1.363 -0.0598 -0.0910  0.0000
 8249W        W25096   8.934  13.852   1.312 -0.0971  0.4740  0.2954
 8250W        W25097  10.131   1.033  15.445  0.2599 -0.0024  0.2048
 8251W        W25098   0.984  13.278   2.814 -0.1861  0.0424 -0.1069
 8252W        W25099   8.821   0.141  14.833  0.2698  0.3480 -0.2452
 8253W        W25100  12.026  17.208   1.962 -0.0532 -0.0897  0.5148
 8254W        W25101   5.391  10.023  15.278 -0.0609 -0.1772 -0.1047
 8255W        W25102   8.257  13.166   3.686  0.0758  0.2556 -0.1519
 8256W        W25103   1.291  11.918  10.976  0.0618  0.2498 -0.2532
 8257W        W25104  15.025   8.240   0.819 -0.1965 -0.0408 -0.0904
 8258W        W25105   0.236   8.234   1.774 -0.1362  0.2803 -0.1928
 8259W        W25106  13.490  12.479   4.687  0.2724 -0.0406  0.0464
 8260W        W25107  12.708   7.808   5.208 -0.1377 -0.1015  0.0542
 8261W        W25108   1.104  17.608   3.662 -0.1401 -0.2529  0.3121
 8262W        W25109   1.961   6.040   1.368 -0.0536  0.1429  0.1980
 8263W        W25110  13.935  14.828   4.547 -0.1081 -0.0126  0.2813
 8264W        W25111  18.444  14.593  11.616 -0.0377 -0.0765 -0.0604
 8265W        W25112   8.537   0.628   2.865  0.0086 -0.4046  0.0624
 8266W        W25113   3.898   8.092   5.271  0.1049 -0.0739  0.0255
 8267W        W25114  11.158   7.845  13.487  0.1286 -0.0168  0.3215
 8268W        W25115   3.776   0.507   3.696 -0.1362 -0.2797 -0.1935
 8269W        W25116  14.787   8.244   2.966  0.1752 -0.0117  0.2548
 8270W        W25117   6.619   7.554   0.787 -0.0243  0.1101 -0.0760
 8271W        W25118   6.242  18.663   3.931  0.1656  0.2247  0.0301
 8272W        W25119  15.472   3.984   0.135  0.1402  0.0401  0.0614
 8273W        W25120  17.934  16.761   3.095 -0.1740  0.0717 -0.1094
 8274W        W25121   4.048  16.455  11.472  0.0535 -0.3725 -0.0848
 8275W        W25122   2.435  17.604   4.367 -0.1926  0.1691  0.2342
 8276W        W25123   1.824   1.261  15.058 -0.2409  0.0903 -0.3414
 8277W        W25124  15.551  10.098   1.488 -0.2524  0.1239  0.0462
 8278W        W25125   9.546   5.823   3.606 -0.1961 -0.0377  0.1618
 8279W        W25126  16.972  12.419   3.873 -0.0089 -0.2561 -0.2012
 8280W        W25127   6.915   6.121   0.180  0.2093 -0.0018 -0.0637
 8281W        W25128   0.653   0.531   1.757 -0.1341 -0.2681 -0.2123
 8282W        W25129   1.341  17.900  11.730  0.0840  0.0397  0.1696
 8283W        W25130   8.487   7.605  12.051  0.0717 -0.1304  0.3845
 8284W        W25131  11.998  10.673  12.219 -0.1068 -0.4850  0.1047
 8285W        W25132   3.101   5.480  12.402 -0.4098  0.0330 -0.2870
 8286W        W25133  10.207   4.824   2.268  0.0357 -0.0473 -0.0472
 8287W        W25134   2.813   3.486   2.313 -0.1296 -0.1816  0.0122
 8288W        W25135   1.968   7.817   3.061 -0.3167 -0.2588  0.1786
 8289W        W25136   4.256   2.032  12.737 -0.0359  0.1206  0.0649
 8290W        W25137   3.568   4.706   0.810 -0.1073  0.0539 -0.0186
 8291W        W25138  10.237   4.884  14.085 -0.0891 -0.0037  0.2882
 8292W        W25139  11.242  17.616   3.772 -0.1525  0.1960  0.0876
 8293W        W25140  16.760   2.636   3.500 -0.3399  0.0443  0.0498
 8294W        W25141   4.958   3.098   0.421  0.0853  0.0409  0.3681
 8295W        W25142   0.850  13.102   3.804 -0.4365 -0.0423  0.0635
 8296W        W25143  12.592   6.099   3.238  0.0143 -0.1444  0.0186
 8297W        W25144  12.544   5.751   1.903  0.2360  0.1704  0.2046
 8298W        W25145  17.059  14.553  13.083 -0.2427  0.2035  0.2702
 8299W        W25146  11.077  11.209   1.917 -0.0264  0.2029 -0.1471
 8300W        W25147   6.770  16.712   4.349  0.0798  0.3175 -0.0579
 8301W        W25148   3.723  10.983  12.479  0.1474  0.2448  0.1867
 8302W        W25149  17.960  16.698   4.018  0.3495 -0.3010 -0.0902
 8303W        W25150  17.130  14.108  15.339  0.0528  0.0804  0.0151
 8304W        W25151   9.592   3.748   1.306  0.2948  0.1145 -0.0946
 8305W        W25152   3.775  10.274   0.779 -0.2000 -0.0507  0.1770
 8306W        W25153  10.247   0.355   3.475 -0.3256 -0.0321 -0.2918
 8307W        W25154  14.744   8.094  11.693 -0.3698 -0.1528  0.1576
 8308W        W25155  18.500   4.963   5.593 -0.1873  0.0740 -0.1012
 8309W        W25156  11.368   5.488   3.245 -0.3092  0.3286 -0.1804
 8310W        W25157  11.463   9.129   2.572 -0.2400  0.1189 -0.0779
 8311W        W25158  16.787   2.334  15.758 -0.1347  0.3887 -0.0905
 8312W        W25159  16.216   8.712   1.777  0.2540 -0.3329 -0.3343
 8313W        W25160   3.800   3.354   3.964 -0.0887 -0.0139  0.1224
 8314W        W25161   4.741  12.825   3.636 -0.3017  0.0522 -0.0663
 8315W        W25162  14.506   2.555  12.308 -0.0169  0.0245 -0.2198
 8316W        W25163  10.448   6.964   4.827 -0.0433  0.3485 -0.1076
 8317W        W25164   3.231  17.282   1.327 -0.1073  0.0437 -0.0453
 8318W        W25165   9.076   6.832   0.141 -0.0988 -0.1796 -0.0993
 8319W        W25166   9.580  15.740   2.763 -0.2166 -0.1233  0.1855
 8320W        W25167  14.434  15.628  15.565 -0.0844 -0.3030  0.1532
 8321W        W25168   2.985  13.902  14.608 -0.1603  0.2839  0.0942
 8322W        W25169   2.719   5.366  15.722  0.1816  0.0997  0.1257
 8323W        W25170   5.658   3.610   0.772 -0.1046 -0.2948 -0.1779
 8324W        W25171   5.003  15.952  15.024 -0.0910 -0.1802 -0.1126
 8325W        W25172   5.343  11.276   0.851 -0.0635 -0.2104  0.1691
 8326W        W25173   3.272   1.068  13.919 -0.0502 -0.0786  0.2253
 8327W        W25174  16.651   3.546   1.141  0.3678 -0.1966  0.1395
 8328W        W25175   5.603   5.453  13.656 -0.1117  0.0401  0.2080
 8329W        W25176   9.465   9.558  10.054 -0.1277  0.0052  0.1856
 8330W        W25177   0.326   5.594   0.681  0.0442 -0.3147  0.0504
 8331W        W25178   3.888   9.746   4.617 -0.2641 -0.0805  0.1512
 8332W        W25179  16.372  16.001  13.792  0.0059 -0.0676  0.0235
 8333W        W25180  17.423  12.024  15.505 -0.2721 -0.0628 -0.2098
 8334W        W25181   6.878  10.769  12.282  0.2353  0.0939 -0.3016
 8335W        W25182  14.543  13.194   1.676 -0.0328 -0.0440 -0.1148
 8336W        W25183   6.863  17.033   1.524 -0.0594 -0.0082 -0.2675
 8337W        W25184   9.927   4.552  13.376 -0.0876  0.0271  0.0309
 8338W        W25185   2.490  10.756  15.198 -0.2130 -0.0114 -0.1139
 8339W        W25186   5.290  16.148   4.559  0.1062 -0.0829 -0.2032
 8340W        W25187  15.331   4.805   3.320 -0.1420  0.0369  0.0186
 8341W        W25188  12.384   1.274   0.929  0.0300  0.1317  0.1526
 8342W        W25189   8.559  12.395  12.183 -0.0963 -0.1725 -0.1432
 8343W        W25190   9.827   3.955  11.295 -0.1483  0.2537 -0.0751
 8344W        W25191   2.894  10.404  10.985 -0.0880 -0.0626  0.2126
 8345W        W25192   1.432  12.634  13.069  0.1508 -0.0096 -0.1139
 8346W        W25193  13.490  18.559   3.497 -0.1009  0.3595 -0.0877
 8347W        W25194   0.883  14.796   3.492  0.1744  0.0692 -0.0342
 8348W        W25195   4.214   3.188  14.800 -0.2612 -0.2442  0.1096
 8349W        W25196   2.287  10.617  13.380 -0.4258  0.0989  0.3458
 8350W        W25197   6.282   6.140  12.046  0.3960 -0.0564  0.4321
 8351W        W25198   9.151   9.008   4.509 -0.1484  0.0576  0.0603
 8352W        W25199   6.260   0.866  12.719 -0.1476 -0.1045 -0.3731
 8353W        W25200  13.548   5.009   1.427  0.0886 -0.0721  0.3132
 8354W        W25201   0.374   9.817  12.744 -0.0421 -0.0635 -0.0161
 8355W        W25202   0.808   4.972  11.195  0.3009 -0.0288  0.3542
 8356W        W25203   8.789   3.172   4.042 -0.0303  0.2483  0.1654
 8357W        W25204   3.059   7.037  13.327 -0.0704  0.1892 -0.2236
 8358W        W25205   5.687   7.065  11.463 -0.0395 -0.0020 -0.1461
 8359W        W25206   8.909  16.977   4.609 -0.1343  0.0912 -0.3169
 8360W        W25207   7.720   6.473  12.508 -0.0224  0.2279 -0.2046
 8361W        W25208   6.308   4.042  13.945 -0.0716 -0.3432  0.1172
 8362W        W25209   4.946  13.989   2.224  0.1586 -0.2439  0.3184
 8363W        W25210   0.374   1.947   2.946 -0.5093 -0.1467 -0.0472
 8364W        W25211  10.303   3.994  12.556 -0.0041  0.0200 -0.2196
 8365W        W25212  14.299  10.396   0.207 -0.2230  0.0675 -0.1463
 8366W        W25213  12.556  17.795  15.388 -0.0030 -0.1842 -0.2511
 8367W        W25214   8.592  10.688   4.011 -0.2005  0.1770 -0.0102
 8368W        W25215   2.318  17.449  15.691 -0.0401 -0.0474  0.2195
 8369W        W25216  12.938   8.768   4.643 -0.0161  0.0976  0.0530
 8370W        W25217  10.716  11.756  11.275 -0.2608 -0.0246 -0.2138
 8371W        W25218  10.468  15.611   1.037 -0.1501 -0.2637 -0.1144
 8372W        W25219   3.429  12.287   3.075  0.0280  0.4731  0.1551
 8373W        W25220   0.426  13.869  14.906 -0.2227  0.1181 -0.0206
 8374W        W25221  16.587   7.011   5.000  0.1336  0.0785  0.1256
 8375W        W25222  17.208   0.764  13.186  0.1400 -0.0013 -0.0691
 8376W        W25223  17.325  14.995   5.507 -0.1490  0.1326  0.0234
 8377W        W25224  10.698   2.691   2.414 -0.4439 -0.0073  0.3325
 8378W        W25225   9.956  17.229  13.537 -0.2434 -0.1916 -0.0569
 8379W        W25226   3.118   9.689   1.074 -0.2339  0.3376  0.0576
 8380W        W25227   4.800   9.953  15.322  0.0871 -0.0036  0.1803
 8381W        W25228  17.465  18.669  12.593 -0.2666 -0.0450  0.0634
 8382W        W25229   5.291   1.754   2.029 -0.0500  0.2710 -0.0968
 8383W        W25230  10.877  15.840  15.477  0.1591 -0.4172  0.4164
 8384W        W25231  11.104   1.653  15.456  0.1292  0.1985 -0.0237
 8385W        W25232  13.353   0.220   1.649 -0.0885  0.0973 -0.0563
 8386W        W25233   9.147   5.224   3.032  0.1391  0.3679 -0.0300
 8387W        W25234   5.653   9.130   0.401  0.1933  0.0945 -0.0401
 8388W        W25235   8.474  18.240   3.001 -0.2076 -0.0659  0.1482
 8389W        W25236  15.329   5.677  14.214 -0.2193  0.3207  0.0667
 8390W        W25237   0.251   8.867   3.750 -0.3799 -0.3589 -0.1298
 8391W        W25238  11.164  11.004  12.879  0.3878  0.0150 -0.0980
 8392W        W25239  14.161   5.638   0.912 -0.3499 -0.0023 -0.2387
 8393W        W25240   5.821   6.616   3.485  0.0952 -0.0518  0.0517
 8394W        W25241  18.395  12.906   3.462 -0.0576 -0.3078 -0.1145
 8395W        W25242  12.433   2.601  13.500 -0.1133  0.4056  0.1835
 8396W        W25243  16.940  14.140   4.690 -0.3977  0.1159  0.2922
 8397W        W25244   4.923   8.455   1.387  0.0689  0.0237 -0.2506
 8398W        W25245   8.831   3.527   1.641 -0.2331 -0.2940  0.3435
 8399W        W25246   3.731   5.169  14.316  0.0158  0.0300 -0.1378
 8400W        W25247   7.083   6.289   2.594 -0.1621 -0.1149 -0.1773
 8401W        W25248  16.003  17.186   3.385  0.1791  0.2674  0.0199
 8402W        W25249   1.459  17.633   2.110  0.0844  0.4366  0.3181
 8403W        W25250  13.252   0.737   1.388 -0.1779  0.4425 -0.0301
 8404W        W25251  12.339  18.256  11.206  0.5122 -0.0929  0.0632
 8405W        W25252   5.136  10.619  11.134 -0.1632  0.0033 -0.0297
 8406W        W25253  16.623  11.549   4.211  0.1506  0.1928  0.2777
 8407W        W25254  14.553  16.511  14.951 -0.0522 -0.1317  0.0485
 8408W        W25255   0.135  12.544   0.893  0.1952 -0.0439 -0.1523
 8409W        W25256   3.221  14.489  14.513  0.0535  0.2246  0.0629
 8410W        W25257  12.506   6.162  14.389  0.0852  0.0444  0.2377
 8411W        W25258  11.777  16.429  14.861  0.3567 -0.3123  0.1677
 8412W        W25259  15.660  14.807  12.931 -0.2067 -0.0385  0.0288
 8413W        W25260  17.894  13.144  15.242  0.0870 -0.0589  0.2957
 8414W        W25261   4.093   3.318  13.530  0.1777 -0.1768  0.0214
 8415W        W25262   4.883   7.366   5.347  0.2932 -0.0613  0.6333
 8416W        W25263  11.063   4.220  12.944  0.1934 -0.0623  0.1184
 8417W        W25264   9.071   4.804   3.415  0.0671  0.1995  0.0940
 8418W        W25265  17.938  12.291  15.685 -0.1393  0.3272  0.3286
 8419W        W25266   3.819  16.443   1.628  0.1980 -0.1838  0.0966
 8420W        W25267  18.408  16.227  10.078  0.0340 -0.0377  0.1450
 8421W        W25268   9.378  10.040   0.967 -0.0186  0.1927 -0.0449
 8422W        W25269   3.082   5.305  14.429 -0.1508 -0.0371 -0.3775
 8423W        W25270  14.940   5.114  13.623 -0.0061  0.2449  0.0552
 8424W        W25271  18.732  12.445   4.186 -0.3690 -0.0914  0.3816
 8425W        W25272   7.745   4.676   3.604 -0.1308 -0.0195  0.0624
 8426W        W25273  16.945   2.353   0.614 -0.1660  0.2818  0.0109
 8427W        W25274  16.787  10.133   0.836 -0.2952  0.2125 -0.2675
 8428W        W25275  11.195  17.753  15.143  0.0249  0.2683  0.0062
 8429W        W25276   9.877  16.510   3.747 -0.2060  0.2919  0.0286
 8430W        W25277   8.470  10.159  11.564 -0.0608 -0.1969 -0.1314
 8431W        W25278  18.602  16.488  15.165  0.0900  0.1708 -0.0974
 8432W        W25279   9.997   5.711   0.319 -0.4566 -0.0822  0.2558
 8433W        W25280  12.983   1.260   1.499 -0.1750  0.2631  0.0280
 8434W        W25281   3.867   0.962   0.763 -0.0281  0.1093  0.0869
 8435W        W25282   1.382   8.816   4.172  0.2496  0.3998  0.2510
 8436W        W25283  11.069   3.181  11.193  0.1462 -0.1845  0.1168
 8437W        W25284  17.432   8.850  11.907 -0.0222 -0.2305  0.1749
 8438W        W25285   3.030  12.183  12.952  0.1637  0.1106 -0.0289
 8439W        W25286   3.488  11.959   0.567  0.2060  0.0120  0.1997
 8440W        W25287   8.786  17.154  10.559  0.2664  0.3665 -0.0952
 8441W        W25288  18.761  16.074   1.787 -0.3013 -0.0947 -0.2175
 8442W        W25289   7.440  10.407   3.254  0.1375  0.3430  0.1389
 8443W        W25290  11.245   2.268   3.581 -0.0234  0.1874 -0.1205
 8444W        W25291  16.564  17.177  14.109  0.0492 -0.0819 -0.2177
 8445W        W25292  14.638  10.105   0.548  0.1288 -0.2707  0.3784
 8446W        W25293  14.924   6.276   2.139 -0.2545  0.0969 -0.0464
 8447W        W25294  12.815  14.788   1.755  0.0137 -0.2155 -0.0764
 8448W        W25295   6.431  12.257  15.458  0.0967  0.1417  0.2377
 8449W        W25296   8.102  16.032  12.051  0.2482 -0.0721  0.2027
 8450W        W25297   8.490   9.775   1.797  0.3808  0.4263 -0.2102
 8451W        W25298   4.260  12.275  13.910 -0.2081 -0.0493  0.3637
 8452W        W25299  18.405   8.740   5.374  0.0034 -0.0602 -0.2805
 8453W        W25300   9.427  14.559  11.926 -0.0592  0.1003 -0.1813
 8454W        W25301   3.489   2.299  15.346  0.1611  0.0568 -0.2064
 8455W        W25302  10.586   7.479   4.975 -0.1089 -0.0975 -0.0654
 8456W        W25303  13.322   9.600  11.698  0.1080 -0.1530 -0.1325
 8457W        W25304   7.150   1.280  15.726  0.0257 -0.0165  0.0124
 8458W        W25305  15.525  13.621  12.282 -0.1711  0.0933 -0.1421
 8459W        W25306   8.026  18.074  12.595 -0.1696 -0.0808 -0.0597
 8460W        W25307  18.481  12.159  11.432  0.2793 -0.1836 -0.0832
 8461W        W25308  11.148   3.827   0.669  0.0379  0.3313 -0.2534
 8462W        W25309  14.927   5.700   0.740  0.0440 -0.0625 -0.0270
 8463W        W25310   0.395   9.577   2.961  0.1404 -0.3510 -0.2179
 8464W        W25311  15.952   4.702   4.775 -0.3665  0.1678  0.0035
 8465W        W25312  10.921   2.326   0.957 -0.0784  0.0845 -0.2329
 8466W        W25313  10.451   7.676  14.194 -0.1176  0.1110  0.0679
 8467W        W25314   9.598  13.741  13.504 -0.3400 -0.3452  0.0473
 8468W        W25315   7.495   1.246   4.973  0.3625  0.2220  0.0464
 8469W        W25316  16.482  16.168   5.219 -0.1218  0.0338  0.5035
 8470W        W25317   6.552  17.408   5.113  0.3211  0.1288 -0.4637
 8471W        W25318   2.768  10.357  13.961 -0.1785  0.0320 -0.0357
 8472W        W25319  16.927   3.961   4.499  0.0471  0.0237  0.1964
 8473W        W25320   2.802  12.029  10.547 -0.1727  0.2781 -0.3057
 8474W        W25321   0.199  14.441  10.516 -0.0722 -0.0019 -0.1085
 8475W        W25322   7.031   1.679   3.677  0.2215  0.0500 -0.0526
 8476W        W25323  11.817  14.798  15.684 -0.1848 -0.0468  0.0990
 8477W        W25324   5.378   4.351  13.104 -0.1812 -0.0269 -0.1882
 8478W        W25325   2.331  12.537  12.515 -0.1525 -0.0504 -0.0396
 8479W        W25326   6.322  18.737  13.820 -0.0779 -0.0517  0.2644
 8480W        W25327  18.799  13.307  13.758  0.1419 -0.0880 -0.1706
 8481W        W25328  17.799   2.049  15.652  0.1706  0.2742 -0.3242
 8482W        W25329   5.929   9.728  12.036 -0.1344 -0.0382 -0.3052
 8483W        W25330  15.444  13.118   2.929 -0.1153 -0.2303 -0.2331
 8484W        W25331   6.960  13.020   3.293  0.1770  0.2611 -0.0764
 8485W        W25332  12.771  18.565  11.160  0.3838 -0.2720  0.0872
 8486W        W25333  14.957   3.824   4.814  0.3617 -0.1766  0.2525
 8487W        W25334   9.000  16.431   1.522  0.1523  0.0788  0.0793
 8488W        W25335  10.318  18.449  13.896 -0.1133 -0.0609 -0.1749
 8489W        W25336   1.055   9.590   0.127  0.2678 -0.1804  0.1175
 8490W        W25337  10.482   0.730   4.487 -0.1068  0.1054 -0.1696
 8491W        W25338  12.341  16.765   3.740  0.1423 -0.0045  0.0393
 8492W        W25339  16.897   1.072  15.148  0.1432 -0.1249 -0.0480
 8493W        W25340   1.257   1.353   4.109  0.0531 -0.0794  0.1225
 8494W        W25341  13.374   5.462   1.625  0.1338  0.0558 -0.2352
 8495W        W25342   9.175   4.112   5.473  0.1100 -0.1373 -0.1204
 8496W        W25343  13.764   9.754  15.323 -0.0874  0.0342  0.0243
 8497W        W25344   4.611   1.812  13.476 -0.0450  0.0047 -0.1837
 8498W        W25345  10.451  10.912  11.425  0.1795 -0.0043  0.2174
 8499W        W25346   3.532  12.402  14.567  0.1359 -0.1737 -0.0028
 8500W        W25347   6.986  11.056   3.461 -0.2158 -0.0167 -0.2003
 8501W        W25348  11.221   8.033   5.817  0.2575  0.0754  0.1735
 8502W        W25349  16.139  12.185  13.993  0.2280  0.0436 -0.0855
 8503W        W25350  10.468   9.118   2.262  0.1028  0.1491  0.0510
 8504W        W25351   9.360  10.884   3.163  0.1760  0.0130  0.0135
 8505W        W25352  12.151  11.141  12.176  0.1966 -0.0670  0.0968
 8506W        W25353   5.631   2.499  12.091  0.2562  0.3197 -0.4491
 8507W        W25354   2.659  15.370  10.672 -0.0003 -0.1665 -0.1142
 8508W        W25355   6.139   9.258   1.166  0.2775 -0.3033 -0.0567
 8509W        W25356  11.997   7.425   1.822  0.0940 -0.1549  0.2562
 8510W        W25357  16.852  13.924   1.167  0.0323  0.0757 -0.2193
 8511W        W25358   2.082  16.073   2.914 -0.1392 -0.1020  0.3931
 8512W        W25359   1.882  12.733   0.786  0.1655  0.0969 -0.4145
 8513W        W25360  16.818   1.538   0.270 -0.0342 -0.1254 -0.1808
 8514W        W25361  10.930  17.206   3.849 -0.1335 -0.1141 -0.1105
 8515W        W25362  13.483   7.009   3.687  0.1655 -0.1419  0.0287
 8516W        W25363  16.856  10.973  14.738  0.1879 -0.0028 -0.2709
 8517W        W25364  15.508   9.314   4.119  0.1048  0.1762  0.3140
 8518W        W25365   2.410   3.389   2.912 -0.0348 -0.0702 -0.1817
 8519W        W25366   1.120  10.470  13.691 -0.2745  0.0740  0.0030
 8520W        W25367   7.667  11.617  11.125 -0.0859 -0.0488  0.2574
 8521W        W25368   0.175   6.560  14.129 -0.0372  0.0446 -0.0812
 8522W        W25369  10.217  17.536   4.504  0.3668  0.2667  0.2625
 8523W        W25370   3.749   5.710   3.905  0.2474  0.2489  0.0775
 8524W        W25371  17.962  17.512  10.877  0.0479 -0.0075 -0.0083
 8525W        W25372  16.949  12.612  14.060 -0.2616  0.1528 -0.0873
 8526W        W25373   3.566   3.054   5.239 -0.0024 -0.3049  0.0491
 8527W        W25374   9.871  10.279   4.642  0.1248  0.1087  0.0087
 8528W        W25375   7.317  17.723   1.790  0.0859  0.1268  0.0791
 8529W        W25376   0.255   4.536   4.346  0.0599  0.3022 -0.0754
 8530W        W25377  17.857  10.765   1.768 -0.1723  0.0713  0.1901
 8531W        W25378   8.948   3.711  11.539  0.1943  0.4517  0.0603
 8532W        W25379  17.358   3.174   3.323 -0.4039 -0.0617  0.2196
 8533W        W25380   2.865  17.664  13.451 -0.1848 -0.2636  0.0141
 8534W        W25381   3.618  15.827  13.518  0.2873 -0.1956 -0.1489
 8535W        W25382  13.451   9.914   1.977 -0.1245 -0.1272 -0.0027
 8536W        W25383  11.251   2.910  12.794 -0.2414  0.0302 -0.0214
 8537W        W25384   3.626  18.072  10.729  0.0454  0.2213  0.0205
 8538W        W25385  17.443   2.332  14.795  0.0067  0.0675 -0.2353
 8539W        W25386   3.594   0.418   2.401  0.0928 -0.0208 -0.0955
 8540W        W25387  18.325   8.554   3.957 -0.0135  0.1828 -0.0577
 8541W        W25388  17.450   3.797   2.239 -0.0045  0.5796  0.2101
 8542W        W25389   8.823  12.198  10.738 -0.1942  0.0860  0.1074
 8543W        W25390   5.517  13.673   1.648  0.3088  0.2407 -0.0027
 8544W        W25391   6.194   2.800   0.391 -0.1094  0.0945 -0.1822
 8545W        W25392  17.091   4.455  11.656  0.0589  0.0762  0.3392
 8546W        W25393   8.089  10.622   1.152 -0.2040  0.1102  0.2787
 8547W        W25394  12.486   4.740   4.485 -0.2187  0.1221 -0.0141
 8548W        W25395  16.673   8.475   2.768 -0.4005 -0.0500 -0.2219
 8549W        W25396  12.439   0.918  14.051  0.2142 -0.0775 -0.1283
 8550W        W25397  11.936   3.282  13.869 -0.2867  0.2888  0.1465
 8551W        W25398  17.657  13.164  11.719 -0.1075  0.3871 -0.2569
 8552W        W25399   5.017  10.312   1.763  0.1585  0.2009 -0.0268
 8553W        W25400   6.030   7.603   0.815 -0.1580  0.1243 -0.4380
 8554W        W25401  12.265  17.223  11.144 -0.1093  0.1601  0.0218
 8555W        W25402   1.738   8.387  13.045 -0.1264  0.1430  0.0087
 8556W        W25403  14.625   0.852  15.740 -0.2302 -0.3124  0.1539
 8557W        W25404   3.553  16.770  15.250 -0.0787 -0.0286  0.0271
 8558W        W25405   1.781  17.158   0.086  0.0025 -0.0425 -0.0491
 8559W        W25406  11.025  18.008  12.836  0.2548 -0.1120  0.1794
 8560W        W25407   7.893   4.492  15.442  0.0276 -0.2814  0.0701
 8561W        W25408  18.343   2.882  11.769  0.0316 -0.1373  0.1377
 8562W        W25409   9.380  13.306  12.765  0.0233 -0.3121 -0.0739
 8563W        W25410   9.142  15.737   0.752  0.4480  0.3417  0.0552
 8564W        W25411   9.508   5.400  15.256  0.3701  0.1730 -0.4718
 8565W        W25412   4.395  17.869  12.706  0.1917  0.0336 -0.2356
 8566W        W25413   7.419   4.421  15.336  0.1103  0.4409  0.1964
 8567W        W25414   4.670  10.199   1.392 -0.0553 -0.0383  0.0076
 8568W        W25415   8.441  18.157  11.375  0.0284 -0.3263 -0.0619
 8569W        W25416  18.112  14.389   1.218 -0.0916  0.1187 -0.1340
 8570W        W25417   9.644   8.285   0.688  0.0372 -0.0789  0.0830
 8571W        W25418   7.274  17.638  14.355 -0.0479  0.3359  0.1860
 8572W        W25419  11.872  13.297   1.860  0.1337  0.1469 -0.0452
 8573W        W25420   5.419   7.663  14.032 -0.2980 -0.1730  0.0957
 8574W        W25421  12.045   3.330   2.864  0.0261 -0.2465  0.3483
 8575W        W25422   5.804   4.862  12.470  0.1975  0.3275 -0.0022
 8576W        W25423  13.763   5.607  15.746 -0.1924  0.1375 -0.6410
 8577W        W25424  18.251  12.578   5.068 -0.0515 -0.1693  0.0336
 8578W        W25425  11.520  18.183  12.862  0.0467  0.3959 -0.1964
 8579W        W25426   3.494   1.317   1.003  0.1672 -0.1028 -0.3391
 8580W        W25427   2.012   1.434   1.735  0.0103 -0.1271 -0.3618
 8581W        W25428   8.283  18.505  14.306 -0.0806  0.0222  0.0049
 8582W        W25429   9.613  14.208  15.003 -0.2801 -0.2086  0.0675
 8583W        W25430   6.551   8.130   1.923  0.0234  0.1931  0.0174
 8584W        W25431   0.201  17.816  11.645  0.1315  0.3295 -0.1640
 8585W        W25432  11.589   1.545   1.267 -0.0532 -0.0058  0.1729
 8586W        W25433   3.541   5.534  11.625  0.0236 -0.0564  0.0425
 8587W        W25434   7.423   8.997   0.578  0.2243  0.1448  0.0472
 8588W        W25435  18.451  12.077   0.010  0.2938 -0.0785  0.3029
 8589W        W25436   9.528  13.363   0.498  0.1366 -0.3118 -0.2627
 8590W        W25437   5.876   9.545   3.783 -0.0877  0.1218  0.0650
 8591W        W25438   8.707   9.868  11.883  0.2224 -0.0500 -0.1747
 8592W        W25439   7.526  13.818   4.378  0.1373 -0.1662  0.2723
 8593W        W25440   0.111   3.628  15.247 -0.2824 -0.1365  0.4827
 8594W        W25441   0.923  18.570   1.216  0.1719 -0.3439 -0.2731
 8595W        W25442   0.471   8.293   2.248  0.0600  0.3017  0.1303
 8596W        W25443  15.834  12.478  14.231  0.0575 -0.3546 -0.1999
 8597W        W25444  12.742   1.056  10.879 -0.0843  0.2582  0.2173
 8598W        W25445   0.116  14.000   4.224  0.0191 -0.3028 -0.0848
 8599W        W25446   6.881  17.198   3.042  0.0510 -0.0772 -0.2345
 8600W        W25447  15.695  15.119  11.604 -0.1560 -0.1330  0.1998
 8601W        W25448   2.506  15.511  14.445 -0.2968 -0.0494  0.1343
 8602W        W25449   8.891   0.052   1.252 -0.0896 -0.2956  0.0628
 8603W        W25450   7.325  13.919   1.110 -0.0033 -0.1464  0.0850
 8604W        W25451   3.353   8.724  10.111  0.1957  0.0253  0.3203
 8605W        W25452   6.992   8.993  15.079  0.0363  0.2322  0.1345
 8606W        W25453  10.272  15.990  15.216 -0.3674 -0.0455  0.1547
 8607W        W25454   8.020   7.176   3.614  0.0689  0.1869 -0.1804
 8608W        W25455   8.158  12.712  14.976 -0.0064  0.2727 -0.1267
 8609W        W25456   6.532  11.980  11.346  0.1872  0.1703  0.2399
 8610W        W25457  14.679   9.772   2.864 -0.0009 -0.1283  0.1920
 8611W        W25458  18.438  10.866  11.386  0.1106  0.1283 -0.2274
 8612W        W25459   2.867  14.138   1.126  0.0440  0.0929  0.2383
 8613W        W25460   6.060  10.514   4.045 -0.0190  0.3044  0.0827
 8614W        W25461  17.835   6.112   5.284 -0.0097 -0.0523  0.2132
 8615W        W25462   9.452   4.480  13.499  0.1610 -0.3136 -0.0478
 8616W        W25463   2.333   1.613   4.034  0.2658 -0.1696 -0.2412
 8617W        W25464  12.013  12.202  11.591  0.1762  0.1628  0.1079
 8618W        W25465  14.699  15.419  13.907  0.5255 -0.0793 -0.0056
 8619W        W25466   2.230  14.029   0.254  0.0040  0.2895  0.1455
 8620W        W25467  15.329  10.725  11.282  0.1431 -0.0561  0.0243
 8621W        W25468   1.979   2.589   3.268  0.3504 -0.1451 -0.1666
 8622W        W25469   5.422   0.395   2.075 -0.0648  0.1238  0.0047
 8623W        W25470  12.664   9.985  14.835  0.0415  0.1851 -0.2895
 8624W        W25471  18.270  12.304  12.555 -0.0582 -0.2702 -0.0740
 8625W        W25472   9.482  11.145   1.674 -0.1409  0.0525  0.4644
 8626W        W25473   7.359  14.437   1.020  0.0987  0.0349 -0.0787
 8627W        W25474   9.858   5.893   4.048 -0.2435  0.1051 -0.1749
 8628W        W25475   5.462   7.088  12.580 -0.0005  0.0274  0.3516
 8629W        W25476   4.999   0.105  12.880 -0.0072 -0.1225  0.3846
 8630W        W25477  18.346   8.160   4.362  0.2403  0.0704  0.0026
 8631W        W25478  13.261  16.049  11.266  0.0320  0.0740  0.3279
 8632W        W25479   0.729  16.439   1.421 -0.1613  0.2305 -0.0635
 8633W        W25480  17.053   3.089  15.210 -0.2374  0.3259  0.2747
 8634W        W25481   9.118   3.250  14.667 -0.0177 -0.1973 -0.1334
 8635W        W25482   1.799  12.031   1.991 -0.2118 -0.0028  0.0179
 8636W        W25483   9.712   8.005   4.662  0.0648  0.1250 -0.0204
 8637W        W25484   9.034  14.858  12.256 -0.2241  0.2817  0.1763
 8638W        W25485   8.327   5.552   1.834  0.3191 -0.1093 -0.1148
 8639W        W25486  17.622   0.574   3.718  0.0552 -0.0078 -0.0523
 8640W        W25487   8.935  16.001   2.180  0.3383 -0.0399  0.0894
 8641W        W25488  14.579   3.634  14.954  0.3639  0.2320  0.1932
 8642W        W25489   3.746  16.152   0.508 -0.1997  0.1329  0.0390
 8643W        W25490   9.596   6.907   1.515 -0.0381  0.0740  0.1442
 8644W        W25491  13.542   0.373   1.218  0.2893  0.1452  0.3502
 8645W        W25492  13.448   9.563  14.012  0.1286  0.3419  0.1138
 8646W        W25493   6.700   2.434   1.944 -0.0148 -0.0372  0.0352
 8647W        W25494  17.005   5.669   0.862  0.0234 -0.0221 -0.1677
 8648W        W25495  15.400   8.560  13.153 -0.3244  0.1560  0.0613
 8649W        W25496  11.042   6.030  15.026 -0.1487 -0.2936 -0.0394
 8650W        W25497   2.731   3.083   2.718 -0.1104 -0.1697  0.0700
 8651W        W25498   6.899  11.713   2.145 -0.1284  0.0447 -0.2302
 8652W        W25499   6.087   0.256   1.282  0.1872 -0.0998  0.0922
 8653W        W25500   0.500  15.136   0.343  0.0695  0.1692 -0.0213
 8654W        W25501   2.919  16.706  11.135 -0.0876 -0.0239 -0.1891
 8655W        W25502   8.329  14.440  12.919 -0.3417 -0.1739  0.0208
 8656W        W25503   1.899  15.428  13.131  0.0404  0.0122 -0.1094
 8657W        W25504  12.820  12.691  12.242  0.1309 -0.1454 -0.1441
 8658W        W25505   4.495  10.542   1.014  0.0994 -0.0501  0.0043
 8659W        W25506  10.442   2.327  12.242  0.1513  0.2637  0.2272
 8660W        W25507  10.039   9.033  14.320  0.1710  0.1986 -0.2868
 8661W        W25508   5.044   7.909   2.294  0.1340 -0.0986  0.0050
 8662W        W25509  14.747   3.081   5.568  0.0334 -0.1615 -0.1340
 8663W        W25510  14.273   4.615  13.255 -0.2066 -0.0665  0.4700
 8664W        W25511   3.386  12.100  13.745  0.0338 -0.0668  0.0370
 8665W        W25512   1.190  15.122  13.609  0.1449 -0.2860  0.1526
 8666W        W25513   9.954   3.918   4.131 -0.1346 -0.0420 -0.0129
 8667W        W25514  17.155  18.365   0.187  0.1602  0.2280  0.0720
 8668W        W25515  13.311   2.191   0.472 -0.2495 -0.2086  0.1436
 8669W        W25516  11.506  14.759   4.731 -0.0483 -0.0150  0.1302
 8670W        W25517   4.699  18.598  12.806 -0.0317 -0.1790  0.1948
 8671W        W25518  10.473  17.677   1.102  0.1091  0.1325 -0.2116
 8672W        W25519  14.260  13.619   1.799  0.0631 -0.0517 -0.0328
 8673W        W25520  13.698  15.482  13.055  0.3569 -0.0585 -0.0348
 8674W        W25521   2.303   8.114  11.321 -0.3500 -0.1154  0.4025
 8675W        W25522   2.341   6.378  11.980  0.3034 -0.1713  0.1386
 8676W        W25523   7.391   0.936   3.197  0.2172 -0.1760 -0.2328
 8677W        W25524  12.577  11.281  12.436 -0.0851  0.0153  0.1083
 8678W        W25525   9.547  15.812  12.225 -0.2148  0.1709 -0.4216
 8679W        W25526  10.235  16.554  11.367  0.1156 -0.1242 -0.3046
 8680W        W25527   3.101   4.139   1.428 -0.1685 -0.0576  0.3891
 8681W        W25528   3.399   3.623  12.430 -0.2843  0.2890 -0.1436
 8682W        W25529  16.498  15.612   0.670  0.2659  0.0980  0.0655
 8683W        W25530   0.928   8.531  11.202  0.1686 -0.3083  0.0595
 8684W        W25531  17.653  11.205   3.414 -0.3546 -0.2046  0.0276
 8685W        W25532  15.169   0.188   0.735 -0.1664  0.1447  0.1951
 8686W        W25533  15.766   6.644   5.322  0.0882  0.0826  0.0989
 8687W        W25534   4.802  15.114   4.900  0.1060 -0.1353 -0.2832
 8688W        W25535  13.136  10.702  11.966 -0.3781 -0.1148 -0.2282
 8689W        W25536  10.899   4.936  11.831  0.0532 -0.2896 -0.1377
 8690W        W25537   5.743   0.413   1.614  0.2558 -0.1254  0.0246
 8691W        W25538   4.040  16.416   3.366 -0.3979 -0.2175 -0.3176
 8692W        W25539   1.122   5.711  14.804 -0.0891  0.0374  0.1586
 8693W        W25540  16.481   4.078   4.857 -0.3320  0.2192 -0.0956
 8694W        W25541   7.229   4.392   4.754 -0.0943  0.1717 -0.2074
 8695W        W25542  12.217  13.793   5.088  0.3870  0.3540  0.0431
 8696W        W25543   4.438   2.894   2.887  0.0636 -0.0224 -0.3509
 8697W        W25544  16.573  12.280  11.799  0.0630 -0.3405  0.0240
 8698W        W25545  12.986  11.105  14.655 -0.3757 -0.2272  0.0915
 8699W        W25546   7.333  12.951   4.515  0.1233 -0.2597  0.2356
 8700W        W25547  11.594  18.575   3.991 -0.2231  0.0710  0.0553
 8701W        W25548  15.429   7.524   0.584  0.0381 -0.0795 -0.3273
 8702W        W25549   6.170   7.755  15.643 -0.1303 -0.0555  0.2345
 8703W        W25550   1.219   8.637  12.801  0.1747  0.0275 -0.3316
 8704W        W25551   3.585   3.364  13.520  0.0022 -0.3731 -0.1515
 8705W        W25552   3.971  11.191   1.768  0.0418 -0.1014  0.0892
 8706W        W25553  10.137  17.730  14.718  0.3868  0.0359  0.3285
 8707W        W25554   1.024  10.925  14.575  0.1491  0.2754 -0.3315
 8708W        W25555   2.170   5.811  10.993  0.1926  0.0215 -0.1011
 8709W        W25556   2.838  14.602  11.700 -0.2265  0.1887  0.0012
 8710W        W25557   8.469   1.976  11.734 -0.0015 -0.2227  0.1174
 8711W        W25558   7.861   2.097   4.108  0.1933 -0.0955  0.1965
 8712W        W25559   0.818  15.806  13.464  0.0651  0.4767  0.0022
 8713W        W25560  14.113   1.686  13.311  0.0619 -0.0499  0.0474
 8714W        W25561   4.338   5.762   2.620 -0.0914 -0.0512 -0.0769
 8715W        W25562  15.423  15.334   2.967  0.0298 -0.0613  0.0759
 8716W        W25563   2.571   2.805   1.098  0.2423  0.3339 -0.2478
 8717W        W25564  14.493   7.937  14.005 -0.1961 -0.0668 -0.1859
 8718W        W25565   2.676  11.639   1.381  0.3420 -0.0435  0.0522
 8719W        W25566  17.862   7.780   1.578 -0.0720 -0.0983 -0.0335
 8720W        W25567  14.679  14.802   3.009  0.1188 -0.0393  0.3170
 8721W        W25568   6.945  16.337  14.013 -0.0175  0.2564 -0.0712
 8722W        W25569   1.195  18.297  15.230  0.2902  0.2025  0.2062
 8723W        W25570   7.597  14.745  14.218 -0.4743 -0.1122 -0.1901
 8724W        W25571   4.754  12.310   4.876 -0.1934  0.2062 -0.0159
 8725W        W25572   1.042   8.884  12.421  0.1456 -0.1592 -0.0777
 8726W        W25573  11.307   1.911  15.112 -0.0849 -0.2410  0.0425
 8727W        W25574   9.757   6.504   3.393 -0.1437 -0.1892 -0.0877
 8728W        W25575  15.843  17.161   2.297 -0.0644  0.0871  0.0978
 8729W        W25576   2.645  15.372   3.381  0.1086  0.1544  0.0224
 8730W        W25577   0.170  14.636  12.208 -0.3404  0.1417  0.0067
 8731W        W25578   3.359   5.687   1.616  0.0783  0.2794 -0.3704
 8732W        W25579   9.738  11.327  12.620  0.1124 -0.2430 -0.0317
 8733W        W25580   8.253   7.310   1.942  0.0955  0.5706 -0.0069
 8734W        W25581  17.356   6.178  11.325  0.0421 -0.1098 -0.3403
 8735W        W25582  17.092  10.544   2.078  0.5600  0.2124 -0.0597
 8736W        W25583  14.800  13.205   5.110 -0.2865  0.1437  0.1392
 8737W        W25584  18.687   9.166   0.402  0.1311 -0.0575  0.4145
 8738W        W25585  13.590   7.168   4.378 -0.0743  0.1056 -0.1210
 8739W        W25586   4.772   5.715   6.102 -0.0966 -0.0266  0.3033
 8740W        W25587  13.886   4.922  15.128 -0.0532 -0.2525 -0.1226
 8741W        W25588   5.875  17.804   2.935 -0.3229 -0.1491  0.0878
 8742W        W25589   7.499   2.763  14.836  0.3284 -0.0717 -0.0411
 8743W        W25590   9.763   3.285  11.965 -0.1428 -0.1156  0.0980
 8744W        W25591   9.540   9.868  14.156 -0.0682 -0.2445 -0.2153
 8745W        W25592   8.458  12.952  13.456  0.1426  0.1088 -0.1255
 8746W        W25593  12.753  12.119  14.573 -0.0665 -0.2634 -0.3594
 8747W        W25594   5.908  14.667  10.707 -0.1701  0.0584 -0.3212
 8748W        W25595   3.707   6.334   3.050  0.1119 -0.0706 -0.1259
 8749W        W25596  15.379   6.933   5.533 -0.0939 -0.2790 -0.2947
 8750W        W25597   9.551   0.013   2.730  0.2620  0.3716  0.0358
 8751W        W25598   1.341   5.572  11.626  0.1168  0.2486  0.2696
 8752W        W25599  13.726  15.892  13.337  0.1339  0.2450  0.1158
 8753W        W25600  15.771   0.767  14.187  0.1769 -0.4534 -0.0352
 8754W        W25601   1.761  18.495   4.547 -0.2067  0.2481  0.3117
 8755W        W25602   6.091  13.587  11.178  0.3513 -0.2035  0.0613
 8756W        W25603  11.231   6.214   2.982  0.3709  0.3477  0.1220
 8757W        W25604   9.688   2.319   1.622 -0.2020  0.3567  0.2998
 8758W        W25605   8.219   9.454  14.028 -0.1967  0.0734  0.1789
 8759W        W25606   0.408   1.487   0.554  0.0371 -0.1828  0.1523
 8760W        W25607   1.803   9.076   0.385 -0.0464 -0.1209 -0.0124
 8761W        W25608   1.103   6.628   1.761  0.1461  0.1388  0.0877
 8762W        W25609   4.717   4.245   0.316  0.0431 -0.2621 -0.0097
 8763W        W25610   1.541   8.670   0.783 -0.3100  0.0396 -0.1194
 8764W        W25611  16.648  11.638   2.003  0.0206 -0.0596 -0.1164
 8765W        W25612   6.591   8.975   4.119  0.1081  0.0024 -0.1632
 8766W        W25613  17.670  17.778   0.074 -0.1867  0.0795 -0.0696
 8767W        W25614   9.125   2.338  14.708 -0.1428  0.0232  0.1074
 8768W        W25615  18.767   4.426  11.920 -0.2752  0.0904 -0.2626
 8769W        W25616   3.100  11.385   2.376 -0.1363 -0.1885 -0.2266
 8770W        W25617   7.410   5.229   0.424  0.0558  0.1643 -0.2342
 8771W        W25618  12.628   8.422   2.396 -0.0888  0.2733 -0.0624
 8772W        W25619  13.960  18.749   5.758  0.1158  0.1103  0.1889
 8773W        W25620   3.624  16.854   1.275 -0.0003 -0.2330 -0.1315
 8774W        W25621  12.841  14.028   3.966  0.6047 -0.1541 -0.0129
 8775W        W25622   1.525  13.157   1.369  0.1168 -0.2746 -0.0830
 8776W        W25623   2.969  16.980   3.684  0.3806  0.2438  0.1228
 8777W        W25624   4.255   1.723  11.127  0.0962 -0.2668  0.2603
 8778W        W25625  16.446  15.802  13.272 -0.1211 -0.1345  0.3624
 8779W        W25626   0.716   5.869   1.341 -0.0807 -0.4859 -0.0125
 8780W        W25627  13.324  16.533   1.231 -0.1254 -0.0207 -0.0192
 8781W        W25628   8.945  10.839  10.665  0.0968 -0.0826  0.0447
 8782W        W25629   1.086  11.522   1.680  0.1573  0.0114  0.1937
 8783W        W25630   8.064  16.296   1.190 -0.2724 -0.0686  0.1319
 8784W        W25631  15.537   7.834   4.337 -0.0817 -0.1601 -0.0511
 8785W        W25632   9.907  13.984   1.437  0.2129  0.1985  0.1234
 8786W        W25633  12.091   7.865  12.197  0.2168  0.0299  0.2303
 8787W        W25634   2.791  12.626  11.226  0.0058  0.0476 -0.3583
 8788W        W25635  18.558  16.684  13.182 -0.0930 -0.0414  0.1923
 8789W        W25636  10.165  13.789   1.016  0.2377 -0.1972 -0.2055
 8790W        W25637  12.794  18.193  15.227 -0.0476  0.0553  0.0567
 8791W        W25638   1.378   3.205  12.104 -0.1356  0.0649  0.0891
 8792W        W25639  13.998  16.184  11.229  0.2522  0.0369 -0.1592
 8793W        W25640   6.961   7.687   4.155  0.3138 -0.3335 -0.0984
 8794W        W25641   9.617   4.218   5.369  0.1075  0.2081  0.2083
 8795W        W25642   0.447   8.237   4.118 -0.0886 -0.1208  0.1390
 8796W        W25643  15.369  10.178  10.494  0.0617  0.1781  0.2220
 8797W        W25644   5.014  16.342  12.540 -0.3052  0.3665 -0.0325
 8798W        W25645   0.797   4.565   1.753  0.0655 -0.0289 -0.0523
 8799W        W25646   8.622  11.453   2.889 -0.1272  0.0729  0.1861
 8800W        W25647   8.428   9.947  12.917  0.1520 -0.2399 -0.1905
 8801W        W25648  15.563   7.365   3.174  0.0824 -0.0733  0.1589
 8802W        W25649   2.450   6.491   3.842  0.0348  0.3804  0.0971
 8803W        W25650  16.707   8.588   1.780  0.3643  0.2452  0.3834
 8804W        W25651  16.167   4.288   4.545 -0.3479  0.1393  0.1325
 8805W        W25652  15.257  13.072   0.447  0.0356 -0.0205 -0.4079
 8806W        W25653  10.115   3.637   0.467  0.3897  0.0398 -0.1510
 8807W        W25654  16.842   5.688   3.883 -0.1356 -0.0185 -0.0958
 8808W        W25655   2.024   4.643   4.084 -0.0011 -0.0135  0.1077
 8809W        W25656   7.992   3.298   0.498  0.0835  0.0155  0.1378
 8810W        W25657  12.307   3.963  12.158 -0.0369 -0.2466  0.1541
 8811W        W25658  15.899   0.114   4.156 -0.0528  0.1764  0.3440
 8812W        W25659   0.889  15.382  13.201  0.3495  0.1674 -0.1602
 8813W        W25660   7.111  13.528  14.648  0.2012 -0.2759 -0.1642
 8814W        W25661  15.422  16.845   2.810 -0.0508 -0.0678  0.0056
 8815W        W25662   8.965  17.302  10.988 -0.0373 -0.0574 -0.1039
 8816W        W25663  18.722  18.064  13.721  0.2333 -0.0681  0.1858
 8817W        W25664  13.060  14.292  12.653  0.1906  0.0829 -0.0796
 8818W        W25665  13.666   4.290   1.626  0.0650  0.1934 -0.1856
 8819W        W25666  11.767   3.417   4.873 -0.1418  0.0342  0.1399
 8820W        W25667  18.227   9.210   5.425 -0.0100  0.0338  0.3211
 8821W        W25668  12.731  10.239   2.230  0.0742 -0.1568  0.0947
 8822W        W25669  13.061   8.655   0.577  0.2001  0.2644 -0.0124
 8823W        W25670   5.057  16.837   2.942 -0.1922 -0.3411  0.0310
 8824W        W25671   4.517   9.773   4.538  0.1479  0.1633 -0.0084
 8825W        W25672   3.131  12.346   0.941 -0.1196  0.0997 -0.1743
 8826W        W25673  11.500   7.742   3.381  0.2188 -0.5436 -0.0314
 8827W        W25674   7.042   6.522   4.467 -0.0575  0.1887 -0.1149
 8828W        W25675   2.963   8.739   3.816  0.2186  0.2260 -0.0752
 8829W        W25676  14.584  10.295  14.930  0.4388 -0.0495 -0.3901
 8830W        W25677   9.307  11.197   0.410  0.2830 -0.2923  0.4546
 8831W        W25678   4.765   6.719  13.141  0.4163 -0.1910  0.0602
 8832W        W25679   7.259   3.381   1.166 -0.1250 -0.1652 -0.1275
 8833W        W25680   4.625   8.712  14.078  0.1279 -0.1252  0.0232
 8834W        W25681  15.389   4.468   5.013 -0.3311 -0.1650  0.4744
 8835W        W25682  15.761  11.037   3.301  0.0101  0.2631 -0.1347
 8836W        W25683   8.091   0.203  12.266 -0.2559 -0.0630  0.1630
 8837W        W25684  14.394   9.370   5.575  0.1006 -0.0724  0.1758
 8838W        W25685   3.183  12.452  13.952 -0.0068  0.1513  0.0098
 8839W        W25686  10.152  17.040  12.958  0.2191 -0.0745 -0.0863
 8840W        W25687  14.637  15.598   3.831  0.1716  0.0147 -0.3354
 8841W        W25688  10.277  17.786  10.777  0.2621  0.0591 -0.0631
 8842W        W25689  12.143  13.444  14.065  0.0296 -0.3081 -0.0900
 8843W        W25690  13.804  15.809   4.597 -0.2044  0.1135 -0.2558
 8844W        W25691  13.188   1.768   0.201  0.3679 -0.1000  0.2693
 8845W        W25692   4.727   1.479  14.869 -0.4121  0.1081  0.1997
 8846W        W25693  10.022  14.003  13.524 -0.1989  0.0683  0.0305
 8847W        W25694   2.326  12.854  15.332  0.0813 -0.1553 -0.0892
 8848W        W25695  17.640   7.270  15.754 -0.1922  0.1787 -0.2714
 8849W        W25696  10.712   2.838   4.918  0.1744 -0.0215  0.4697
 8850W        W25697   7.527   0.562   1.036  0.1960  0.3776  0.2463
 8851W        W25698  10.004   2.422   5.218 -0.0358 -0.0564  0.2037
 8852W        W25699   0.938   2.933   1.472  0.0084 -0.0562 -0.0890
 8853W        W25700  14.196  13.153  11.251 -0.3600  0.0594  0.0898
 8854W        W25701  17.502   9.298   1.703  0.0441 -0.3689 -0.2100
 8855W        W25702  10.050   4.394   4.016  0.0259  0.0699  0.1320
 8856W        W25703   4.612   0.936  12.427  0.3301  0.0791 -0.1192
 8857W        W25704   8.796  17.243   0.720  0.1349  0.0505 -0.1072
 8858W        W25705   0.970   6.388  11.758 -0.2640  0.0552  0.0037
 8859W        W25706  11.540   0.435  11.424  0.1221 -0.3718  0.4281
 8860W        W25707   4.385  13.330  11.459  0.0409  0.0726  0.2911
 8861W        W25708   1.967  12.458  15.500 -0.0252 -0.0458  0.1273
 8862W        W25709   4.845   5.993  14.377 -0.0075 -0.2535 -0.0241
 8863W        W25710   9.917   1.397   2.128 -0.0791  0.2625 -0.2037
 8864W        W25711  18.702  12.800   1.708 -0.1327  0.0692 -0.1717
 8865W        W25712  17.488  14.997  14.546 -0.1396 -0.1614  0.0957
 8866W        W25713  13.850  10.752  15.728  0.0954  0.2504  0.2048
 8867W        W25714  14.104   9.877   2.646  0.1149 -0.2095  0.1461
 8868W        W25715  11.711   2.796   1.119  0.0452 -0.0349 -0.1113
 8869W        W25716   0.830  15.949   4.754 -0.1070 -0.2096  0.2220
 8870W        W25717   8.821  14.502   3.481 -0.3305  0.2295 -0.5037
 8871W        W25718  11.286   4.183  11.014 -0.1580  0.2938 -0.0310
 8872W        W25719   4.442   2.672  15.004 -0.1730  0.3377  0.0302
 8873W        W25720   3.480   1.117  11.454 -0.1554  0.2047 -0.3995
 8874W        W25721   1.162   6.484  13.741 -0.0189 -0.1079 -0.0768
 8875W        W25722  10.827   5.541  10.359  0.0108  0.0757  0.1815
 8876W        W25723   2.946  17.851   2.736 -0.3878 -0.1506  0.2076
 8877W        W25724   4.224  13.564  11.019 -0.1479 -0.0399  0.1836
 8878W        W25725  17.966   9.234  12.816  0.0692 -0.1670 -0.0852
 8879W        W25726   0.729   0.356   0.546 -0.1146  0.0890 -0.1563
 8880W        W25727  11.584   0.438   1.609  0.2041  0.0632  0.0860
 8881W        W25728   7.397  17.657  13.839  0.2088 -0.2080  0.2545
 8882W        W25729   6.127  12.633  11.825  0.1459  0.1300 -0.1146
 8883W        W25730  11.059  14.439   4.712  0.0118 -0.2178 -0.0116
 8884W        W25731   7.243   3.933   3.041 -0.0486  0.1278 -0.1705
 8885W        W25732   0.061   5.304   0.387 -0.0313 -0.0111  0.3264
 8886W        W25733   0.643   1.365  12.524  0.0807 -0.1154  0.3625
 8887W        W25734   1.047   2.444  14.686 -0.0642  0.1938 -0.1852
 8888W        W25735  15.467  15.495  12.993 -0.1323  0.1875  0.1534
 8889W        W25736   9.564   4.172   3.448  0.1269 -0.0017 -0.5043
 8890W        W25737  12.768  13.100  14.914 -0.0434 -0.0100  0.0375
 8891W        W25738   2.384   6.245  13.877  0.1253  0.2339  0.0771
 8892W        W25739  16.271   0.843  12.862  0.2845 -0.2745 -0.0568
 8893W        W25740  11.655   5.207   1.350 -0.0380  0.0722 -0.0718
 8894W        W25741   1.348   0.005   5.446 -0.1189 -0.0086 -0.0598
 8895W        W25742  13.114   9.652  14.807 -0.0596  0.2842  0.2006
 8896W        W25743   7.088  14.891  13.320  0.0934 -0.0773 -0.0315
 8897W        W25744   4.319   1.542   0.358 -0.2456  0.2534 -0.0987
 8898W        W25745   3.653   3.940  12.670 -0.0011 -0.0937  0.2284
 8899W        W25746   4.577   8.954   1.618 -0.0988 -0.0882 -0.2050
 8900W        W25747  10.938  12.670  15.047 -0.0652  0.2223  0.0637
 8901W        W25748   7.124   4.944  14.152  0.1082  0.2522 -0.0379
 8902W        W25749  12.468   1.996  11.963 -0.3064  0.5561 -0.0062
 8903W        W25750  17.288   4.253   4.723  0.0970 -0.1956  0.1334
 8904W        W25751  10.842  13.033   2.975  0.2410 -0.1497 -0.1731
 8905W        W25752  14.843   1.122  14.340 -0.1743  0.3269  0.0110
 8906W        W25753   6.672  11.659  13.783 -0.1030  0.3273  0.0812
 8907W        W25754  18.486   7.878  14.608  0.1252  0.1058 -0.2996
 8908W        W25755  12.236  13.910  15.355  0.1331  0.0201  0.0319
 8909W        W25756   8.821   4.706   1.367  0.1124  0.1576  0.0122
 8910W        W25757   7.415  16.344  13.781 -0.2604  0.2228 -0.3203
 8911W        W25758   8.541   4.856   3.652  0.2526 -0.0107 -0.1557
 8912W        W25759  12.856  16.817  13.396 -0.0832 -0.3230  0.3850
 8913W        W25760  16.302   5.453  15.296  0.2608 -0.3455 -0.0648
 8914W        W25761  10.218   0.597  14.299 -0.2331  0.1150 -0.0300
 8915W        W25762   7.701   8.716  14.561  0.1986 -0.3196  0.1718
 8916W        W25763   8.541  11.683  12.777 -0.0002 -0.0363 -0.1617
 8917W        W25764   7.489  13.912   3.386  0.0092 -0.0701 -0.0502
 8918W        W25765  18.849   3.419   0.601 -0.0931 -0.2665 -0.0526
 8919W        W25766  16.711  14.369   5.254 -0.1069  0.1891  0.1521
 8920W        W25767   6.510   6.882   4.171  0.2476  0.0665 -0.0357
 8921W        W25768   4.007  12.047   5.400  0.0284  0.1012  0.1106
 8922W        W25769  11.262   4.787   3.916  0.0432  0.0324  0.1400
 8923W        W25770  14.966  15.040  13.478  0.0466  0.2304 -0.1949
 8924W        W25771   5.823   1.791   1.408 -0.0824 -0.2654 -0.0140
 8925W        W25772  10.400   4.263   2.283 -0.3575  0.4529  0.2699
 8926W        W25773   0.002  17.382  15.270  0.0773  0.1540 -0.1628
 8927W        W25774  18.718   8.460  11.182 -0.1751 -0.0790 -0.0978
 8928W        W25775  18.666   3.374  13.079 -0.3793  0.2185  0.0108
 8929W        W25776   3.820   6.423  14.988 -0.0126  0.1696  0.0634
 8930W        W25777   9.577   6.656  11.912  0.3962  0.0990 -0.2565
 8931W        W25778  17.555  11.694   3.638 -0.0372 -0.1883  0.0216
 8932W        W25779   7.512  15.803   1.508 -0.0109 -0.1371 -0.2838
 8933W        W25780   9.721  11.813  12.748  0.1378 -0.1010  0.0631
 8934W        W25781  17.297  14.193   5.042  0.0092 -0.2826 -0.0060
 8935W        W25782   6.784   0.986   0.659  0.3167  0.2740  0.0708
 8936W        W25783   4.795   1.407  11.624  0.2118 -0.0131 -0.0539
 8937W        W25784  15.462   6.014   2.968  0.1206  0.2500 -0.0854
 8938W        W25785   0.208   4.001   6.208  0.2974 -0.5175  0.1421
 8939W        W25786   7.144   2.875   5.155 -0.2286 -0.2131  0.1059
 8940W        W25787  13.096  10.068   5.448 -0.1005 -0.0368 -0.1992
 8941W        W25788  18.729   8.335   3.418  0.1863 -0.2318  0.0045
 8942W        W25789  14.779  12.390  12.175 -0.0377 -0.0788  0.0510
 8943W        W25790  18.319  10.066  14.261  0.2325 -0.2213 -0.1280
 8944W        W25791   2.888   7.249   0.440  0.2323  0.1374 -0.2110
 8945W        W25792   8.044  15.896   4.646 -0.6173 -0.4190 -0.0277
 8946W        W25793   2.533  15.407   3.954 -0.1077  0.4243 -0.1608
 8947W        W25794   4.889   0.583   2.288  0.0734 -0.2777 -0.0928
 8948W        W25795   8.124  18.734   4.520  0.1804 -0.1014 -0.0294
 8949W        W25796  16.394   1.713  12.538  0.0566 -0.0339  0.2054
 8950W        W25797   7.346  11.922   2.178 -0.4700 -0.2424 -0.2583
 8951W        W25798   2.220  16.431   3.856 -0.0619 -0.0680  0.2560
 8952W        W25799  18.722   8.627   1.645 -0.0314  0.2574 -0.0939
 8953W        W25800  16.611  16.055   4.226 -0.0454  0.2463 -0.4035
 8954W        W25801   0.883   3.758  12.369 -0.0016 -0.0550 -0.1524
 8955W        W25802  13.620   2.019  13.570  0.0219  0.0185  0.1155
 8956W        W25803   1.869   8.722   3.984  0.3692 -0.1698  0.0525
 8957W        W25804  12.219  16.740  15.221  0.0682 -0.1043  0.4930
 8958W        W25805  15.444   6.433   5.658 -0.0454  0.1725  0.0550
 8959W        W25806   0.153   9.079  11.835  0.2966 -0.1932  0.0963
 8960W        W25807  10.280   1.114   4.250 -0.1361  0.3801 -0.0368
 8961W        W25808   6.344   8.020  14.654 -0.0263 -0.1236  0.0540
 8962W        W25809   5.269  15.238   3.632 -0.0886 -0.1623 -0.3944
 8963W        W25810   1.083   8.359   2.978 -0.1144  0.1374 -0.1566
 8964W        W25811  12.472   7.889  12.549  0.0741 -0.1060  0.2670
 8965W        W25812   5.454   1.232   4.697  0.2574 -0.2085 -0.1946
 8966W        W25813  13.079  17.597   3.340  0.0538  0.1955 -0.0860
 8967W        W25814   8.019   5.081  15.026  0.0095  0.6161  0.3130
 8968W        W25815  14.030   1.614   3.008 -0.1613  0.3569  0.2620
 8969W        W25816   1.545   7.653  14.602  0.2481  0.0668 -0.0502
 8970W        W25817   0.160  18.533   4.787  0.2608 -0.2883  0.1646
 8971W        W25818  13.903  16.709   5.291 -0.2128  0.1531  0.0331
 8972W        W25819   4.036   5.354   4.884 -0.2168  0.3674  0.2361
 8973W        W25820   9.240  10.820  13.763  0.0578 -0.2608 -0.0023
 8974W        W25821  10.966  17.148  12.441  0.1106 -0.1141 -0.4668
 8975W        W25822   0.378   5.533  13.885 -0.0350  0.3241 -0.2664
 8976W        W25823  13.621   9.811   4.621  0.2965 -0.1734 -0.2182
 8977W        W25824   1.757   9.699  14.503 -0.3216  0.0579 -0.0286
 8978W        W25825   1.605  17.272   2.465 -0.0922 -0.1368  0.0012
 8979W        W25826  12.075   1.717  15.230 -0.2863  0.2508  0.0488
 8980W        W25827  18.141  15.244   0.662  0.1934 -0.1449 -0.0664
 8981W        W25828   2.791  10.898  11.515  0.3130  0.0335  0.0315
 8982W        W25829   8.807   5.372   0.904 -0.3172  0.0788  0.1750
 8983W        W25830  12.089   0.455  12.278  0.0643 -0.1023 -0.1109
 8984W        W25831  17.497  10.326  13.626  0.2622  0.2846 -0.0554
 8985W        W25832  17.656   3.907   4.295 -0.1121 -0.1555 -0.2876
 8986W        W25833  16.115   0.048   1.768  0.0130  0.1926 -0.2371
 8987W        W25834   7.830  18.762   4.883 -0.4606  0.0190 -0.3152
 8988W        W25835  16.499  11.535   0.719 -0.1239 -0.3164 -0.1274
 8989W        W25836  12.144  15.045   0.630  0.0284  0.1853  0.2637
 8990W        W25837   1.072   7.892   2.810  0.0557  0.2762 -0.2254
 8991W        W25838  15.304  17.463   3.958  0.2468  0.0340 -0.4323
 8992W        W25839  13.382   6.847   1.945  0.0320 -0.0001 -0.1232
 8993W        W25840   4.144   1.532   3.880  0.1220  0.1024 -0.1774
 8994W        W25841   5.002  14.791   1.658  0.1302 -0.2229  0.1102
 8995W        W25842  17.399  16.338   1.626 -0.2510  0.0798  0.1706
 8996W        W25843  14.528   0.503  13.727 -0.2859 -0.0387 -0.1971
 8997W        W25844   4.132   0.543   5.339 -0.2790 -0.1136  0.3895
 8998W        W25845   3.542   4.534   1.314 -0.0347 -0.2876 -0.0787
 8999W        W25846  16.475  17.753   2.525  0.0262  0.2302 -0.0379
 9000W        W25847  15.791  17.527   2.726  0.3189  0.1220  0.1782
 9001W        W25848  18.446   4.836   0.356  0.3341  0.1567 -0.0128
 9002W        W25849  17.428   7.642  12.801 -0.3668 -0.1479 -0.3613
 9003W        W25850  15.304   0.270  12.689  0.1884  0.1273  0.0288
 9004W        W25851   7.715   9.477   4.705 -0.2855  0.0140  0.0706
 9005W        W25852  16.280  11.849  14.306 -0.1733 -0.1846  0.0308
 9006W        W25853   5.465   3.463   4.157 -0.0398  0.1845  0.1302
 9007W        W25854   2.370  11.574  13.495 -0.2496 -0.2456  0.1781
 9008W        W25855  16.747   3.157   0.213  0.3688 -0.4116 -0.1310
 9009W        W25856  14.001  12.786  15.229  0.2355 -0.2439 -0.1354
 9010W        W25857  13.201   1.582   5.937 -0.0207  0.1682 -0.1505
 9011W        W25858   5.480   3.061   2.011 -0.0778 -0.0478 -0.1177
 9012W        W25859   7.263   3.859  12.092  0.0492 -0.1223  0.1043
 9013W        W25860  13.608   2.983  13.392  0.0332 -0.0462 -0.0865
 9014W        W25861   0.172  14.706   0.295  0.2794  0.0970  0.0494
 9015W        W25862   0.220  16.428  13.035 -0.1777 -0.1757  0.0154
 9016W        W25863   0.887   0.985   3.946 -0.4445 -0.0463 -0.0293
 9017W        W25864  17.621   0.302  14.591  0.1092  0.4791  0.0257
 9018W        W25865   4.820  14.394  12.192 -0.1754 -0.0327  0.2159
 9019W        W25866   2.742   0.336  13.899  0.1414 -0.3508 -0.1277
 9020W        W25867   2.590   3.504   5.201  0.1531 -0.1574 -0.0427
 9021W        W25868   6.336  12.885   1.540 -0.2323  0.1059 -0.0647
 9022W        W25869   0.452  13.742   3.735  0.1547  0.0642 -0.1380
 9023W        W25870   1.609  18.017   2.866  0.1310  0.1832 -0.3369
 9024W        W25871  17.286  17.318   4.184  0.1288  0.1249 -0.1280
 9025W        W25872  10.382   4.590   1.898 -0.1240  0.2018  0.3037
 9026W        W25873  13.134  16.110   1.016 -0.0204  0.0294  0.1681
 9027W        W25874   7.804  15.911   2.441  0.3857 -0.0316 -0.0589
 9028W        W25875   2.981  10.083   3.613  0.0377  0.0605 -0.1406
 9029W        W25876   8.115  11.381   0.439  0.0512  0.3289  0.1431
 9030W        W25877   8.953   5.474  13.046  0.0612 -0.1816  0.2307
 9031W        W25878   0.941   3.774  14.573  0.3135 -0.1329 -0.2601
 9032W        W25879  16.346   4.644  12.674  0.1537  0.1102 -0.0174
 9033W        W25880   4.511   6.010  12.918  0.0071  0.1338  0.0825
 9034W        W25881   6.265  15.014  10.643 -0.0509 -0.0793  0.1183
 9035W        W25882   6.157  12.760   2.923  0.1562 -0.0238 -0.0104
 9036W        W25883   8.872   0.624   0.403 -0.1460  0.0501  0.3359
 9037W        W25884  10.615   0.427  11.259  0.0153  0.1812  0.0176
 9038W        W25885   4.735  15.357  12.043 -0.0514 -0.0808  0.2613
 9039W        W25886  14.311  14.589   4.698  0.0786  0.1526 -0.1865
 9040W        W25887  18.304  10.761   2.175 -0.1894  0.0600  0.1391
 9041W        W25888  12.451  13.744  14.336  0.0175  0.2727 -0.2339
 9042W        W25889   9.283  13.231  10.655 -0.1060  0.0073  0.0820
 9043W        W25890  11.033   0.435  15.665 -0.2427  0.1813 -0.0065
 9044W        W25891  10.169   3.010   3.966 -0.1149  0.3209 -0.1049
 9045W        W25892   1.105   7.582   4.711  0.1545  0.5026  0.0413
 9046W        W25893   5.109  10.064   3.663  0.1505  0.1170 -0.1735
 9047W        W25894  13.710  13.741  11.475 -0.1803  0.0726  0.0338
 9048W        W25895  17.194   4.088   1.675  0.0563 -0.3084 -0.0346
 9049W        W25896   2.502   4.449   5.014 -0.1144  0.1168 -0.1222
 9050W        W25897   0.940  17.636  10.886 -0.0394 -0.1870 -0.0251
 9051W        W25898   7.152  18.406   2.606  0.1616  0.0914 -0.1031
 9052W        W25899  18.641   2.667   2.756  0.1061 -0.4611  0.0253
 9053W        W25900  17.191  10.469   3.625 -0.4881  0.2633 -0.4328
 9054W        W25901   5.811   9.322   1.556 -0.0085 -0.1807  0.1691
 9055W        W25902  18.627  14.414   1.367 -0.2242  0.1037 -0.0502
 9056W        W25903  12.126   1.662   1.175  0.1365  0.0165  0.0019
 9057W        W25904   2.425  10.043   5.758 -0.0666  0.0449 -0.3767
 9058W        W25905  12.477   9.537  13.479 -0.0228 -0.0291 -0.0776
 9059W        W25906   3.732   7.555   2.678 -0.0510 -0.0602  0.2541
 9060W        W25907  15.751  12.113   1.296 -0.0882 -0.2554 -0.1111
 9061W        W25908  16.113  14.982  13.739 -0.1868 -0.0269 -0.0173
 9062W        W25909   1.940  14.610  14.783  0.1023  0.1495 -0.0307
 9063W        W25910   6.172  15.379  10.273  0.0639  0.0732 -0.3308
 9064W        W25911   6.269  17.501   0.363  0.1592  0.0191  0.1568
 9065W        W25912   8.705  18.810  14.420  0.3121  0.2041 -0.0857
 9066W        W25913   3.813  17.214   3.119 -0.2730 -0.2010  0.0779
 9067W        W25914  10.050  16.098  11.207  0.1773 -0.0391 -0.1929
 9068W        W25915   3.969  13.910   3.700 -0.1519 -0.0534  0.0924
 9069W        W25916   8.287   8.625  14.137  0.3010 -0.1189  0.1972
 9070W        W25917   5.739   0.615   1.138  0.0660 -0.2211 -0.2489
 9071W        W25918   2.823  11.309  13.345  0.2526  0.0142  0.0171
 9072W        W25919   5.386  17.445  11.223 -0.1426  0.0667 -0.2162
 9073W        W25920  16.703  13.547   0.006 -0.0259 -0.1210 -0.0024
 9074W        W25921   2.262   7.643  11.198 -0.3606  0.0530  0.1042
 9075W        W25922  18.060   3.721  12.002 -0.1561  0.0863 -0.3014
 9076W        W25923   3.259   2.611   2.016  0.2909  0.1317  0.1188
 9077W        W25924  11.313   0.513   4.940  0.1272 -0.2745  0.3497
 9078W        W25925  17.240   9.890   4.252  0.0113 -0.0477  0.0666
 9079W        W25926   1.956  10.599   0.063 -0.1761  0.1539 -0.0299
 9080W        W25927   8.206  14.849   1.252 -0.2572 -0.0590  0.1840
 9081W        W25928  18.047   9.538   2.142 -0.1443 -0.1676  0.2040
 9082W        W25929  11.547   1.757  11.838 -0.0175  0.1021 -0.2766
 9083W        W25930   6.896   0.695   4.387  0.1392  0.1631  0.1959
 9084W        W25931   9.730   8.354  11.227  0.0106 -0.2745 -0.2175
 9085W        W25932   1.002   2.318   1.601  0.1505  0.0263  0.0409
 9086W        W25933   2.763   4.586  13.196  0.2012 -0.2920  0.1510
 9087W        W25934  10.124  18.547  12.061  0.1573  0.0866  0.0449
 9088W        W25935   8.549  11.937   3.045 -0.0298  0.1985  0.0795
 9089W        W25936  17.492   6.445  15.273 -0.2046 -0.1069 -0.0726
 9090W        W25937  12.621  10.068   0.469  0.0960 -0.1097  0.0962
 9091W        W25938   1.693  10.583  11.527  0.0271  0.2504 -0.0811
 9092W        W25939   7.998   7.666   0.537  0.1075  0.2696 -0.0945
 9093W        W25940  14.122  15.676  14.498 -0.0056  0.0920 -0.0200
 9094W        W25941   6.734  16.113   1.596 -0.0019 -0.0278 -0.2237
 9095W        W25942   7.105   7.847  12.407 -0.0787 -0.2206  0.1558
 9096W        W25943   0.432  14.072   4.621 -0.1928  0.0364 -0.2397
 9097W        W25944  16.365  16.162  15.779  0.0858  0.0554 -0.0704
 9098W        W25945  17.215  16.955  15.050 -0.0417 -0.0769 -0.1178
 9099W        W25946   1.033  14.566   3.946  0.1360  0.1261  0.2805
 9100W        W25947   0.076   3.692   5.440  0.1961  0.0104  0.1525
 9101W        W25948   0.241  15.385   4.667  0.0531 -0.0857 -0.0364
 9102W        W25949  13.786   8.451  12.966 -0.3006 -0.0827  0.2228
 9103W        W25950  11.079   0.912   0.181 -0.1444  0.2655 -0.3565
 9104W        W25951  12.812   0.506   1.629 -0.0486  0.1322 -0.1089
 9105W        W25952  12.984   2.646  12.182 -0.1167 -0.1036 -0.2339
 9106W        W25953   4.214  11.705  10.853  0.2173 -0.2373  0.0074
 9107W        W25954   1.388   0.157  11.575  0.0228  0.0357 -0.1792
 9108W        W25955   9.703   8.850  11.964  0.0663  0.0536 -0.1642
 9109W        W25956  13.183   0.478   2.558  0.1904 -0.0699  0.0387
 9110W        W25957   4.928  12.931   5.051 -0.1143  0.1215  0.5506
 9111W        W25958  18.027   7.544   4.978  0.0742 -0.2762 -0.0484
 9112W        W25959  18.185  15.016   2.528 -0.3870 -0.1092  0.0956
 9113W        W25960  18.475   5.408   1.891  0.0993 -0.1448  0.1985
 9114W        W25961   2.984   8.338  10.301  0.3998  0.0550 -0.0069
 9115W        W25962  13.358  18.759   3.021  0.0341 -0.0530  0.0394
 9116W        W25963  10.287   9.764   3.520 -0.0016 -0.1991 -0.1385
 9117W        W25964   8.085  16.996   0.077 -0.2554 -0.1146  0.0756
 9118W        W25965   3.084  15.561  14.539  0.2609  0.2601  0.1813
 9119W        W25966   2.089  15.892  10.815 -0.0454  0.0735  0.0017
 9120W        W25967   2.433  18.273  15.298 -0.2037  0.1161 -0.2781
 9121W        W25968   6.860  14.904   2.801  0.0011  0.1873  0.0621
 9122W        W25969   1.505  15.665  15.555  0.2253 -0.0137  0.0772
 9123W        W25970  11.979  18.831   1.856 -0.2516 -0.0913 -0.2382
 9124W        W25971   8.014  13.730   2.009 -0.3329  0.1484 -0.0304
 9125W        W25972  15.475  15.915  11.894 -0.1079 -0.0397 -0.0853
 9126W        W25973  18.154   8.878   3.526  0.3196 -0.0024 -0.0146
 9127W        W25974   1.170   6.010  13.968 -0.0589 -0.0262  0.0012
 9128W        W25975  17.979   6.795  12.416 -0.0680 -0.3057  0.1415
 9129W        W25976   8.538   0.062   1.782  0.4326  0.1305 -0.1778
 9130W        W25977   9.894  15.248   2.510  0.2192 -0.0554 -0.1082
 9131W        W25978   5.102   4.753   4.165 -0.2698  0.3919  0.0317
 9132W        W25979  10.185  13.468  15.626  0.1059  0.1172 -0.0327
 9133W        W25980  14.314  18.010  15.668 -0.0225  0.2440  0.0565
 9134W        W25981   7.569   6.921   0.296  0.3418  0.0638  0.3010
 9135W        W25982   7.387  18.850  14.290 -0.0011  0.1498 -0.1474
 9136W        W25983   1.690   1.835   1.987  0.0951  0.0291 -0.4172
 9137W        W25984   9.858   3.768  11.783  0.1314 -0.2858 -0.0969
 9138W        W25985  14.027  18.672  13.193 -0.0050 -0.0861 -0.0312
 9139W        W25986   2.992   5.732   0.203  0.0457 -0.3062  0.1704
 9140W        W25987  16.556  18.511  15.458  0.2794 -0.0556  0.2555
 9141W        W25988  12.160  10.380  15.567  0.0761 -0.1114  0.2871
 9142W        W25989  12.387  11.840  14.888  0.0248 -0.0203  0.2423
 9143W        W25990  12.934  17.548  15.048 -0.0863  0.0067 -0.1572
 9144W        W25991   2.469   3.163  12.314  0.1691 -0.0626  0.1552
 9145W        W25992   9.939  13.333  13.384 -0.3146 -0.1714 -0.1945
 9146W        W25993   7.692  14.653  12.266 -0.2072 -0.0637 -0.2124
 9147W        W25994  10.855  11.520  13.883  0.1911  0.1434 -0.2380
 9148W        W25995  16.668   4.572   2.936  0.0539 -0.1142  0.1794
 9149W        W25996   0.780   6.019  14.690 -0.1372  0.4340 -0.3126
 9150W        W25997  11.841  16.434  15.390 -0.0861  0.1186 -0.0398
 9151W        W25998   2.422  16.142   0.079 -0.2666 -0.3819 -0.1444
 9152W        W25999  11.349  17.315   1.323  0.0600  0.1947 -0.1296
 9153W        W26000  14.107   1.034  13.722 -0.1430  0.1334  0.2723
 9154W        W26001   4.960  15.250  13.397 -0.0429  0.2617  0.3083
 9155W        W26002  13.213  10.444   2.055  0.0747 -0.1783 -0.1091
 9156W        W26003   2.451   5.158   2.774 -0.0638 -0.4618 -0.0768
 9157W        W26004   9.880  14.573   0.551  0.2624 -0.0554  0.4711
 9158W        W26005  13.212  18.330  12.989 -0.3102  0.1623 -0.2623
 9159W        W26006  11.974  18.524  14.999  0.0295 -0.0561  0.3582
 9160W        W26007  11.598  15.575  13.975 -0.2202 -0.0280 -0.3129
 9161W        W26008   8.782  18.554   2.408 -0.0722  0.2901  0.0325
 9162W        W26009  11.424   7.945   4.937  0.0421  0.0410 -0.1476
 9163W        W26010   2.051  11.487   2.085  0.0542 -0.2356  0.2692
 9164W        W26011   6.071  12.230   3.660  0.2295 -0.1256  0.1134
 9165W        W26012   8.764  14.660  12.773 -0.0496  0.0739  0.0139
 9166W        W26013   0.370  10.701  10.971 -0.0268 -0.3434  0.0976
 9167W        W26014   5.074  17.300   2.623  0.2313  0.0575  0.1702
 9168W        W26015   4.047   7.639  14.408 -0.0353 -0.0166  0.0754
 9169W        W26016  10.239   3.527   1.957  0.2918  0.0906  0.0488
 9170W        W26017  12.037  14.613   5.123 -0.2389  0.0175 -0.0863
 9171W        W26018  13.877  13.469   2.868 -0.2028 -0.0862 -0.1232
 9172W        W26019   2.599  10.910   1.519 -0.0481  0.0746  0.0570
 9173W        W26020   6.749   5.687   5.167 -0.1785 -0.2326 -0.2967
 9174W        W26021   4.760   2.355  15.288  0.2748 -0.3236 -0.0858
 9175W        W26022   8.689   6.816  12.249  0.1946 -0.0012  0.0890
 9176W        W26023  12.230  13.655  11.143  0.0044 -0.2453  0.0426
 9177W        W26024  14.665   2.508  13.903 -0.1967  0.0854  0.1867
 9178W        W26025  18.331   5.922  15.581 -0.0953 -0.1979  0.0675
 9179W        W26026  15.533   3.683   4.534  0.0410  0.0836 -0.1096
 9180W        W26027   1.614  15.874  10.842 -0.0891 -0.2629  0.0273
 9181W        W26028   3.947  15.027   1.819  0.2234  0.1459 -0.0947
 9182W        W26029   5.228  15.585   4.710  0.1373 -0.1939 -0.3270
 9183W        W26030  13.143  11.386   3.027 -0.0369  0.1212  0.2417
 9184W        W26031   1.863   9.183  13.188 -0.0816  0.1179  0.0940
 9185W        W26032   8.766   8.377  10.140  0.0084  0.1803 -0.2945
 9186W        W26033  18.553   0.668   0.216 -0.1177  0.1897 -0.2945
 9187W        W26034  13.856   3.532   2.255  0.2715 -0.2773 -0.0243
 9188W        W26035  17.658  11.162   4.883  0.1286 -0.1557  0.1335
 9189W        W26036   8.400   1.520  11.943 -0.0039  0.0341 -0.1184
 9190W        W26037  11.201   8.584   3.167  0.0797 -0.0787  0.0685
 9191W        W26038   4.380   7.023   6.082 -0.3230  0.1976 -0.0581
 9192W        W26039   5.934   9.793  11.525  0.0699  0.0763 -0.0853
 9193W        W26040   1.011   0.708  13.948  0.1347  0.2646 -0.3025
 9194W        W26041  16.839   4.163  13.516  0.1723  0.5221  0.1908
 9195W        W26042  14.960  10.848   2.422 -0.3783 -0.1864  0.1045
 9196W        W26043  17.989  11.074  11.482  0.1439  0.1078  0.0931
 9197W        W26044   8.057  16.618  13.432 -0.0101 -0.1504 -0.1130
 9198W        W26045   0.988  18.094   3.023 -0.0954  0.0512  0.1807
 9199W        W26046  18.260  10.570  14.258  0.1384 -0.1020 -0.1439
 9200W        W26047   8.946  15.087  13.046 -0.1754 -0.2214  0.0993
 9201W        W26048  16.749   5.438   5.253  0.3438  0.1638 -0.0029
 9202W        W26049  11.505   1.418   1.909  0.1146 -0.1961  0.2017
 9203W        W26050  11.241  13.323  12.141 -0.0434  0.0429 -0.1985
 9204W        W26051  13.397  12.404  12.406  0.0288  0.0057  0.2872
 9205W        W26052   1.984   1.386  14.548 -0.1857  0.1367 -0.0456
 9206W        W26053   6.492  12.612  12.933  0.2830 -0.1685  0.3481
 9207W        W26054  13.925  14.049   1.669 -0.0786 -0.0820  0.1059
 9208W        W26055   3.920   4.102   5.344 -0.1923  0.1794  0.0533
 9209W        W26056   8.258  15.333   1.076 -0.1257  0.0744  0.1663
 9210W        W26057   5.588  17.922  11.139  0.3283 -0.1692 -0.1240
 9211W        W26058  12.042  11.486  11.794 -0.1611 -0.1050  0.0537
 9212W        W26059   6.925  12.871   4.801  0.0970  0.0582 -0.1397
 9213W        W26060  10.191   4.968   4.355  0.2393 -0.0707  0.0297
 9214W        W26061   4.785   6.727  15.058  0.0551  0.2970 -0.1672
 9215W        W26062  15.362   8.172   5.395 -0.0021  0.1767 -0.1098
 9216W        W26063   7.233  16.423  12.987 -0.0543 -0.1109 -0.0473
 9217W        W26064   2.431  15.635  13.821 -0.2208 -0.0068 -0.3828
 9218W        W26065   8.589   1.030   5.368 -0.3887  0.2214 -0.0638
 9219W        W26066   9.021  14.728   5.105 -0.3643  0.3878  0.3223
 9220W        W26067   5.217   4.320   2.938 -0.4004 -0.1597  0.0238
 9221W        W26068  18.673   1.299   1.003 -0.2560 -0.1827 -0.0457
 9222W        W26069   7.945   8.317   1.809  0.2207  0.1108 -0.2017
 9223W        W26070  11.148  18.610  11.750 -0.0818  0.0166  0.0271
 9224W        W26071   9.681   6.150   0.644 -0.0952 -0.1964 -0.1154
 9225W        W26072   6.108   8.660  14.009  0.0301  0.0342 -0.0709
 9226W        W26073   5.419   8.058   1.956  0.0502  0.1738  0.0850
 9227W        W26074  15.208   5.626  15.096  0.0761 -0.1640  0.3126
 9228W        W26075   7.918   6.007   1.780 -0.0213 -0.0676  0.0824
 9229W        W26076  16.762  12.976  14.598 -0.1099  0.1549 -0.1883
 9230W        W26077   4.368  11.302   3.329 -0.0071  0.2322 -0.1112
 9231W        W26078  13.043  15.650  14.978  0.2777 -0.0545  0.2624
 9232W        W26079  11.010   3.318  15.420  0.0620 -0.0360 -0.0719
 9233W        W26080   3.774  17.760   3.118  0.1184 -0.1032  0.0517
 9234W        W26081   3.860  18.703   1.888 -0.0293 -0.6540 -0.2569
 9235W        W26082   2.617  15.468   2.871 -0.0952  0.2959  0.0476
 9236W        W26083   3.997   3.582   5.277  0.0330 -0.0158 -0.1602
 9237W        W26084  15.373   5.534   1.541 -0.0430  0.0182  0.0753
 9238W        W26085   0.276  12.208   5.119 -0.0265  0.0243 -0.1316
 9239W        W26086   2.573   2.066   3.775  0.1133 -0.2531 -0.1528
 9240W        W26087  11.715  18.406   1.195  0.0812  0.0510 -0.0972
 9241W        W26088  18.491   2.512  12.034  0.0890 -0.1816 -0.1185
 9242W        W26089   5.373   0.869   0.920  0.1187 -0.2802 -0.1826
 9243W        W26090  13.299  13.374  15.656 -0.4347  0.0238  0.1464
 9244W        W26091   0.764   0.098  14.024 -0.2666 -0.1898  0.1060
 9245W        W26092   9.749  18.574  15.039 -0.0974 -0.1033  0.1438
 9246W        W26093  16.250   0.293  14.680  0.2750 -0.0722  0.3818
 9247W        W26094  12.313   6.113   1.383 -0.1850 -0.3918  0.3183
 9248W        W26095  16.401  14.848   0.024  0.0038  0.1227  0.1169
 9249W        W26096   7.588  13.772  14.052 -0.1310 -0.2068  0.0822
 9250W        W26097   3.116   4.838   0.047  0.1354 -0.1489  0.1111
 9251W        W26098   8.578  15.116  12.385  0.2769  0.1521 -0.1608
 9252W        W26099  17.948   0.250  13.858  0.3216 -0.0407  0.0138
 9253W        W26100   1.875   3.341  12.142 -0.3002 -0.0529  0.3362
 9254W        W26101  15.984  15.767  12.286 -0.3923 -0.0308  0.0576
 9255W        W26102   1.772  15.396  12.484 -0.3065 -0.0082  0.0835
 9256W        W26103  14.486   2.057  13.941  0.1073  0.2144  0.2248
 9257W        W26104   9.576  16.219  10.786 -0.2119 -0.2322 -0.0073
 9258W        W26105   5.686  17.038   3.514 -0.1067  0.1228  0.3112
 9259W        W26106  14.055  10.197  12.881  0.2794  0.2370 -0.1256
 9260W        W26107  11.703   9.297   1.075  0.2636 -0.1141  0.3034
 9261W        W26108   4.107   0.076   5.026 -0.0764  0.0864 -0.0044
 9262W        W26109   6.133   6.548  12.755  0.0695 -0.0791 -0.2428
 9263W        W26110   7.305   2.375  15.102  0.0316  0.3361 -0.1769
 9264W        W26111  15.483   7.240  14.598 -0.0334  0.2973  0.1647
 9265W        W26112   7.086   2.538   3.651  0.0008  0.3939  0.0171
 9266W        W26113  17.154  17.193   1.445 -0.2390 -0.0422  0.0445
 9267W        W26114  11.548  12.997   4.692 -0.0908 -0.1077  0.0199
 9268W        W26115   3.200  15.439   1.059  0.0298  0.0190  0.2277
 9269W        W26116   5.402   9.517   0.075 -0.2696 -0.2688 -0.3036
 9270W        W26117   1.429   0.132  10.638 -0.1212 -0.2081  0.1920
 9271W        W26118  13.599  13.083   1.425 -0.0087 -0.0861  0.1015
 9272W        W26119   0.394   6.375  14.553  0.0353  0.1416 -0.0960
 9273W        W26120   4.675   4.474  13.328 -0.0107  0.1406  0.1053
 9274W        W26121   9.429   0.142   1.860 -0.0703 -0.2800 -0.0718
 9275W        W26122  17.666   7.867  15.747  0.0801 -0.0351 -0.1302
 9276W        W26123  11.935   2.391  15.312  0.1496 -0.1987 -0.2672
 9277W        W26124  18.299   9.598  12.050 -0.3334 -0.1918  0.1812
 9278W        W26125   0.781   1.896   1.395 -0.1004 -0.0372  0.1970
 9279W        W26126   0.260   5.381  14.575 -0.0530 -0.1117 -0.0349
 9280W        W26127  18.309  15.395  15.521 -0.2155  0.4610 -0.1546
 9281W        W26128  14.314  10.956  14.456  0.0084 -0.2443  0.4229
 9282W        W26129   7.254  14.347   0.519  0.0444 -0.0690 -0.0221
 9283W        W26130  10.022  16.502   4.892 -0.0751  0.1450  0.0004
 9284W        W26131   4.945   3.466  13.381  0.1816  0.1798 -0.0835
 9285W        W26132   3.467  10.431   2.247  0.2712 -0.2043 -0.0801
 9286W        W26133   7.392  18.630  13.786 -0.1301  0.1047  0.1272
 9287W        W26134   1.157  15.878   0.482 -0.2308  0.1650 -0.0258
 9288W        W26135  10.103  15.588  11.971  0.0204  0.1228 -0.2501
 9289W        W26136   1.897  13.437  12.165 -0.1373 -0.0289 -0.0300
 9290W        W26137   3.290  18.172  12.426  0.0347 -0.0334  0.0787
 9291W        W26138  17.361   2.028   1.093  0.1496 -0.1167 -0.1608
 9292W        W26139  13.461   3.541  12.883 -0.1292  0.0743 -0.3521
 9293W        W26140  12.873   4.027  15.647  0.2746  0.2874 -0.2278
 9294W        W26141   4.458   0.465   0.392 -0.1457  0.1979 -0.1210
 9295W        W26142   8.692  14.511   4.794  0.3377 -0.0321  0.0973
 9296W        W26143  18.269  18.658  13.005 -0.0063  0.0446 -0.0976
 9297W        W26144  16.246  15.601   4.497 -0.3980  0.0828  0.5298
 9298W        W26145   8.983   4.935  14.967 -0.1160  0.0135 -0.0991
 9299W        W26146   8.643  13.556   5.574 -0.2844 -0.0726  0.0964
 9300W        W26147  13.578   4.270   5.740  0.0406 -0.2594 -0.2929
 9301W        W26148  15.694   7.745  12.038 -0.1118  0.0325  0.4193
 9302W        W26149   4.066   8.651   3.043  0.1619 -0.0324  0.0920
 9303W        W26150   3.956  12.041  15.631  0.2244  0.0023 -0.1147
 9304W        W26151  10.079   5.964  14.778 -0.3974  0.1576  0.4651
 9305W        W26152   1.105   7.088   5.575 -0.5110 -0.1018  0.0696
 9306W        W26153  18.733  11.460  13.476  0.0109 -0.0836 -0.0731
 9307W        W26154  16.909   9.563   1.968 -0.1814 -0.0348  0.3487
 9308W        W26155   6.121   2.936   4.528  0.0656  0.1360  0.0597
 9309W        W26156  18.124  11.275   4.854 -0.3516 -0.0507 -0.0603
 9310W        W26157   8.084  15.607   0.564  0.0614 -0.1094 -0.1204
 9311W        W26158   7.941  11.066   1.272 -0.1438 -0.0885 -0.0639
 9312W        W26159  17.632   4.088   3.799 -0.0449 -0.0275 -0.3115
 9313W        W26160   4.450   4.480   4.732  0.0485 -0.0193  0.1364
 9314W        W26161  10.804  16.137  12.379 -0.1221  0.1851  0.0161
 9315W        W26162  14.642   8.914   5.354 -0.3381 -0.1930  0.0073
 9316W        W26163   7.002   6.391   2.074 -0.3971 -0.0010 -0.1555
 9317W        W26164   9.342  18.007  11.952  0.1182 -0.5188 -0.1119
 9318W        W26165   2.028   6.498  15.209  0.2066  0.1280 -0.1966
 9319W        W26166   3.112   7.984   5.964 -0.0689 -0.1039 -0.1539
 9320W        W26167  14.057  16.510   2.770  0.1515 -0.1530 -0.0749
 9321W        W26168  11.424   1.754   3.235  0.2121  0.0018  0.2051
 9322W        W26169  11.326   7.149  15.064 -0.1483 -0.1894  0.2790
 9323W        W26170   9.870   7.031   0.355  0.1878  0.3039 -0.0083
 9324W        W26171   3.125  10.456  13.042 -0.0062 -0.2250 -0.1424
 9325W        W26172  13.386  10.932  14.912 -0.1207  0.2215 -0.3420
 9326W        W26173  16.312  14.340   2.229 -0.2660 -0.3784 -0.0714
 9327W        W26174   8.144   1.350  13.411  0.0324 -0.1214  0.3378
 9328W        W26175   1.489   3.127   2.033  0.0694 -0.2268 -0.1706
 9329W        W26176  12.924  17.997   3.093  0.1071  0.0322 -0.3028
 9330W        W26177   0.249  13.361  14.552 -0.2699 -0.0745  0.1662
 9331W        W26178  10.999   4.858   2.587 -0.0458  0.1637 -0.0572
 9332W        W26179   7.558   4.238  12.155  0.1262  0.2679 -0.1933
 9333W        W26180  10.864  18.260  13.553  0.1070  0.0752  0.2844
 9334W        W26181   8.794   0.662  15.296  0.0801 -0.2294  0.2295
 9335W        W26182  13.153   7.530   4.942  0.1471 -0.0278 -0.2283
 9336W        W26183   5.182   0.463  15.727 -0.0997  0.0270 -0.0077
 9337W        W26184   4.356   8.949  14.425 -0.0299  0.2035 -0.2279
 9338W        W26185   5.029   7.816  14.450  0.0109  0.0919 -0.1597
 9339W        W26186  17.117   1.041  13.677  0.0067 -0.1467  0.4382
 9340W        W26187  13.824  18.794  13.701  0.1999  0.2257 -0.0115
 9341W        W26188  11.295  18.831  14.755  0.2243  0.0535 -0.1760
 9342W        W26189   7.753   4.456   4.983  0.1790 -0.1558  0.0334
 9343W        W26190   6.156   7.120  10.412  0.2881  0.2052 -0.2336
 9344W        W26191   8.098   6.845  14.073 -0.2079 -0.4114  0.0996
 9345W        W26192  15.379   4.128  13.598 -0.0099 -0.2921 -0.1034
 9346W        W26193   9.442  15.099  15.542 -0.0847  0.1780  0.0368
 9347W        W26194   7.747  18.302   4.670 -0.3718 -0.4418  0.3093
 9348W        W26195   4.113  17.558  15.081 -0.3113  0.5287  0.2350
 9349W        W26196   8.929  10.272   0.981 -0.3171 -0.3415  0.2076
 9350W        W26197   4.062  18.450   2.864  0.2479 -0.0665  0.0193
 9351W        W26198   3.952  17.791   5.348 -0.1605  0.2180  0.1164
 9352W        W26199  17.221  11.709  14.567  0.0150  0.0945 -0.5012
 9353W        W26200   4.391  17.638   2.824 -0.1366  0.2150 -0.1575
 9354W        W26201   6.862   9.591  12.225 -0.0332 -0.0135 -0.2955
 9355W        W26202  12.315  16.222  12.791 -0.0466  0.1863  0.1278
 9356W        W26203   3.697   9.657  13.449  0.2116 -0.2357 -0.0123
 9357W        W26204   8.476   8.404   4.648  0.1129  0.3771 -0.1243
 9358W        W26205   6.156   0.106  11.496  0.3517 -0.0102  0.0041
 9359W        W26206   1.181   3.527  13.818  0.0032  0.2868 -0.1495
 9360W        W26207  11.353   4.536  13.460  0.0559  0.3055 -0.1129
 9361W        W26208   5.042  18.590   2.726 -0.2238 -0.0721 -0.2029
 9362W        W26209  12.846  14.126  12.242 -0.0745 -0.0713  0.0801
 9363W        W26210   2.048   2.791  12.368  0.2941  0.2126 -0.0499
 9364W        W26211  10.751  17.551  12.912 -0.2367 -0.1614  0.4689
 9365W        W26212   2.521  14.456   4.482  0.5663 -0.0480 -0.1027
 9366W        W26213  15.596  17.652   5.609 -0.1088 -0.0182  0.1935
 9367W        W26214   4.896   8.325  13.740 -0.0159  0.4456  0.0401
 9368W        W26215  18.847  17.800  14.648 -0.0313 -0.2791 -0.0699
 9369W        W26216  13.430  17.402   1.053 -0.0620 -0.0300 -0.0979
 9370W        W26217   6.640   5.248  12.902 -0.1442 -0.0416 -0.4394
 9371W        W26218  16.181  15.871  14.886  0.3948  0.1339  0.2206
 9372W        W26219  15.596   7.082   2.514  0.2684  0.0390  0.0876
 9373W        W26220  10.269   9.360  14.975 -0.2162 -0.1442 -0.1177
 9374W        W26221  10.645  11.680   4.204  0.0983  0.3086 -0.2598
 9375W        W26222  11.790   5.586  11.500 -0.1686  0.0956 -0.0423
 9376W        W26223   0.614  15.447  12.354 -0.1491 -0.0521 -0.1879
 9377W        W26224   7.421   6.047   4.633 -0.0266  0.0135 -0.0164
 9378W        W26225  15.050   4.533  13.287 -0.2086 -0.0429 -0.2944
 9379W        W26226   5.044   7.635   1.377  0.2638  0.0222 -0.0249
 9380W        W26227  17.301   3.105   4.759 -0.0010 -0.0016  0.0535
 9381W        W26228   8.484  12.902  12.250  0.0253  0.1478  0.1434
 9382W        W26229   3.122   0.906   3.494 -0.0660  0.0091 -0.0077
 9383W        W26230  17.324   0.672  11.678  0.3813  0.0199 -0.0199
 9384W        W26231   6.986  14.165  12.985  0.1253  0.1520 -0.0182
 9385W        W26232   3.067   1.308  10.770  0.1478  0.2409 -0.1567
 9386W        W26233   0.584   0.453   5.046 -0.1774 -0.0312  0.1707
 9387W        W26234  18.708   8.761   3.057 -0.0558  0.0653 -0.3113
 9388W        W26235   4.669   4.896   5.072  0.0753 -0.1341  0.2809
 9389W        W26236  13.293  14.889  11.865 -0.4304  0.2534 -0.1099
 9390W        W26237  18.780  12.907  10.978 -0.2275 -0.0560  0.0563
 9391W        W26238  12.568  13.091   0.290  0.2652 -0.0108 -0.2798
 9392W        W26239  18.191  17.401  15.035  0.1236  0.0138  0.1510
 9393W        W26240   3.885   8.800  11.976 -0.1084 -0.1245  0.1438
 9394W        W26241   1.117   4.499  15.624 -0.0114  0.0200 -0.0423
 9395W        W26242   6.187   4.386   0.110  0.1345 -0.2553  0.1160
 9396W        W26243   1.192   9.057  14.159  0.0452 -0.2287  0.0075
 9397W        W26244  17.048   6.508   0.890  0.2274 -0.0889  0.2036
 9398W        W26245   1.605   1.415   3.741  0.1566 -0.2232  0.0358
 9399W        W26246   3.393   7.943   4.504  0.1759  0.3031  0.3354
 9400W        W26247  11.007   2.246   2.321  0.0366  0.1728  0.3208
 9401W        W26248   8.935  11.410   2.549 -0.2364 -0.0048  0.1179
 9402W        W26249   3.567   3.883   5.648 -0.0204  0.2163 -0.0949
 9403W        W26250  13.953   2.816  14.373 -0.0364 -0.0311 -0.0333
 9404W        W26251   0.788   4.522  12.323 -0.1847  0.2406  0.1334
 9405W        W26252  15.780   4.962   3.075 -0.0732  0.0811 -0.1238
 9406W        W26253   0.542  11.356  12.830 -0.0158  0.1127 -0.0567
 9407W        W26254   8.520  12.356  14.897 -0.0052  0.0530  0.1760
 9408W        W26255  15.445   2.125  11.165 -0.2742 -0.1413 -0.1105
 9409W        W26256   4.717   6.538   5.354 -0.0425 -0.0698 -0.0300
 9410W        W26257   9.071   3.787   1.132 -0.2788 -0.0837  0.1332
 9411W        W26258  12.564   6.805   1.588 -0.0345  0.2020  0.1729
 9412W        W26259  13.011  16.108   5.172  0.3595  0.0117 -0.0065
 9413W        W26260   5.756  17.459   0.468 -0.2459 -0.0923  0.0952
 9414W        W26261   9.820   9.130  14.762 -0.1923 -0.1434 -0.2358
 9415W        W26262   0.633   7.194   0.097 -0.0620 -0.4143  0.0511
 9416W        W26263  18.658  13.395  11.159  0.1894  0.1319 -0.0880
 9417W        W26264   0.850  13.113   4.775  0.1294 -0.1250 -0.1234
 9418W        W26265  16.972   4.991   2.936  0.1169  0.2153  0.0367
 9419W        W26266  17.961  18.126  15.604  0.1476  0.0650  0.0883
 9420W        W26267   8.977   9.242   2.174 -0.1710 -0.0204 -0.1682
 9421W        W26268  13.286   3.711   0.879  0.1833  0.3303  0.0039
 9422W        W26269   2.130   3.842  13.898 -0.2608 -0.1118 -0.3541
 9423W        W26270   7.599  14.946  15.158 -0.0815  0.2810  0.0985
 9424W        W26271  12.634   0.349   4.252  0.0560 -0.2347 -0.0114
 9425W        W26272  10.148   7.480   0.174  0.2682  0.1918 -0.0080
 9426W        W26273   9.253  18.476  12.772 -0.0220 -0.0120 -0.1148
 9427W        W26274  15.463   1.634   4.759 -0.1381  0.0145  0.0502
 9428W        W26275   5.925   3.728  13.864  0.0337 -0.1901 -0.0159
 9429W        W26276   6.848   4.646  11.168  0.2905 -0.1820 -0.0308
 9430W        W26277   9.973  12.541  14.031  0.1157 -0.2915 -0.1740
 9431W        W26278  18.596   1.319  13.464  0.0889  0.0911  0.1636
 9432W        W26279   2.521   9.762  12.935  0.2665  0.2474 -0.0744
 9433W        W26280   7.212  17.061   1.073  0.2471  0.2020  0.0228
 9434W        W26281   0.819  12.750   0.255 -0.1014 -0.3092  0.2541
 9435W        W26282   3.333  11.197  15.291  0.3455  0.4474  0.2057
 9436W        W26283  15.959  17.667  14.986  0.1708  0.0080 -0.2194
 9437W        W26284  16.017   1.967  15.487  0.1253 -0.0299  0.1538
 9438W        W26285  18.616   3.962   0.738 -0.1915 -0.0088  0.2509
 9439W        W26286  15.346   6.986  14.146 -0.1092 -0.2722 -0.1617
 9440W        W26287   9.215   8.768   1.518  0.1034 -0.0018 -0.0332
 9441W        W26288   7.676   3.508  14.592 -0.0162  0.1161 -0.0469
 9442W        W26289   4.765   3.811  11.154 -0.1421  0.1929  0.2131
 9443W        W26290  12.343   7.684   0.505 -0.4285  0.1853  0.2014
 9444W        W26291  14.336  17.228  14.517 -0.0119  0.0390  0.2245
 9445W        W26292  14.877  16.754   1.350 -0.0088  0.2293  0.2884
 9446W        W26293   6.106   1.015   2.098  0.2076 -0.0002  0.3002
 9447W        W26294   9.296  15.793   9.689 -0.2215  0.1798  0.1612
 9448W        W26295   5.357  13.764   1.110 -0.0068 -0.0118 -0.0817
 9449W        W26296  18.840  14.695   5.623  0.1889 -0.0637 -0.0787
 9450W        W26297   6.844  10.578   3.205  0.1415  0.5525  0.2778
 9451W        W26298  14.040   7.338   4.276 -0.3090  0.3322 -0.3118
 9452W        W26299  10.824  12.880  15.509  0.3137 -0.0160 -0.5312
 9453W        W26300  11.891   8.817  12.173 -0.3419  0.4147 -0.0487
 9454W        W26301   2.742   4.959  12.049  0.2927 -0.2670  0.1569
 9455W        W26302   8.185  11.504   1.810 -0.2130 -0.2854 -0.0158
 9456W        W26303  18.549  13.173   3.979 -0.0328 -0.1854  0.0844
 9457W        W26304  18.346  14.144   2.145 -0.2386 -0.2179  0.0578
 9458W        W26305  16.155   7.818   2.974  0.0243 -0.0155  0.3708
 9459W        W26306   7.363   9.282   9.497 -0.0515  0.0084  0.1749
 9460W        W26307   1.368  10.117   4.854 -0.5068 -0.2112  0.2036
 9461W        W26308  18.191   1.242  11.918 -0.0691 -0.4435 -0.2266
 9462W        W26309   9.845   1.820  14.893  0.2199 -0.4222  0.2405
 9463W        W26310  11.681   5.872   2.743 -0.0087  0.0332  0.2003
 9464W        W26311   4.621   0.120   2.764 -0.0553  0.2241  0.4074
 9465W        W26312   9.235   3.371   4.107  0.0426  0.0919 -0.0196
 9466W        W26313   8.251   7.852  13.496 -0.3700  0.0241 -0.0916
 9467W        W26314   1.401  16.636  11.045 -0.3186 -0.2942  0.1978
 9468W        W26315   2.638  14.849  12.469  0.1465  0.2773 -0.3391
 9469W        W26316   7.736   5.966   2.654 -0.1862  0.1042  0.2597
 9470W        W26317   0.603  13.173  14.235 -0.2220 -0.1532  0.1033
 9471W        W26318   2.527   3.060  15.189 -0.2031  0.2478 -0.3103
 9472W        W26319   0.449  18.237  11.412  0.0637 -0.0892 -0.3130
 9473W        W26320  17.798  11.005  14.217  0.2780  0.4236  0.3899
 9474W        W26321  13.158   0.693  13.780  0.1317 -0.3708 -0.3163
 9475W        W26322   2.903  17.271   0.971  0.2095 -0.1477 -0.0102
 9476W        W26323   4.947   1.552  15.405  0.3431 -0.0619  0.1384
 9477W        W26324   2.397   8.651  11.348  0.0106  0.2194 -0.1168
 9478W        W26325  18.672   9.758   1.566  0.1392 -0.2303 -0.0209
 9479W        W26326  11.286  14.004  13.534 -0.0950 -0.3055  0.3606
 9480W        W26327  14.172   9.897  10.107  0.4350  0.0201  0.2255
 9481W        W26328   5.397  12.691   2.112  0.0398 -0.0832 -0.1457
 9482W        W26329  16.681  12.410   0.420  0.1594  0.4518  0.2435
 9483W        W26330   9.526  10.223   2.192  0.0601 -0.5807 -0.2338
 9484W        W26331  16.287   4.782   2.303 -0.0492 -0.0074  0.0172
 9485W        W26332   2.258   2.141  13.930 -0.1072 -0.3093  0.0070
 9486W        W26333  14.360   3.693   1.567  0.0835  0.2552  0.1577
 9487W        W26334  10.338   1.402   5.182  0.0533  0.2655 -0.0311
 9488W        W26335   8.323  17.376  14.061 -0.2283  0.1677  0.0771
 9489W        W26336   1.651   1.901   2.913 -0.1919 -0.2059  0.0535
 9490W        W26337   4.783  12.968   0.148  0.1774  0.3709 -0.1119
 9491W        W26338  14.510   8.171   0.801  0.0157 -0.2173 -0.0772
 9492W        W26339   9.922  16.966   5.144  0.0735 -0.0465  0.5257
 9493W        W26340  12.663  14.899  11.300 -0.1611 -0.1277  0.3148
 9494W        W26341   0.355   0.084   0.392 -0.3039  0.2277 -0.1159
 9495W        W26342   9.027  10.467  13.449  0.2185 -0.0471 -0.1559
 9496W        W26343   9.604   4.627   3.136  0.1073 -0.2707 -0.0496
 9497W        W26344   6.970  12.610   1.002  0.2502 -0.3035  0.0202
 9498W        W26345  11.624  17.877  10.850 -0.1168  0.1394 -0.0951
 9499W        W26346   6.732   5.187   1.135 -0.1076  0.0011  0.0908
 9500W        W26347   2.550  17.825   3.653  0.0973  0.0977 -0.0896
 9501W        W26348  18.663  17.767   0.776  0.2901  0.0845 -0.0709
 9502W        W26349   8.610  11.534   2.061  0.0157  0.2594 -0.3627
 9503W        W26350  13.792   0.562  11.816 -0.1676  0.0609  0.0076
 9504W        W26351   0.340  18.769  15.487  0.0705  0.1626 -0.0373
 9505W        W26352  11.138  16.704  10.349 -0.0871  0.2215  0.4011
 9506W        W26353   0.567  13.970   6.060  0.3149  0.2309 -0.4221
 9507W        W26354   6.596  13.830  14.432  0.2534 -0.0547 -0.0295
 9508W        W26355   7.937  12.636   3.001 -0.1978 -0.0537 -0.4037
 9509W        W26356  12.310   3.545   1.487  0.0536 -0.0357  0.0312
 9510W        W26357   9.713  11.018  12.202 -0.2451 -0.3350 -0.2815
 9511W        W26358  16.922   6.943  12.685  0.1500  0.3948  0.0551
 9512W        W26359  13.232   6.381   2.569  0.0279  0.1619 -0.0498
 9513W        W26360  16.538   9.450  11.268  0.0112 -0.5789 -0.3026
 9514W        W26361  16.071   2.016   0.469 -0.4120 -0.0438  0.2248
 9515W        W26362   5.684   0.917  11.330 -0.0200 -0.3299 -0.1089
 9516W        W26363   8.410   3.168   4.739 -0.0169  0.0941 -0.0829
 9517W        W26364   8.436  12.555  12.633  0.3463 -0.0581  0.2323
 9518W        W26365   1.183   4.118   1.067 -0.0099 -0.3689  0.2933
 9519W        W26366  12.743  16.270   0.733 -0.1004  0.0466  0.0962
 9520W        W26367  12.004   0.062   3.791  0.1736  0.0675  0.0548
 9521W        W26368   6.546  14.779   0.553 -0.1025  0.0870 -0.0838
 9522W        W26369  17.029  15.882   4.628  0.1865 -0.1725  0.0710
 9523W        W26370  14.010   7.251  11.523 -0.1100 -0.1312 -0.1367
 9524W        W26371  16.803   9.430  12.909 -0.1105  0.0865 -0.1959
 9525W        W26372  10.993  13.210   5.463  0.1349 -0.1635 -0.0747
 9526W        W26373  17.362  14.006   2.006  0.4348  0.0738  0.0807
 9527W        W26374  13.548  11.146   4.357 -0.0778 -0.4341 -0.0457
 9528W        W26375   7.030  14.287   2.666  0.0117  0.0253  0.4073
 9529W        W26376   6.457   4.631  15.452 -0.1636  0.0602 -0.1654
 9530W        W26377   2.614  16.811   4.177 -0.0426  0.0629 -0.1248
 9531W        W26378   5.697   1.398   1.667 -0.1398 -0.1551  0.0341
 9532W        W26379   7.549   9.834  12.856  0.1067  0.1373 -0.0328
 9533W        W26380   2.967   6.811  11.961 -0.1624 -0.0703 -0.0068
 9534W        W26381   9.360  18.244  14.293 -0.1567 -0.0443  0.1324
 9535W        W26382  13.573  11.433  13.871 -0.0614  0.1385  0.3042
 9536W        W26383  14.860   7.980   0.430  0.2347 -0.1329  0.3049
 9537W        W26384   1.542  11.966  13.825 -0.0020  0.0038  0.1469
 9538W        W26385   2.940   0.695  15.727 -0.0736 -0.0454  0.0977
 9539W        W26386   3.560  17.131  14.200 -0.2589 -0.0931 -0.0498
 9540W        W26387   2.355   7.312   1.977  0.1025  0.0787 -0.0517
 9541W        W26388  10.295   8.483   0.135  0.1017 -0.2286 -0.0457
 9542W        W26389  14.006  12.239  13.678 -0.1899  0.6020  0.0218
 9543W        W26390  13.234  18.589  12.541 -0.0912 -0.4012 -0.2515
 9544W        W26391   0.920   5.386   5.183  0.0467  0.2978  0.0518
 9545W        W26392  11.843  13.605  15.131  0.3053  0.0324  0.1634
 9546W        W26393  16.774   3.425  12.373  0.0295 -0.1079  0.2574
 9547W        W26394  12.102   1.826  11.665  0.6051  0.0282  0.1656
 9548W        W26395   6.765  11.104   0.348  0.1780  0.0575 -0.0460
 9549W        W26396   0.459   9.912  11.729 -0.0501  0.1439  0.0333
 9550W        W26397   5.517   4.640   2.377 -0.0821  0.1335 -0.0826
 9551W        W26398   9.508  10.945   3.701 -0.1007  0.1878 -0.2424
 9552W        W26399   6.988   8.837   0.760  0.0173 -0.0131 -0.1975
 9553W        W26400  17.365   2.592  12.325  0.0094 -0.3584  0.1661
 9554W        W26401   1.680   9.900   1.176  0.0884  0.0887  0.0332
 9555W        W26402  17.172   9.274  14.269  0.2371 -0.1445  0.1171
 9556W        W26403  16.011  10.617  14.717  0.2989  0.1194  0.1293
 9557W        W26404   5.333   8.554   1.740 -0.0265 -0.2480 -0.3410
 9558W        W26405   2.399  15.788   3.111 -0.2263 -0.5902 -0.4266
 9559W        W26406   8.555   0.882   2.436  0.0395 -0.0441  0.1412
 9560W        W26407  12.789  16.559  14.837 -0.0050 -0.0667 -0.1717
 9561W        W26408   4.438  14.477   2.135 -0.3931 -0.2160 -0.0381
 9562W        W26409  12.081   2.296   2.002 -0.3051  0.3149  0.0943
 9563W        W26410   9.137  14.255   2.685 -0.3320  0.1249 -0.1698
 9564W        W26411  12.428   3.713  11.753  0.1373  0.1953 -0.1415
 9565W        W26412  17.709   6.139   1.405 -0.2628  0.0607 -0.2623
 9566W        W26413  10.803   8.426   1.028  0.0767  0.1281  0.2060
 9567W        W26414   9.401   1.318  12.421  0.1210  0.0892 -0.1285
 9568W        W26415   0.336  15.699   0.216 -0.1921 -0.1399 -0.0951
 9569W        W26416  14.035   1.480   0.545 -0.2170 -0.0493  0.0206
 9570W        W26417  18.267  17.874   1.352  0.0589 -0.0435  0.2066
 9571W        W26418  13.112   3.624  14.680  0.2804 -0.2620  0.0806
 9572W        W26419  10.431   6.697   2.777  0.0664  0.0176 -0.0370
 9573W        W26420   6.417   2.938   0.891  0.1493 -0.1288 -0.0930
 9574W        W26421   7.786   1.571   4.214 -0.1834  0.2417 -0.3293
 9575W        W26422   3.988   2.709  10.803 -0.3055 -0.0206 -0.3921
 9576W        W26423   9.404   4.021  11.624 -0.1967 -0.0556 -0.1047
 9577W        W26424   1.736   4.067   3.110  0.3202 -0.3003  0.0795
 9578W        W26425  12.135  14.999  14.839 -0.2954  0.0716 -0.3199
 9579W        W26426   0.827   7.793  11.975 -0.1041 -0.3557 -0.2496
 9580W        W26427   2.165   7.565   1.102  0.2948  0.3345 -0.1021
 9581W        W26428   6.858  11.848   4.724  0.2817 -0.2807 -0.4188
 9582W        W26429  15.484   0.379   2.485  0.0193  0.0289 -0.3048
 9583W        W26430   5.875   8.913  11.656 -0.0811  0.1833  0.1767
 9584W        W26431   9.767  16.132  13.788  0.2018  0.0347  0.1267
 9585W        W26432   8.731  15.269  15.307  0.0447 -0.1431 -0.1372
 9586W        W26433  13.279  14.857  15.395 -0.0486 -0.0535 -0.3548
 9587W        W26434   2.063   0.935   4.452  0.1154  0.0796  0.0430
 9588W        W26435  15.633   0.307  11.181  0.2893 -0.3719 -0.1629
 9589W        W26436   8.376  10.214  14.399  0.0437  0.1191  0.1921
 9590W        W26437  15.544   9.453  15.036  0.0430  0.1264  0.2163
 9591W        W26438   9.983  11.333  10.799 -0.2711  0.0655  0.1329
 9592W        W26439   1.699  16.426  12.595  0.0757  0.0083  0.0085
 9593W        W26440  11.695   3.450   5.817 -0.0887  0.1796 -0.0436
 9594W        W26441  10.839  11.998  14.216 -0.1083 -0.2979 -0.1557
 9595W        W26442   6.227   8.086   3.690  0.2085  0.1717  0.1414
 9596W        W26443   9.379   1.124   2.986 -0.1613 -0.1886  0.1342
 9597W        W26444  16.202  13.655   5.543  0.0418  0.4762 -0.0186
 9598W        W26445   7.246   8.411   3.817 -0.0405 -0.1369  0.0020
 9599W        W26446   1.068  13.957   3.149  0.0298  0.2638 -0.2737
 9600W        W26447   9.932  15.136   3.089 -0.0406 -0.1316  0.0819
 9601W        W26448   9.310  15.200   0.780 -0.0974 -0.0274  0.1826
 9602W        W26449  15.045  15.440  12.570 -0.3273 -0.0098  0.0255
 9603W        W26450  13.901  15.086  12.736  0.0032  0.0709 -0.0799
 9604W        W26451   8.945  12.300   2.325 -0.0676  0.1034  0.2249
 9605W        W26452   1.422   9.326  12.455 -0.0624  0.1641 -0.1163
 9606W        W26453  17.282   9.432   3.554  0.0564 -0.3377  0.1511
 9607W        W26454  15.486  14.854   3.665 -0.3040  0.1566 -0.0060
 9608W        W26455  13.671  18.596   5.115  0.1779 -0.0984 -0.1498
 9609W        W26456   1.539  13.989   3.331  0.0702 -0.1353 -0.0424
 9610W        W26457   2.636  11.947  13.875 -0.1993  0.1499  0.1465
 9611W        W26458   9.844  17.154  12.084 -0.0982  0.2036 -0.0120
 9612W        W26459   3.980  11.597   2.102  0.1140 -0.1019  0.0383
 9613W        W26460  17.482   8.037   1.355 -0.2211  0.0927  0.4020
 9614W        W26461  13.626   8.782  11.226  0.2959 -0.0116  0.0291
 9615W        W26462   1.618   8.983  14.819  0.0839 -0.1569  0.0387
 9616W        W26463  16.330  12.542  12.237 -0.1074  0.1734  0.2200
 9617W        W26464  13.648   3.192   4.920  0.0482  0.2731  0.2338
 9618W        W26465  10.838  18.495   3.849  0.1303  0.2881  0.0188
 9619W        W26466  13.712  12.369   2.931  0.0274 -0.2618  0.1590
 9620W        W26467   9.587   0.665   1.573  0.2484  0.0825  0.1547
 9621W        W26468  14.963   6.731   0.821 -0.0633  0.0108 -0.2594
 9622W        W26469   2.086   8.372   3.664 -0.1713  0.1860  0.1682
 9623W        W26470  11.727   1.112  13.412 -0.2050 -0.3097 -0.1386
 9624W        W26471  10.092   3.985   5.482 -0.2020 -0.3178 -0.0961
 9625W        W26472   9.202   1.054   4.058 -0.0648  0.0949 -0.0477
 9626W        W26473  12.141  11.311  13.432  0.1553 -0.4204  0.1524
 9627W        W26474  12.183  10.180   5.400 -0.2150 -0.0308  0.2151
 9628W        W26475   5.409   3.390   1.617 -0.0576  0.3116  0.0522
 9629W        W26476  18.596  11.288   4.702 -0.0345 -0.0653  0.0248
 9630W        W26477   8.215  17.450   0.070 -0.0037 -0.0279 -0.1037
 9631W        W26478   1.651  11.810   3.984  0.0053 -0.1111  0.0632
 9632W        W26479  17.330   6.090  11.895  0.1504  0.0025  0.0482
 9633W        W26480   9.524   4.000  12.165 -0.2614  0.0909  0.1099
 9634W        W26481   8.263  17.825   9.858  0.1761 -0.0258 -0.3947
 9635W        W26482   4.329  13.437   1.683  0.1130  0.0850 -0.0300
 9636W        W26483  14.606  12.550   2.511 -0.0149  0.3118  0.2589
 9637W        W26484   4.393   0.775   1.365 -0.0410 -0.0935 -0.1524
 9638W        W26485   2.846   6.910   1.595  0.0533 -0.0750  0.0641
 9639W        W26486   0.175  15.774  12.098  0.0178  0.3593 -0.1645
 9640W        W26487   0.993   4.938   0.491 -0.0847  0.0487 -0.1436
 9641W        W26488   8.104  16.586   2.560  0.5154  0.1946  0.1353
 9642W        W26489  17.552  15.737   5.835 -0.0787 -0.2415 -0.3492
 9643W        W26490   7.655   1.956  12.288  0.0918 -0.2599  0.2472
 9644W        W26491  17.196   6.194   1.685 -0.0412 -0.3110 -0.3414
 9645W        W26492   0.118   2.672   5.346 -0.2553 -0.0172 -0.1859
 9646W        W26493  15.679  13.239  11.950 -0.1647 -0.0377 -0.0841
 9647W        W26494  13.987   5.083   3.942  0.4658 -0.1158 -0.1718
 9648W        W26495   5.277  17.596  14.551 -0.2034 -0.0282  0.1259
 9649W        W26496   1.389  17.018   3.570  0.0977 -0.0096  0.0269
 9650W        W26497   0.823   0.279  12.252  0.1654 -0.1451  0.0053
 9651W        W26498  14.969  15.837   1.661 -0.1064  0.0937  0.0571
 9652W        W26499  15.268  11.572  13.823  0.1961  0.1331 -0.1684
 9653W        W26500  10.529  14.378  10.392  0.0401  0.1039  0.1955
 9654W        W26501  15.457  17.644  12.155 -0.3834 -0.0517  0.2319
 9655W        W26502   3.896   3.261  12.139 -0.2477 -0.0172 -0.0766
 9656W        W26503  14.228  13.816   4.435 -0.1901 -0.1103 -0.1831
 9657W        W26504  16.864  14.364   1.376  0.1385  0.0884 -0.0577
 9658W        W26505   9.928  18.139  13.763  0.1890  0.2935 -0.0852
 9659W        W26506   3.298   7.467   5.208  0.0625  0.0229 -0.2112
 9660W        W26507  10.506  11.189   3.897  0.3090 -0.2289  0.1586
 9661W        W26508  11.712  16.448  13.380  0.0831 -0.0051 -0.0727
 9662W        W26509   1.702  18.162   4.155 -0.0239  0.0098  0.0317
 9663W        W26510   1.580  16.787  10.580 -0.1425 -0.1419  0.1505
 9664W        W26511   5.367   2.539   1.483 -0.0712 -0.0819  0.0452
 9665W        W26512  13.672  14.188  13.478 -0.0583  0.2872 -0.0521
 9666W        W26513   0.867   3.016   4.904  0.0618 -0.1424  0.3380
 9667W        W26514  16.960   5.904   4.348  0.0089  0.3282  0.0039
 9668W        W26515   5.934  13.973   4.287 -0.0594  0.0705  0.0599
 9669W        W26516   9.150  13.629   2.170 -0.2102 -0.0736 -0.0930
 9670W        W26517  16.211  17.364  14.709 -0.1541 -0.0557  0.0207
 9671W        W26518   7.389  18.512  13.152  0.1140 -0.2047 -0.0449
 9672W        W26519  16.767  17.365   1.163 -0.2978 -0.0854  0.1295
 9673W        W26520  14.640  17.782  12.681  0.0843  0.0238 -0.1171
 9674W        W26521  13.946   7.759  14.263  0.2869  0.2846  0.0252
 9675W        W26522   9.163   6.080  15.319 -0.0469  0.2304 -0.0155
 9676W        W26523  14.257   8.648   0.257 -0.0254  0.3623 -0.1102
 9677W        W26524  17.336  11.735  13.083 -0.0083  0.2774  0.0172
 9678W        W26525   9.371  17.637  13.455  0.2548 -0.3069  0.0630
 9679W        W26526   0.973  18.096  14.254 -0.0673 -0.0502 -0.3778
 9680W        W26527   1.341  15.490  13.323 -0.2722 -0.1805  0.2200
 9681W        W26528   0.475   9.647   0.365 -0.0912 -0.0343  0.0049
 9682W        W26529   2.546   9.389   3.683 -0.0825  0.4029  0.2487
 9683W        W26530  13.929  10.368   4.197  0.0199 -0.1792  0.3786
 9684W        W26531   4.444   1.592  13.049  0.1171  0.1990  0.2722
 9685W        W26532   9.129   3.445   2.411 -0.4545 -0.1250 -0.0778
 9686W        W26533  17.029  18.218  10.576  0.1233 -0.1155 -0.0031
 9687W        W26534  16.079   1.920  10.988  0.1573  0.0915  0.2330
 9688W        W26535   2.266  18.386   4.567  0.0270 -0.1120  0.2518
 9689W        W26536   8.428   8.255  15.716  0.1215  0.0930  0.2679
 9690W        W26537   0.151   1.446  12.447  0.3250  0.2062  0.1417
 9691W        W26538  17.862  16.131   1.818  0.1985  0.0814 -0.2264
 9692W        W26539  15.840  14.884   0.779 -0.4665 -0.0496 -0.0430
 9693W        W26540   9.447   5.320   1.584 -0.1415  0.0808 -0.0412
 9694W        W26541  16.547  15.935   2.019  0.3172  0.0195 -0.3519
 9695W        W26542   9.232  10.808  12.606 -0.0441 -0.0386  0.0506
 9696W        W26543  12.529  16.323   2.730  0.0412 -0.1193 -0.1226
 9697W        W26544   2.367  18.491   0.100 -0.1547  0.0832  0.2253
 9698W        W26545   4.546  16.678  11.422 -0.0485  0.2000 -0.1183
 9699W        W26546  11.988  10.407  14.109  0.1949 -0.1005 -0.0196
 9700W        W26547   6.412  10.751  14.940 -0.2829  0.1037 -0.1979
 9701W        W26548   8.026  13.840   3.514  0.1052  0.0045 -0.1243
 9702W        W26549   1.945   6.987   1.787  0.3089 -0.1906  0.1369
 9703W        W26550   3.280   6.207   2.820 -0.1181 -0.2305 -0.0789
 9704W        W26551  13.352   3.406   2.284  0.0827 -0.1058 -0.0122
 9705W        W26552   1.025  13.957   3.625  0.0360 -0.0838 -0.2023
 9706W        W26553   6.547   8.110  15.595 -0.1098 -0.1682 -0.0595
 9707W        W26554  16.503   6.060  11.553 -0.1221 -0.3261  0.2356
 9708W        W26555   8.162   4.689   0.170  0.0433 -0.1046  0.0396
 9709W        W26556  13.051   6.757  14.855  0.1761 -0.1518  0.0215
 9710W        W26557  17.021   5.510  12.236 -0.1180  0.1147  0.1024
 9711W        W26558  16.348   5.032  13.081 -0.4236  0.3845 -0.1715
 9712W        W26559  11.644  18.107   3.749  0.1105 -0.0811  0.3068
 9713W        W26560   7.260  12.994  15.200 -0.1555 -0.0478  0.2388
 9714W        W26561  12.276   4.917  11.796  0.0532  0.2837 -0.3069
 9715W        W26562   2.776  11.043   3.762  0.0279 -0.0559 -0.0579
 9716W        W26563  15.011   6.192   0.854  0.2983  0.0992  0.2461
 9717W        W26564  12.611  13.490   2.952 -0.2396 -0.0292 -0.1750
 9718W        W26565   5.889  17.192   1.687 -0.3721  0.0220 -0.2194
 9719W        W26566   3.174   7.284   0.066 -0.0712 -0.2559 -0.0296
 9720W        W26567  17.487  17.039   3.082 -0.2274  0.1411 -0.1033
 9721W        W26568  17.598   0.252   5.648  0.0845 -0.0348 -0.0814
 9722W        W26569  15.540   9.490  12.756 -0.0644 -0.0917 -0.3039
 9723W        W26570   1.342  17.691  13.895  0.1017 -0.0011  0.0135
 9724W        W26571  17.845  11.311  15.564 -0.0303  0.0059  0.0092
 9725W        W26572  13.811   6.187   0.068  0.1739  0.0760  0.0860
 9726W        W26573   0.971  12.173  13.081  0.4428  0.3762  0.0439
 9727W        W26574  18.093  18.277  12.464 -0.0797 -0.0395 -0.3136
 9728W        W26575   6.838  10.062   1.158  0.1337 -0.1426 -0.2199
 9729W        W26576   1.518   8.425   3.779  0.2931 -0.0794 -0.1221
 9730W        W26577   3.731  15.973   1.408 -0.1842  0.0823  0.1356
 9731W        W26578  12.952  15.230   4.254 -0.0683  0.0578 -0.0904
 9732W        W26579   4.362  15.968  13.576 -0.1123  0.1102  0.4252
 9733W        W26580   6.872  14.827   1.352 -0.1244  0.0546  0.0812
 9734W        W26581  13.659   3.025  13.938  0.2441 -0.2143 -0.2159
 9735W        W26582   8.449   0.676  11.108 -0.2254  0.0840  0.1759
 9736W        W26583  18.317  13.724   3.553 -0.2042 -0.2353 -0.0288
 9737W        W26584  12.640  14.738  11.837  0.1431 -0.3779  0.0313
 9738W        W26585  10.775  18.400   2.814  0.2549  0.0192 -0.1620
 9739W        W26586  14.262  12.174   5.609 -0.1119 -0.0676 -0.1876
 9740W        W26587   2.965  14.685   1.685  0.1363  0.1008  0.2501
 9741W        W26588  17.372  10.161  14.509 -0.2815  0.0947 -0.1629
 9742W        W26589  16.043   4.632   0.054  0.1568  0.0941 -0.0167
 9743W        W26590   3.022   9.600   3.612 -0.1343  0.0890 -0.1027
 9744W        W26591  10.801   2.611  12.443 -0.0646 -0.1709 -0.1353
 9745W        W26592  17.010   8.448   3.237 -0.0012 -0.0980  0.2749
 9746W        W26593  16.482   4.172   1.157  0.1779  0.2899  0.2377
 9747W        W26594  10.705   2.126  11.845 -0.0815 -0.0400  0.0499
 9748W        W26595   8.999  16.962   3.897 -0.1308  0.1629 -0.0770
 9749W        W26596   8.524   9.589   4.946  0.2455  0.4810 -0.1491
 9750W        W26597  18.384   0.745  11.467 -0.1939  0.1187  0.0366
 9751W        W26598   3.504  16.091  13.157 -0.0649  0.1578  0.0314
 9752W        W26599   0.072  17.837  13.203  0.1963  0.0873  0.0961
 9753W        W26600   0.418   4.443  14.885  0.0479 -0.2196  0.0356
 9754W        W26601   5.206  16.734   0.590 -0.2057  0.0457  0.0484
 9755W        W26602   6.708   9.425  15.264 -0.0309 -0.3640  0.3601
 9756W        W26603   9.590  15.210   1.238 -0.0881 -0.0121  0.0314
 9757W        W26604   0.065   4.414  11.368  0.2137 -0.1167 -0.0010
 9758W        W26605  10.082   8.366  15.022  0.0719  0.1520  0.0233
 9759W        W26606   7.456  14.419   4.192 -0.1114  0.3657  0.3653
 9760W        W26607   5.561  14.876   4.506 -0.0422  0.1683  0.2955
 9761W        W26608   2.195   4.350   4.479 -0.3351 -0.0893  0.2111
 9762W        W26609  10.487   9.107   4.024  0.1941  0.0717 -0.0167
 9763W        W26610  13.641  14.665   3.018  0.1062 -0.2412 -0.1418
 9764W        W26611   0.114   9.101   1.701  0.1410 -0.0396  0.2240
 9765W        W26612   0.895   2.773  11.176 -0.1705 -0.0836 -0.0920
 9766W        W26613   7.464   8.280  15.348 -0.1558 -0.0199  0.1008
 9767W        W26614   6.081  11.688   5.618  0.2329 -0.0486 -0.0778
 9768W        W26615   6.467  14.441  10.668 -0.1285  0.0608 -0.0694
 9769W        W26616   7.106  13.625  13.900 -0.0253 -0.0719 -0.0008
 9770W        W26617   8.305   6.299   0.882 -0.2074 -0.1107  0.0741
 9771W        W26618   1.090   7.644   1.375 -0.1168 -0.1887 -0.0609
 9772W        W26619  18.644   1.799   2.255 -0.2759 -0.0943 -0.1553
 9773W        W26620   2.188  17.300   0.400  0.2614  0.1939  0.1557
 9774W        W26621  10.719   1.554  13.300  0.3191 -0.2637 -0.0030
 9775W        W26622  10.733  18.519   0.453 -0.3940 -0.1769 -0.0883
 9776W        W26623   5.456   0.756  13.437  0.1887  0.0466  0.1845
 9777W        W26624  15.034   7.807   3.156  0.1690 -0.4068  0.1712
 9778W        W26625  10.122   8.739   2.119  0.2661  0.2311 -0.0579
 9779W        W26626  12.958   1.855   3.853 -0.0905 -0.0522 -0.2541
 9780W        W26627  13.228  14.073   0.565 -0.1791  0.0395  0.3170
 9781W        W26628  12.114   5.371   4.113 -0.1060 -0.0896  0.1096
 9782W        W26629  13.263  12.701   1.604 -0.0122  0.0855  0.0556
 9783W        W26630  14.993   6.629  14.053  0.1280  0.1167  0.3368
 9784W        W26631   1.670   0.108   4.040  0.1463 -0.1442  0.1578
 9785W        W26632   5.499   9.442  10.832  0.0257  0.1393  0.3017
 9786W        W26633   5.847   1.569  14.389  0.1995 -0.0012 -0.1587
 9787W        W26634   4.497  17.619  12.083 -0.2788 -0.0110  0.1950
 9788W        W26635   7.005   2.834  14.106 -0.1145 -0.0339  0.0314
 9789W        W26636  10.947   1.765   0.379  0.0683  0.1244 -0.0634
 9790W        W26637  16.757   5.356   6.284  0.0072 -0.2443 -0.0105
 9791W        W26638  14.251   4.369   2.712  0.1400  0.1552 -0.1727
 9792W        W26639   3.805  12.772   4.422 -0.0145 -0.0178  0.0426
 9793W        W26640   5.957   5.640  12.656  0.1725 -0.2751  0.2091
 9794W        W26641   3.659   4.039   3.805  0.3836 -0.0819  0.0518
 9795W        W26642  17.279   3.767   6.059 -0.2362  0.0150  0.2232
 9796W        W26643  10.555   4.545   5.109  0.4831  0.1986 -0.1844
 9797W        W26644  16.371   2.079  14.003 -0.0330 -0.0620 -0.2245
 9798W        W26645   7.323  11.182   3.876  0.0546 -0.0847 -0.0360
 9799W        W26646   9.148  14.238  12.874  0.3253 -0.0198  0.0766
 9800W        W26647   3.558  12.713   2.737  0.3608  0.2520  0.0489
 9801W        W26648   2.266  11.272   1.617  0.2987  0.2494 -0.1502
 9802W        W26649   7.660   8.734   2.583  0.1960 -0.3133  0.0750
 9803W        W26650  17.948   7.244   0.708 -0.0592 -0.1552  0.0743
 9804W        W26651  15.530  15.668   1.020 -0.0631  0.1197 -0.2148
 9805W        W26652   4.950   7.807  15.271  0.0090 -0.0238  0.1995
 9806W        W26653   4.508   3.197   4.656  0.1789 -0.0117  0.0011
 9807W        W26654  11.151   3.881  14.625 -0.2977  0.0488 -0.0993
 9808W        W26655   8.165   3.441   2.195 -0.2485 -0.4115  0.1373
 9809W        W26656  16.501  10.111   1.325 -0.1710  0.1574  0.3772
 9810W        W26657  17.823   6.204   2.818  0.0049  0.2801 -0.2478
 9811W        W26658  11.906  16.296   4.351  0.1849 -0.0744 -0.0400
 9812W        W26659  15.739   8.003  13.230  0.1209 -0.3005  0.0784
 9813W        W26660   2.416   9.030   4.077  0.0227  0.1173 -0.1949
 9814W        W26661  16.637  16.801   2.552  0.0551 -0.1677 -0.3332
 9815W        W26662   5.696   3.636   4.566  0.0811  0.0649 -0.1071
 9816W        W26663  10.446  11.786  14.299  0.3247 -0.0438  0.2325
 9817W        W26664   0.209   1.035   0.228 -0.1260 -0.1630 -0.3521
 9818W        W26665   7.018   0.750  14.994  0.2607  0.1199 -0.2549
 9819W        W26666  16.994   4.233   1.170  0.0163 -0.4151 -0.1091
 9820W        W26667   1.091   6.316   3.473  0.1877  0.0540  0.0715
 9821W        W26668   1.197  12.443  12.685 -0.1559 -0.0862  0.2703
 9822W        W26669  11.096  17.368  13.484  0.1279  0.0980 -0.0909
 9823W        W26670   1.639   9.066  15.312  0.3327  0.1673 -0.1673
 9824W        W26671  11.443  16.988  11.029  0.0285  0.2190 -0.1838
 9825W        W26672   3.818   1.467  11.225 -0.1758  0.0833  0.3711
 9826W        W26673   0.253  18.320  13.301 -0.0826 -0.0204 -0.3119
 9827W        W26674  15.212   6.649  14.531 -0.1655 -0.4568 -0.1123
 9828W        W26675  13.999   1.862  15.462  0.2953  0.2532 -0.2669
 9829W        W26676  11.844  12.349   1.253 -0.0293 -0.2693 -0.3084
 9830W        W26677   3.582   7.799   4.972 -0.0468  0.1135  0.4106
 9831W        W26678   5.780   8.204   2.515  0.1885 -0.0651  0.1182
 9832W        W26679   4.424   4.014  14.816 -0.2008 -0.0573  0.2089
 9833W        W26680   0.733   1.322  11.936  0.0878 -0.1768 -0.1614
 9834W        W26681  18.768  16.034  12.496 -0.1253 -0.4198 -0.2330
 9835W        W26682  11.732   8.065   5.948  0.1094  0.0799 -0.0605
 9836W        W26683   0.569   6.122   4.714  0.1467  0.0426 -0.1554
 9837W        W26684   9.942   0.613  11.991 -0.1301  0.2202 -0.0181
 9838W        W26685   6.599   3.557  14.531  0.0803  0.0532  0.0178
 9839W        W26686   6.745   7.552   1.921 -0.0075 -0.0405  0.0661
 9840W        W26687   1.618   6.571   3.018  0.0122  0.0185 -0.1204
 9841W        W26688   3.893   6.463  14.168 -0.1282  0.2226 -0.0086
 9842W        W26689   4.090   7.341   4.076 -0.1932 -0.0764  0.0849
 9843W        W26690  16.796  13.367  13.818  0.2319 -0.0410 -0.1300
 9844W        W26691   1.445   2.533  13.291 -0.1848 -0.0909  0.0153
 9845W        W26692   9.632   2.104   3.540 -0.4126  0.2581 -0.0171
 9846W        W26693  14.293   2.062   3.777 -0.3694 -0.2872 -0.0933
 9847W        W26694  11.747   9.506  10.986  0.1200  0.1757  0.0086
 9848W        W26695  10.387   1.565   2.752 -0.1539  0.0471 -0.0029
 9849W        W26696  13.128  13.805  13.828 -0.0665  0.0178 -0.0032
 9850W        W26697   4.594   0.493  13.578 -0.0005  0.2696  0.2215
 9851W        W26698  14.799  10.120  11.803  0.1670  0.1060 -0.1654
 9852W        W26699  12.250  10.197   2.057 -0.0641  0.2851 -0.2404
 9853W        W26700   9.951   9.123   0.571  0.3592 -0.0338  0.0888
 9854W        W26701  13.469  11.024  12.991 -0.0558  0.2976  0.1322
 9855W        W26702   5.686  14.885   0.048 -0.2093  0.1461  0.1106
 9856W        W26703   1.443  15.841  12.677 -0.2375  0.0139 -0.0380
 9857W        W26704   3.589   4.476  12.342 -0.2144 -0.0211 -0.1981
 9858W        W26705  12.917   3.641  15.247  0.3001 -0.3678  0.0996
 9859W        W26706  18.125   4.487   4.566  0.0164 -0.1212 -0.0460
 9860W        W26707   9.890   9.069   3.438  0.2069  0.1031 -0.3166
 9861W        W26708  12.824   6.014  13.091  0.0286 -0.0082 -0.3775
 9862W        W26709   0.258  16.285  12.217  0.0889 -0.0822  0.0710
 9863W        W26710  18.268  15.704   2.007  0.3795  0.1956 -0.0676
 9864W        W26711   3.299  15.705  11.029  0.1914  0.0642 -0.3193
 9865W        W26712  14.659   6.206   4.006 -0.3069 -0.1161 -0.0273
 9866W        W26713   6.852   5.786  11.285 -0.1974  0.0454  0.1753
 9867W        W26714   9.438  14.646  15.237 -0.0623 -0.1858  0.1225
 9868W        W26715  18.389  15.255   0.240  0.0327 -0.3199  0.0498
 9869W        W26716  14.636   5.495   6.237 -0.0995 -0.1145 -0.1171
 9870W        W26717   2.106   3.627   5.046  0.0388 -0.1961  0.1190
 9871W        W26718  14.297  10.430   0.743  0.0781 -0.2436  0.2644
 9872W        W26719   9.509  18.440  13.717 -0.0951 -0.0737 -0.1238
 9873W        W26720  17.486   7.810  11.644 -0.0467 -0.3902  0.0773
 9874W        W26721   2.165   3.669   3.272  0.1987  0.0634  0.0655
 9875W        W26722  12.286   0.359  13.335 -0.2194  0.2391  0.1512
 9876W        W26723   0.947  12.527  13.866  0.0682  0.2222  0.0358
 9877W        W26724  16.584  18.541   0.673  0.0093 -0.0814  0.0374
 9878W        W26725  15.517  11.330   3.602 -0.0098  0.1843 -0.2061
 9879W        W26726   7.504  13.132  13.309  0.0193  0.3351 -0.0354
 9880W        W26727   7.992   0.138  11.600 -0.2248  0.1956 -0.0068
 9881W        W26728  14.060   0.970   0.494 -0.3227  0.5554 -0.3176
 9882W        W26729  18.189  18.164  14.610  0.1618 -0.1054 -0.0581
 9883W        W26730   3.345  12.831   0.648  0.0254 -0.1427  0.4238
 9884W        W26731   9.596   8.751   5.103 -0.1537  0.4459 -0.1101
 9885W        W26732  13.896   8.037  11.033 -0.1690 -0.0045  0.3887
 9886W        W26733  15.643  10.537  12.956 -0.2423  0.0760 -0.2537
 9887W        W26734  18.630  15.241   4.884 -0.0032 -0.1844 -0.2241
 9888W        W26735   7.077   2.731  10.125 -0.0668 -0.3480  0.3801
 9889W        W26736  12.438  13.174  15.567  0.0687 -0.0990 -0.0819
 9890W        W26737   9.941   3.921   5.020  0.0466  0.1080  0.3594
 9891W        W26738  15.849  17.596  14.058 -0.0324 -0.0293 -0.1920
 9892W        W26739  12.456   9.048  10.697  0.0746 -0.3114  0.2968
 9893W        W26740   7.084   7.962  11.340 -0.1179 -0.3068  0.1077
 9894W        W26741  16.225  12.666   0.659 -0.1045  0.1300 -0.0870
 9895W        W26742  13.857   1.698  11.875 -0.0585  0.0682 -0.4850
 9896W        W26743   4.051   8.392  13.575  0.1971  0.0980 -0.2713
 9897W        W26744   4.560  10.202  11.908  0.0348 -0.2351 -0.0897
 9898W        W26745  17.760   7.046   3.204  0.1276  0.2501  0.2800
 9899W        W26746  11.783   4.278  15.250 -0.1309 -0.1452  0.0331
 9900W        W26747  13.569  14.132  12.863 -0.1915 -0.2848  0.0659
 9901W        W26748   5.555  13.461  11.009  0.0898 -0.0269 -0.0554
 9902W        W26749  13.843   4.559   2.473  0.0180  0.2850  0.1916
 9903W        W26750   9.482   1.948  13.234  0.3626  0.2258 -0.1101
 9904W        W26751  11.168   8.341   3.634  0.0092  0.1817 -0.0754
 9905W        W26752  10.396   0.256  14.611  0.2298  0.0276 -0.2331
 9906W        W26753   7.032  15.605  14.351  0.1562  0.1277  0.1175
 9907W        W26754   8.114   0.966  14.637  0.1193  0.0869 -0.0287
 9908W        W26755  14.407  11.057  15.138  0.1936 -0.0553  0.2547
 9909W        W26756   8.405   2.439  14.134  0.1025 -0.3748  0.0834
 9910W        W26757   4.140  11.038   1.293 -0.0691  0.1217  0.4380
 9911W        W26758  10.363   9.614  10.930 -0.2998  0.2420  0.3288
 9912W        W26759   7.895   2.122   1.749  0.1043 -0.0131 -0.0675
 9913W        W26760   1.671   2.219  15.242 -0.0187  0.0124 -0.2153
 9914W        W26761   5.195  11.266  12.251 -0.1739 -0.3245  0.3103
 9915W        W26762   9.811  18.795   4.551  0.1356 -0.0971  0.0917
 9916W        W26763  15.902  15.174   2.238 -0.0759 -0.0861 -0.1274
 9917W        W26764  13.017  12.437   3.077  0.0425  0.3173  0.1659
 9918W        W26765   0.494  14.255   2.261 -0.3732  0.3193 -0.1029
 9919W        W26766   2.788   0.381   0.765  0.5979 -0.2866 -0.2582
 9920W        W26767  18.438   4.643   1.393  0.0198 -0.1515 -0.2939
 9921W        W26768   4.748   3.246  11.244  0.1557 -0.1609  0.2900
 9922W        W26769   3.051  13.272   0.530  0.4909 -0.1528 -0.0216
 9923W        W26770  11.937  17.166   1.159  0.1092 -0.0124 -0.1185
 9924W        W26771   8.657  15.948  13.101 -0.0427  0.1185 -0.2104
 9925W        W26772  11.300   4.859   0.150 -0.1436 -0.0353 -0.1089
 9926W        W26773  12.100   0.993   2.329 -0.2028  0.2281 -0.0543
 9927W        W26774   3.616   7.950  14.889 -0.0189  0.1951 -0.0297
 9928W        W26775   7.196   4.460  11.485  0.2235 -0.2541  0.1706
 9929W        W26776   6.136  12.394  13.380  0.0513 -0.0848 -0.0503
 9930W        W26777  17.301   7.908   4.054  0.0853  0.1136  0.2242
 9931W        W26778   2.838  15.937   0.357 -0.1995  0.3027  0.0886
 9932W        W26779   5.370   4.925   0.574  0.0782  0.2078  0.1309
 9933W        W26780  17.030  16.832   2.184  0.0029 -0.3600 -0.1423
 9934W        W26781   3.849   4.750   0.347 -0.2140  0.3272 -0.0953
 9935W        W26782  18.626  16.670   4.011  0.2556  0.0027  0.0321
 9936W        W26783  15.841   3.268   4.637 -0.0167 -0.1287  0.3395
 9937W        W26784  12.629   7.662  14.499  0.1318 -0.1715 -0.0889
 9938W        W26785  15.956  16.472   4.716 -0.1423 -0.1285  0.2068
 9939W        W26786  16.999   4.613   5.744  0.0119  0.2628 -0.1327
 9940W        W26787   5.134  10.191   5.209  0.2365  0.0674  0.0847
 9941W        W26788   0.815   4.221   4.276  0.1112 -0.2377  0.3330
 9942W        W26789   8.641  12.884   1.773  0.1444 -0.5139  0.2102
 9943W        W26790   7.671  17.339   1.946  0.4280  0.1257 -0.0936
 9944W        W26791   4.117   6.102  13.267  0.0962 -0.2673  0.0498
 9945W        W26792   2.654   6.606   2.792  0.2214 -0.3229  0.0023
 9946W        W26793   9.079  10.078  14.286 -0.2275  0.0046 -0.0384
 9947W        W26794   9.954   8.125  14.122 -0.0501 -0.1607 -0.0237
 9948W        W26795   2.875  12.830   4.437  0.2025  0.0010 -0.0303
 9949W        W26796  13.396  11.258   3.828  0.2285 -0.2799  0.2276
 9950W        W26797   3.326  16.649  10.884  0.0526  0.0273 -0.1325
 9951W        W26798   3.971  16.897   1.713 -0.0148  0.0119 -0.1458
 9952W        W26799   8.796  18.643  13.091 -0.0818 -0.1991  0.0832
 9953W        W26800   1.902  14.473  13.462  0.0713  0.0763  0.0871
 9954W        W26801   1.465  12.426  15.336 -0.2026 -0.3145  0.4675
 9955W        W26802   4.535  12.431  12.063  0.1932  0.0199 -0.0902
 9956W        W26803  14.397   7.459   1.881  0.1323 -0.1644 -0.1286
 9957W        W26804   9.064  10.600   3.711  0.1644  0.2070  0.0090
 9958W        W26805  17.088   9.137   4.805  0.0089 -0.0646  0.2967
 9959W        W26806   4.759  15.036  12.468  0.0023  0.0980 -0.0725
 9960W        W26807   0.348  18.617  12.755  0.0943  0.0817  0.1473
 9961W        W26808   4.978   4.772  14.917 -0.1156  0.3301  0.0239
 9962W        W26809   7.392   3.561   3.962  0.3420 -0.0114 -0.1548
 9963W        W26810   9.334  15.359  12.876  0.0126 -0.0368 -0.1046
 9964W        W26811   1.634   2.896  15.206 -0.2529 -0.1622 -0.3814
 9965W        W26812   7.700   7.956   3.869  0.0412 -0.2829 -0.0255
 9966W        W26813   0.667  16.803  14.638  0.1809 -0.0708  0.0272
 9967W        W26814   6.430  17.158  15.186 -0.2408  0.2714 -0.4105
 9968W        W26815   5.924   4.608  15.459  0.1254 -0.0501 -0.0882
 9969W        W26816   5.115   4.757   5.335  0.1138  0.0685  0.0392
 9970W        W26817   8.611   9.877   0.009  0.1638  0.2242  0.1864
 9971W        W26818   9.713   5.327  12.111  0.0803 -0.1742 -0.1259
 9972W        W26819   9.195  13.088   5.245 -0.1701 -0.0873 -0.0181
 9973W        W26820   2.680  17.034   0.112 -0.0939 -0.2770  0.2181
 9974W        W26821   9.393   5.794  12.053  0.2185  0.0601 -0.0758
 9975W        W26822   7.911   7.398   2.695  0.1802  0.1653  0.1254
 9976W        W26823  17.928  11.791   1.249 -0.2293  0.0531 -0.1036
 9977W        W26824  10.323   0.450  11.591 -0.1415 -0.0597  0.2695
 9978W        W26825  18.490   3.265   5.202 -0.2731  0.1259 -0.1420
 9979W        W26826  15.995   1.599  11.755  0.0219  0.1175  0.1307
 9980W        W26827   1.779   2.147   4.232 -0.0327 -0.1673  0.1322
 9981W        W26828  12.618   3.977  12.567  0.0384  0.1556  0.2499
 9982W        W26829   9.906   0.622  13.848  0.4235 -0.1521 -0.1227
 9983W        W26830   5.790   0.570  12.994  0.0532 -0.0661  0.2774
 9984W        W26831  16.671   7.247   0.190  0.2732 -0.0193  0.2428
 9985W        W26832   3.037  10.777   1.737  0.0934  0.0070 -0.0667
 9986W        W26833  14.221  13.605   3.996  0.4015  0.0361  0.1823
 9987W        W26834  17.812   4.137   4.701 -0.1037 -0.3928 -0.0483
 9988W        W26835  15.886   5.837  12.992 -0.0367  0.0907 -0.1232
 9989W        W26836  10.797   5.531  14.316 -0.1852 -0.0443  0.2449
 9990W        W26837   8.689   3.973  15.480  0.0245  0.1384 -0.3351
 9991W        W26838   8.731  12.524  13.044  0.1852 -0.1432 -0.0025
 9992W        W26839   8.080  12.987  13.911 -0.1742 -0.0013  0.1341
 9993W        W26840  16.492   6.128  10.249 -0.1248  0.0530 -0.0936
 9994W        W26841   1.373   7.666   3.115 -0.0695 -0.1082  0.0774
 9995W        W26842   7.608  17.650  15.219 -0.4379 -0.1472  0.2958
 9996W        W26843  15.457   1.862  14.135  0.0206 -0.1913  0.3297
 9997W        W26844  17.052   6.218   5.255  0.2386 -0.2283  0.2171
 9998W        W26845   0.385   7.193   1.310  0.0178  0.0240  0.0087
 9999W        W26846  16.171   5.994  12.023  0.0999 -0.1919  0.1577
10000W        W26847   4.032   3.194  11.022  0.0815  0.1413  0.1251
10001W        W26848  14.959   2.342  15.711  0.5531 -0.1120  0.3949
10002W        W26849   7.809   9.781  15.463  0.2011  0.0354  0.1180
10003W        W26850  14.756  13.735  12.389 -0.2153  0.2150 -0.1974
10004W        W26851   7.043   5.380  12.553  0.0690 -0.0969 -0.1686
10005W        W26852   2.918   8.635  15.432  0.0621  0.2209 -0.2015
10006W        W26853  11.245  14.671  12.980  0.0946  0.0409 -0.0739
10007W        W26854   9.983   2.166   2.098  0.0085 -0.1295  0.0035
10008W        W26855   9.954  12.489  15.666  0.0274  0.0492  0.2092
10009W        W26856   2.713  13.114   1.356  0.4502 -0.0598  0.0349
10010W        W26857   8.657  11.696   5.897 -0.1147  0.2213  0.2927
10011W        W26858  10.233   6.681   4.362 -0.1765 -0.1842 -0.0452
10012W        W26859  12.664  11.554  12.829 -0.2481 -0.0672 -0.0719
10013W        W26860  13.261  15.841   0.091 -0.4257 -0.0743 -0.2004
10014W        W26861  15.065   2.154   6.018 -0.1804  0.3981 -0.0122
10015W        W26862  16.950   8.788   3.933 -0.0986 -0.0877  0.3020
10016W        W26863   9.111  11.854  10.345 -0.0219  0.2365 -0.0430
10017W        W26864  12.657   0.328   2.570  0.1212 -0.1776 -0.1418
10018W        W26865  10.201  13.531   2.716  0.1357 -0.2075 -0.1274
10019W        W26866   0.561  17.569  11.332  0.0386  0.4339 -0.0741
10020W        W26867  12.963  15.786   3.523  0.0694  0.0188  0.0379
10021W        W26868   5.381  14.805   2.725  0.0322 -0.2917  0.3681
10022W        W26869   3.003  11.195  11.908  0.1411  0.4036 -0.2324
10023W        W26870   3.177   8.051  14.664 -0.0101  0.3315  0.1709
10024W        W26871  12.337   6.508  15.495 -0.0870 -0.2372 -0.1367
10025W        W26872  15.263   3.455   0.743 -0.0797 -0.2238 -0.3156
10026W        W26873   8.006   3.494   1.436  0.1098  0.0696 -0.1511
10027W        W26874   0.516   1.824   4.132 -0.0012 -0.0291  0.3862
10028W        W26875   6.755  14.094  13.896 -0.1008  0.2535  0.0716
10029W        W26876  12.109  13.532  12.279  0.0593  0.0752  0.0387
10030W        W26877  10.792  17.770  13.347  0.1082 -0.1043  0.1052
10031W        W26878  12.757   9.856   3.243  0.1512 -0.3506 -0.0056
10032W        W26879   4.377   8.999  11.932  0.0712 -0.0211 -0.0974
10033W        W26880   0.037  13.879  14.637  0.2782 -0.1893 -0.2184
10034W        W26881   4.778   8.624  14.648 -0.2626 -0.2155 -0.1100
10035W        W26882   8.468  17.818  13.696  0.0792  0.0581 -0.3310
10036W        W26883   9.646  18.153  12.475  0.2349 -0.1366 -0.1136
10037W        W26884  14.043   2.110   0.178 -0.1201  0.0294 -0.4358
10038W        W26885  15.852  13.209   4.278 -0.0555  0.0192  0.1120
10039W        W26886  15.791   8.245  12.795 -0.0781 -0.1936 -0.0798
10040W        W26887   3.457   1.761   3.906  0.1244  0.1034  0.4543
10041W        W26888  11.461   5.137  14.735  0.2820  0.1006 -0.1610
10042W        W26889  17.141   7.388   4.240  0.0265  0.1569 -0.2365
10043W        W26890   7.135   1.966  12.253 -0.1947  0.1165  0.4150
10044W        W26891   8.279  14.708   1.801 -0.1281  0.0101  0.0498
10045W        W26892  16.289   3.786  12.833 -0.1137 -0.3158 -0.1584
10046W        W26893   4.157  15.168  13.871  0.0204  0.1385 -0.0378
10047W        W26894   3.597  10.220  15.160  0.0871  0.0908 -0.2137
10048W        W26895  14.049  13.783  14.037 -0.0512 -0.1532 -0.0292
10049W        W26896   5.535  17.645  14.047  0.0121  0.3302  0.2865
10050W        W26897  17.657   0.066  15.078 -0.0924 -0.1221 -0.1033
10051W        W26898  15.073   9.180  13.912  0.4423 -0.3364  0.4849
10052W        W26899  12.843   3.321   2.347  0.0140 -0.0517 -0.0717
10053W        W26900   0.197  16.108  13.483  0.1896  0.1367  0.0977
10054W        W26901  13.281   6.306   0.027 -0.1448 -0.3622  0.2464
10055W        W26902  14.203  14.699   1.597 -0.1224 -0.1680 -0.2213
10056W        W26903   1.859   6.080  13.743  0.3403 -0.0241 -0.0833
10057W        W26904   4.798  11.357   5.104  0.0314 -0.2299  0.0564
10058W        W26905  11.750   1.597  13.625 -0.2533 -0.1506  0.3258
10059W        W26906  11.072  16.510   1.505  0.2221  0.2963 -0.0544
10060W        W26907   0.695   2.131   2.567 -0.2498 -0.1639  0.4034
10061W        W26908   6.098  10.760   2.484 -0.1227 -0.1171 -0.0288
10062W        W26909  13.084  12.042   1.462 -0.2503 -0.3939  0.1074
10063W        W26910  13.267  16.381   2.068 -0.1290  0.3677 -0.0086
10064W        W26911  12.778  13.464   0.020  0.2159  0.3234 -0.1778
10065W        W26912  16.500   6.856  12.196  0.1107  0.1394 -0.0379
10066W        W26913  15.180  17.317  11.032  0.0370 -0.1523  0.4379
10067W        W26914  16.269  11.051   1.465 -0.3086  0.0115 -0.0722
10068W        W26915  14.919   6.580  15.277  0.0286 -0.0684 -0.4860
10069W        W26916   7.118  16.439  12.466 -0.1280 -0.0007 -0.1887
10070W        W26917   4.253  16.639  10.953  0.0274 -0.0324 -0.1191
10071W        W26918   3.513   9.439  14.745  0.2649 -0.0484 -0.0015
10072W        W26919  10.755   6.425   4.171 -0.1454  0.0452 -0.1115
10073W        W26920   7.872   4.965   4.286  0.0264 -0.0793  0.1233
10074W        W26921   5.838  17.948  10.584 -0.0291  0.0427 -0.1516
10075W        W26922   9.602   0.893  12.152  0.2670 -0.4247  0.1779
10076W        W26923  16.563   9.991  11.294  0.0075  0.1703 -0.2701
10077W        W26924  16.911   8.639   0.898  0.0341 -0.4346  0.0226
10078W        W26925   3.847   1.472   0.070  0.0376 -0.0469 -0.2869
10079W        W26926   4.208   1.155  14.540 -0.0303 -0.1190 -0.3358
10080W        W26927   8.802   3.958   0.310 -0.0658 -0.1820  0.3295
10081W        W26928  10.470  17.240   3.620  0.0588  0.1187  0.1871
10082W        W26929  12.048  13.721   2.728 -0.0468 -0.0218 -0.1444
10083W        W26930  10.001   7.575  11.579  0.1053 -0.2257 -0.2815
10084W        W26931  17.182   7.426  13.800  0.1692 -0.0347  0.2132
10085W        W26932   0.636   2.615   1.810  0.1387  0.6376  0.1345
10086W        W26933   3.161   4.203  12.453 -0.0555  0.1023  0.1031
10087W        W26934   9.784  10.900   2.939 -0.2236 -0.0538 -0.1105
10088W        W26935   1.537  16.331  13.718  0.0808 -0.0527  0.2233
10089W        W26936  11.305  18.494  12.233  0.3213  0.0045 -0.0919
10090W        W26937  16.405   1.923  13.534  0.0735  0.2160  0.1499
10091W        W26938   5.768   4.203  15.776 -0.0731  0.4957  0.2325
10092W        W26939  12.402   1.084   2.930 -0.1195 -0.0285 -0.2780
10093W        W26940   0.757  14.774  14.252 -0.1907  0.2331  0.0637
10094W        W26941   3.879  12.443   2.499 -0.2055  0.1037  0.0742
10095W        W26942   4.996  12.300   3.610 -0.0173  0.0670 -0.0108
10096W        W26943   5.584   0.174  15.380  0.0808  0.4013 -0.0168
10097W        W26944  17.982  16.874  12.115 -0.1607 -0.1878 -0.0425
10098W        W26945   6.983   7.150  12.903  0.1894 -0.1256 -0.2071
10099W        W26946  18.381  10.114   3.350 -0.1017 -0.0636  0.2533
10100W        W26947  11.467   9.068  11.075  0.0783 -0.0399 -0.0588
10101W        W26948   3.292   3.717   1.514  0.1553  0.1055  0.0594
10102W        W26949   9.962  13.761   4.815  0.0770 -0.0019 -0.0481
10103W        W26950  10.086   1.674  12.219  0.0653  0.1998 -0.1385
10104W        W26951   1.124   3.454   4.078  0.3547 -0.0183 -0.0391
10105W        W26952  16.796  12.556  12.745 -0.1486  0.0621 -0.2201
10106W        W26953  10.904   4.917   4.320  0.0869 -0.1576  0.0139
10107W        W26954  11.911   7.357  12.145 -0.1098 -0.0101  0.1214
10108W        W26955  18.308  13.756  14.247  0.0541 -0.0469 -0.2946
10109W        W26956   3.524  17.635  10.989 -0.2345  0.0548  0.3794
10110W        W26957   2.248  15.042   3.762  0.1184  0.0760 -0.3739
10111W        W26958  12.037  17.633   2.346 -0.3271  0.1868 -0.0204
10112W        W26959   0.497  16.485   0.635 -0.0023 -0.1906  0.1242
10113W        W26960   3.322  17.857   1.598  0.0731  0.1577  0.0393
10114W        W26961   1.425   6.844  14.032 -0.0022  0.1290 -0.1715
10115W        W26962  15.641   9.901   0.274  0.0137  0.2560  0.4426
10116W        W26963   4.781  12.052  10.861  0.0597  0.1081  0.1481
10117W        W26964  13.721  12.026  15.300 -0.1144 -0.3254  0.0756
10118W        W26965   1.685   6.972   3.435 -0.0208 -0.4207  0.0814
10119W        W26966  15.977   6.531  15.137 -0.1479  0.1339  0.0276
10120W        W26967   9.249  11.404   4.161  0.4338  0.0823  0.2867
10121W        W26968   7.745  13.787   1.573  0.0960 -0.3054 -0.0685
10122W        W26969   4.658  16.319  11.065 -0.2182  0.0922  0.3498
10123W        W26970  14.753  18.770   3.405  0.1039 -0.0521 -0.2409
10124W        W26971  13.589   7.327   2.742  0.1654  0.0515 -0.2023
10125W        W26972   4.512  14.117   3.492 -0.0579 -0.2174  0.1563
10126W        W26973  18.790  14.070  10.075 -0.2684 -0.1387 -0.2693
10127W        W26974   9.556  12.732   2.475 -0.1436  0.1225 -0.2276
10128W        W26975   5.534  10.818   4.714  0.1674 -0.0068  0.0953
10129W        W26976  15.024   5.740   2.723 -0.3971  0.2960  0.0514
10130W        W26977  18.829   4.889   4.629 -0.0501 -0.0314 -0.0239
10131W        W26978   8.025   8.074   3.468  0.0066 -0.0661 -0.2496
10132W        W26979  10.216  17.257  14.563 -0.1887  0.1539  0.2444
10133W        W26980   0.511   0.224  12.675 -0.2898  0.1469  0.1363
10134W        W26981  17.132   6.561  15.577 -0.0415 -0.2599  0.0505
10135W        W26982  16.330  14.248  14.909  0.1805 -0.2055 -0.2686
10136W        W26983  17.835   3.578   2.586  0.2414  0.1616 -0.0287
10137W        W26984  14.655   6.914  14.805  0.2806 -0.0213 -0.0602
10138W        W26985  17.969  12.585   4.598  0.0855 -0.0035  0.0452
10139W        W26986   6.612  11.052   5.509 -0.0467  0.1605  0.0136
10140W        W26987  18.751   8.807  13.087 -0.0157  0.1838  0.0494
10141W        W26988  15.820  18.824   3.332  0.1533  0.1332  0.4915
10142W        W26989  17.498   4.493  13.681  0.2408  0.0127  0.0926
10143W        W26990   6.549   4.387  11.954 -0.2137 -0.1645  0.1498
10144W        W26991  11.537  17.359  11.476 -0.0371 -0.0146 -0.2026
10145W        W26992  13.942  11.274  13.055 -0.0284  0.0349  0.1155
10146W        W26993  11.179   9.510  14.837 -0.0062  0.0608 -0.5097
10147W        W26994  17.308  11.891  12.160  0.2618  0.0020  0.0427
10148W        W26995  13.591  11.041  11.259 -0.1392 -0.1126  0.1075
10149W        W26996   3.217   4.948   3.818 -0.2802  0.2988  0.0499
10150W        W26997  17.428   6.197   2.523  0.0065  0.1037  0.0093
10151W        W26998  16.195   0.765  15.618 -0.0164  0.3458 -0.0681
10152W        W26999  17.750   1.624   5.631 -0.1097 -0.0311 -0.0531
10153W        W27000  16.389   4.970   3.668  0.1250  0.0291 -0.3871
10154W        W27001   8.324   4.659  14.156 -0.0794 -0.0926 -0.0006
10155W        W27002   9.107  18.771  13.497 -0.1904  0.1514  0.0564
10156W        W27003   9.526   4.213   1.474  0.0228 -0.0319 -0.0447
10157W        W27004   0.746   1.531  11.002 -0.1789  0.0104 -0.1340
10158W        W27005  11.424   7.203  14.225  0.2451 -0.0889 -0.1575
10159W        W27006   5.183   1.613  14.954 -0.0323  0.0885 -0.0771
10160W        W27007  12.269  11.137   4.899  0.1108  0.1723  0.1822
10161W        W27008   4.158  16.424  14.375 -0.1069 -0.1715  0.0286
10162W        W27009  16.482   6.434  13.908  0.1911 -0.0676  0.1375
10163W        W27010   1.309  16.610   1.221  0.1913 -0.0264  0.0457
10164W        W27011   8.876   4.510  15.310 -0.0909 -0.1988 -0.3352
10165W        W27012  17.511   1.346  13.353 -0.3109  0.2945 -0.3729
10166W        W27013   4.583  10.830  12.109 -0.1055 -0.1328 -0.0467
10167W        W27014  13.075  12.924   0.091 -0.1892  0.0784  0.0833
10168W        W27015  17.862   1.944   1.167  0.1009 -0.2204  0.1335
10169W        W27016  11.073   2.402   5.731  0.1033 -0.0543  0.0283
10170W        W27017   7.638   3.963  13.384 -0.0349  0.2829  0.1787
10171W        W27018   5.732   0.662  15.212  0.3270 -0.0046 -0.2003
10172W        W27019  13.424  18.111  13.467 -0.2258  0.2772 -0.1163
10173W        W27020  13.221   4.458   1.705  0.3236  0.0039 -0.0978
10174W        W27021  17.598  15.455  14.293  0.3257  0.0988  0.1354
10175W        W27022  12.261   2.329  11.606 -0.0293  0.0132 -0.0865
10176W        W27023  13.037   1.756  12.996 -0.0120 -0.3968 -0.0283
10177W        W27024  13.271   0.255  13.009 -0.0058 -0.1654  0.1581
10178W        W27025  17.488  14.620   1.959  0.0554 -0.3176  0.2006
10179W        W27026  12.201   6.896  12.252 -0.3296 -0.2609  0.0117
10180W        W27027  12.435  16.870   2.773  0.0351  0.0567 -0.2975
10181W        W27028   1.446  18.569  15.599  0.0367 -0.1314 -0.0617
10182W        W27029  13.816   7.827  11.996  0.0366 -0.0796 -0.1990
10183W        W27030   2.466   1.159  11.259 -0.0191 -0.3054  0.0297
10184W        W27031  13.629  17.660  12.444  0.3658 -0.3005 -0.0708
10185W        W27032   6.934   5.934   4.661 -0.0106 -0.1647 -0.3375
10186W        W27033   6.520   0.026   0.310  0.1916 -0.2141 -0.5107
10187W        W27034   8.661   2.579  14.695 -0.1157 -0.2416 -0.3230
10188W        W27035   7.390  17.058   0.108  0.1027  0.1146  0.2809
10189W        W27036   9.636   7.530   4.848 -0.0054  0.0216 -0.2368
10190W        W27037  17.129   7.885  14.117 -0.2964  0.3005  0.2953
10191W        W27038  17.960   9.109   5.886 -0.0915 -0.1741  0.0240
10192W        W27039  16.624   2.770   5.140 -0.0247 -0.2239  0.1651
10193W        W27040   1.730   4.174  15.210 -0.3529 -0.0626  0.0289
10194W        W27041   4.514   9.896   0.987 -0.1484  0.0424  0.2018
10195W        W27042  16.567  16.134  11.562  0.2488  0.0484 -0.2928
10196W        W27043   4.045  15.818   0.145 -0.1335  0.2329 -0.2225
10197W        W27044   3.233   0.116  13.960  0.1284 -0.1213  0.0232
10198W        W27045  17.936  11.534  10.326  0.3349 -0.0432  0.2101
10199W        W27046   4.124  13.828   2.661 -0.0001 -0.0861  0.0258
10200W        W27047  16.092   3.553  14.609 -0.2142 -0.1369 -0.0507
10201W        W27048   1.368   7.820   5.080  0.1797  0.1873  0.1587
10202W        W27049  16.231   4.590   2.738 -0.0273 -0.1185  0.1752
10203W        W27050  15.814   3.080   5.102  0.1313 -0.0861 -0.0262
10204W        W27051   0.223   5.244   6.417 -0.1924  0.0197  0.1124
10205W        W27052  18.252   7.258  10.674  0.1055  0.1225 -0.1022
10206W        W27053  17.177  15.745  10.448  0.0091 -0.1235  0.0867
10207W        W27054   1.273   3.936  14.087 -0.1632 -0.4511 -0.2339
10208W        W27055  14.716  15.259   2.518  0.0607 -0.1107  0.1085
10209W        W27056  13.122   9.314  13.754 -0.0907  0.0285 -0.0294
10210W        W27057  12.694   9.258  11.054 -0.1283  0.0055 -0.2018
10211W        W27058   1.474  15.769   4.185  0.1332 -0.0348 -0.1076
10212W        W27059  10.887  13.277   1.528  0.2218 -0.3681 -0.1600
10213W        W27060   1.236   3.202   3.231  0.1893  0.2178 -0.1599
10214W        W27061   0.150  14.464  11.170  0.1356 -0.2139  0.0911
10215W        W27062   9.599  10.363   0.186 -0.3326  0.2155  0.0941
10216W        W27063  13.154   0.075   3.494  0.3330 -0.0942  0.0090
10217W        W27064   1.112   8.055   4.724 -0.1543  0.0476  0.0923
10218W        W27065  15.360  12.357  12.191  0.0695 -0.3072 -0.1874
10219W        W27066  14.885   2.884   4.582 -0.1152  0.0352  0.0962
10220W        W27067  13.165  11.351   1.860  0.2213  0.0563  0.2865
10221W        W27068  14.268   8.382   4.810 -0.2601 -0.0303  0.4388
10222W        W27069   8.264  10.472   2.504 -0.0244 -0.0034 -0.0787
10223W        W27070   9.807   8.345   1.886 -0.0621  0.1835  0.1809
10224W        W27071  18.473  17.912  14.160 -0.0336  0.1792 -0.1232
10225W        W27072   9.052   3.820   2.730 -0.2152 -0.0930 -0.1046
10226W        W27073  18.852   9.422  10.155 -0.0570  0.1899  0.0518
10227W        W27074   1.250  17.198  10.906  0.0723 -0.1209  0.4415
10228W        W27075  10.643  15.670  15.041  0.0996  0.0139  0.0667
10229W        W27076   2.622   7.419   0.061  0.3122  0.0911  0.1442
10230W        W27077   6.191  10.420   1.863  0.1347 -0.1018  0.1081
10231W        W27078   9.091   5.435   5.066 -0.3649 -0.1323 -0.4832
10232W        W27079   1.215  18.521   2.707 -0.0246  0.1119 -0.2358
10233W        W27080   1.348  15.870  14.530 -0.1349 -0.0059  0.0025
10234W        W27081   5.077   5.814   3.737 -0.1310 -0.1045 -0.2345
10235W        W27082  18.010   1.911   5.236  0.2175  0.0872  0.0890
10236W        W27083   7.780   2.954  12.511 -0.0450 -0.0802  0.1765
10237W        W27084  15.069  12.155   4.524  0.0319  0.2784  0.2743
10238W        W27085   7.222   1.858  14.510 -0.1284  0.2382  0.2129
10239W        W27086   4.122   1.382   1.577  0.0249  0.1308 -0.1402
10240W        W27087  11.708   6.163  12.173 -0.0449 -0.0781 -0.0996
10241W        W27088   2.978   1.695   2.920 -0.2674 -0.0993  0.3150
10242W        W27089   5.989   2.871  15.671  0.0082  0.0208 -0.0104
10243W        W27090  11.544  17.922  14.740  0.0752 -0.0702  0.0003
10244W        W27091  13.872   7.784   2.558  0.0137 -0.2300  0.1399
10245W        W27092   4.665  15.555   1.380  0.1446 -0.2712 -0.1383
10246W        W27093  12.868  13.423   3.942  0.1829 -0.0814 -0.0731
10247W        W27094   7.542   4.104   3.621  0.1942  0.0833  0.1622
10248W        W27095   2.691  12.884  14.374  0.1750  0.1671  0.1012
10249W        W27096   2.562   0.663   5.242 -0.1634 -0.1610 -0.2302
10250W        W27097  12.144   1.117  10.950 -0.3013 -0.0269 -0.2799
10251W        W27098  17.413  10.782   1.502  0.2595  0.2040  0.2820
10252W        W27099  11.438  17.204   4.050  0.0981  0.3183 -0.0935
10253W        W27100   8.505  17.280   4.579  0.2529 -0.0368 -0.3673
10254W        W27101  18.080   4.933   4.860  0.2586 -0.2999 -0.2252
10255W        W27102   7.133   5.661   0.323 -0.4972 -0.1421 -0.2539
10256W        W27103   3.742  10.258  15.704 -0.0295 -0.2403 -0.1844
10257W        W27104  12.042   6.503  11.975 -0.1581  0.1942  0.0751
10258W        W27105   8.054   7.463  11.855 -0.0883  0.0221 -0.1197
10259W        W27106   4.663   9.955   3.370  0.0932 -0.1578 -0.2909
10260W        W27107  17.175   8.705  14.989  0.3751  0.0219 -0.0914
10261W        W27108   5.991   0.152   4.318 -0.0087  0.0797 -0.1080
10262W        W27109   1.324   8.150  13.851 -0.2674  0.0965  0.3033
10263W        W27110   4.495   1.877  11.662 -0.1436 -0.0235  0.0720
10264W        W27111   9.738  14.962  10.469 -0.3451  0.0239  0.1780
10265W        W27112   9.541   9.522  12.135 -0.2641 -0.3058  0.1080
10266W        W27113   8.931  11.024   2.893 -0.0605 -0.1710  0.1530
10267W        W27114   8.782  10.510   2.453 -0.0320 -0.1655  0.3284
10268W        W27115  17.362  13.562  14.252 -0.0667 -0.1895 -0.2183
10269W        W27116  12.422  16.979   0.104  0.0164 -0.1410  0.0006
10270W        W27117   5.646  16.004  13.310 -0.0648  0.1171 -0.0605
10271W        W27118  15.141   2.276  14.779 -0.0365 -0.0261 -0.0549
10272W        W27119  12.932  12.088  11.782  0.1349  0.0327 -0.4301
10273W        W27120   5.583  12.287   0.849  0.2460 -0.4232 -0.1945
10274W        W27121  12.356  17.648   3.334 -0.0004  0.0503 -0.3040
10275W        W27122  13.381  13.728   5.743  0.0905 -0.2886 -0.0375
10276W        W27123   0.588  18.331   5.253 -0.0250 -0.0132 -0.3114
10277W        W27124  17.327   9.810   1.760 -0.0917  0.1241  0.2297
10278W        W27125  15.163  10.429   4.815  0.1346 -0.0568  0.0375
10279W        W27126   8.468  10.769   2.112  0.2432 -0.2444  0.1909
10280W        W27127  15.036  10.651   1.895 -0.1983 -0.1476 -0.0178
10281W        W27128   3.541  13.214   4.274  0.0408  0.2405  0.2808
10282W        W27129  18.773   9.387   2.808  0.2866 -0.0904 -0.1928
10283W        W27130  11.290   6.657  15.148 -0.0802  0.1600 -0.0160
10284W        W27131   3.789  16.951   2.652 -0.1883 -0.2275  0.1241
10285W        W27132   0.586   9.269   0.023  0.0722  0.0098 -0.2143
10286W        W27133   0.589  15.956  11.072  0.0384 -0.0726  0.0250
10287W        W27134   1.097  11.927  12.392 -0.2840 -0.0373  0.0964
10288W        W27135   7.960  16.471   3.031 -0.0985 -0.0415  0.2859
10289W        W27136  15.871  14.092   5.473  0.2267 -0.2048 -0.1027
10290W        W27137   4.024  16.899  14.139  0.1961  0.1309 -0.1376
10291W        W27138  10.943  10.183  12.484  0.0019  0.3587  0.1750
10292W        W27139  15.437  12.818   2.392 -0.2477  0.0809  0.0347
10293W        W27140  11.604   6.172  13.685  0.0825 -0.3376 -0.0178
10294W        W27141   1.957   0.946  15.462 -0.0435 -0.1843 -0.1893
10295W        W27142  17.818   6.040  13.573  0.2630 -0.1024  0.1370
10296W        W27143   2.366   5.669   1.255 -0.3256 -0.1873  0.0180
10297W        W27144  13.575  10.273  11.739  0.0482 -0.0326  0.0862
10298W        W27145  11.929   2.113  12.110 -0.0307 -0.1298  0.3360
10299W        W27146   5.363  11.752  12.239  0.3075 -0.1057  0.0431
10300W        W27147  15.084   2.728  14.519 -0.0868  0.1898 -0.1813
10301W        W27148   0.584   9.725  14.543  0.2585 -0.0364 -0.2119
10302W        W27149   1.350   8.312   1.040  0.2334 -0.0163  0.1445
10303W        W27150   2.561  14.067  10.758  0.0744  0.0531 -0.1150
10304W        W27151   1.653   7.342  15.283  0.1687 -0.0770 -0.1629
10305W        W27152  13.117  10.216   3.108  0.0891 -0.0233 -0.0828
10306W        W27153   3.344  14.042   0.978 -0.2464  0.1345 -0.2655
10307W        W27154   1.969  13.222   0.825 -0.0840  0.2088  0.1394
10308W        W27155  15.647  18.792  12.140  0.0291  0.0280 -0.1946
10309W        W27156   9.420  12.805   1.106 -0.2346 -0.1756 -0.1230
10310W        W27157   2.926   9.484   2.396  0.1173  0.1002 -0.0286
10311W        W27158   3.194   3.176   1.798 -0.3698  0.0255 -0.1980
10312W        W27159   7.360  16.928  12.408  0.0784  0.0469  0.0768
10313W        W27160   8.749  13.589   3.197 -0.1234  0.1075  0.0799
10314W        W27161   2.539   2.590   2.689 -0.0100 -0.2566  0.1077
10315W        W27162   5.533  13.721  13.770 -0.1606 -0.0683  0.0473
10316W        W27163   4.012  14.859   4.089 -0.0121 -0.3174  0.1692
10317W        W27164  10.217   7.220  12.997  0.0576  0.0236 -0.1084
10318W        W27165   6.527  12.401   1.247  0.0081 -0.1472  0.2177
10319W        W27166   3.612   0.802   3.289 -0.4740 -0.2145  0.3073
10320W        W27167  18.330  17.420   4.475  0.2196  0.2488  0.0735
10321W        W27168   4.413  14.055  13.979 -0.0057  0.1726 -0.2671
10322W        W27169   9.824  13.144  12.898  0.1908  0.3021 -0.2031
10323W        W27170  10.508   8.321  12.365 -0.0360 -0.3248  0.0127
10324W        W27171  14.295   9.000   1.075 -0.1384  0.1545 -0.1322
10325W        W27172   5.845  16.832  14.278 -0.1298 -0.1741  0.1513
10326W        W27173   0.039  16.125  15.129  0.1156  0.2638 -0.0205
10327W        W27174   4.681  13.604  13.967 -0.0416  0.1139  0.3332
10328W        W27175  11.559  12.958  13.316 -0.1311  0.4536  0.2639
10329W        W27176   5.740   8.871   3.187  0.1770  0.1925 -0.3123
10330W        W27177   8.201   8.776   0.558  0.1912 -0.0793 -0.1341
10331W        W27178   8.484  16.891  14.148  0.4335 -0.1210 -0.0910
10332W        W27179  14.719   1.497   1.715  0.0376  0.4557  0.4527
10333W        W27180  18.508  14.257   5.525 -0.0062 -0.1041  0.2528
10334W        W27181  14.237  12.278   1.913  0.3158 -0.2770 -0.0145
10335W        W27182  14.179   7.241  13.290  0.2344  0.2216 -0.0150
10336W        W27183   6.065   6.623   4.432  0.1292 -0.0149 -0.0166
10337W        W27184   1.212   4.606   3.572 -0.0681  0.1758 -0.1764
10338W        W27185  18.017  17.421   0.159 -0.2806  0.0879 -0.2064
10339W        W27186  16.471   4.010  15.259 -0.0003 -0.0931 -0.1616
10340W        W27187  15.461  10.002   4.753 -0.1932  0.3482  0.0725
10341W        W27188  15.519   7.100  13.264 -0.1898 -0.3122  0.0002
10342W        W27189   2.833   6.811   3.211  0.2811  0.0542  0.1176
10343W        W27190  13.967   9.372  14.215  0.0941  0.3075  0.1363
10344W        W27191  11.053  18.719  13.293 -0.0292  0.1518  0.2380
10345W        W27192   4.769  11.195   1.848 -0.1172 -0.1556 -0.0414
10346W        W27193  16.952  16.182   1.789  0.2138  0.5002 -0.3364
10347W        W27194  18.038   7.219  15.157  0.2698 -0.1536  0.0552
10348W        W27195   5.356  13.496   3.280  0.0804  0.4826  0.0273
10349W        W27196  11.113   3.884  11.936  0.2921 -0.3782  0.1304
10350W        W27197   1.296   6.251   0.460  0.1779  0.2999  0.0512
10351W        W27198   3.922  18.431   4.799  0.3477 -0.1739 -0.2340
10352W        W27199  10.661   3.183   4.067  0.2811 -0.0549  0.1372
10353W        W27200  13.911   3.702  13.154 -0.0408 -0.1492 -0.1314
10354W        W27201  13.326  11.653  15.443 -0.0405 -0.1856  0.1092
10355W        W27202  12.341   1.386  12.750  0.3739 -0.0234 -0.0297
10356W        W27203  18.148  11.284   0.835  0.3867 -0.0397  0.1095
10357W        W27204   9.669  17.671  11.810  0.1123 -0.2088  0.0178
10358W        W27205   5.323  15.499   0.586  0.1636 -0.2183  0.1410
10359W        W27206  12.711  16.111   5.625  0.1048  0.1898  0.0002
10360W        W27207   0.729   4.174   5.498  0.0209 -0.2577  0.1716
10361W        W27208   1.694  14.423   3.098 -0.1319  0.0032 -0.3471
10362W        W27209  15.389   2.973   4.768 -0.1391  0.1449 -0.1613
10363W        W27210  13.857  15.897  14.925  0.0166 -0.0342  0.2085
10364W        W27211  15.945   7.403  12.769 -0.1799  0.1342 -0.2278
10365W        W27212   5.440   3.324  13.527  0.3859  0.1961 -0.3498
10366W        W27213   4.369  15.427   0.410 -0.3571 -0.3442  0.3494
10367W        W27214  14.275  12.532  14.810  0.0428 -0.1350 -0.2032
10368W        W27215  11.876  16.338  12.916 -0.1454 -0.1848 -0.1868
10369W        W27216   5.521  14.958  15.355  0.0316  0.0639 -0.0098
10370W        W27217  14.223   7.034  14.420 -0.0902  0.1577  0.2643
10371W        W27218  18.540   3.148   2.985 -0.1218 -0.4746 -0.3398
10372W        W27219  18.044   7.532   1.129  0.0323  0.0870 -0.0870
10373W        W27220   3.574   5.882   0.998  0.0808  0.2323 -0.0335
10374W        W27221   0.678  17.135   1.825 -0.0470 -0.1365  0.3682
10375W        W27222   7.187   8.397  11.654 -0.1053  0.1566 -0.2062
10376W        W27223  11.618   6.755   2.378 -0.4515  0.0083 -0.2025
10377W        W27224   7.634  11.413   0.958  0.2055 -0.0463  0.0424
10378W        W27225   4.469   5.493  11.604  0.1560  0.2959 -0.1224
10379W        W27226  10.163  17.723  11.792 -0.2049  0.0626 -0.0613
10380W        W27227  12.353  10.206   2.631  0.1284  0.1994  0.1153
10381W        W27228  13.740  12.613  14.166 -0.3559 -0.1216 -0.0096
10382W        W27229  15.525   5.494   5.765  0.2902  0.3346 -0.1049
10383W        W27230   3.707   7.168  10.986  0.2381 -0.4822  0.0659
10384W        W27231   4.833  17.701  13.034 -0.1427 -0.5049 -0.0916
10385W        W27232   4.228   1.017  12.860  0.1148 -0.2197 -0.0421
10386W        W27233   9.460  15.185   2.708  0.2153  0.2123  0.0482
10387W        W27234   8.516   7.909   3.520  0.1733 -0.2884 -0.0306
10388W        W27235  17.261   8.704  12.338 -0.1198 -0.0765  0.2864
10389W        W27236   7.399   1.868   5.615  0.1534 -0.2017 -0.1600
10390W        W27237  15.538   4.430  12.417 -0.2269 -0.0703 -0.1262
10391W        W27238   0.006  16.482   2.217  0.0390 -0.0044 -0.1442
10392W        W27239   1.332  11.827   0.248 -0.1174 -0.0601  0.2537
10393W        W27240   5.544  18.382  10.645  0.0237 -0.0159 -0.2072
10394W        W27241   8.684   3.428   3.228 -0.4390 -0.2702  0.1114
10395W        W27242  11.739   8.230  14.217 -0.1444  0.3133 -0.0495
10396W        W27243  10.309   3.647  14.571  0.3943 -0.0864  0.0478
10397W        W27244  14.172  12.492   5.221 -0.0575 -0.2776  0.2325
10398W        W27245   7.593  14.733  10.560 -0.0268  0.1276 -0.0811
10399W        W27246  10.050   8.343  12.651  0.0527 -0.0251  0.1951
10400W        W27247   9.320   7.389  14.031 -0.0655  0.0332 -0.0847
10401W        W27248  16.594  11.508   5.072  0.0088 -0.1824  0.0535
10402W        W27249  18.813   0.305   4.527 -0.1376  0.0305 -0.1501
10403W        W27250  15.244  14.870  11.777 -0.1924 -0.0809 -0.2643
10404W        W27251   2.499  14.663  12.043  0.0375  0.0182  0.1791
10405W        W27252   1.627  10.786   5.387 -0.0228  0.0176 -0.0588
10406W        W27253  12.281  12.714  12.082 -0.1035  0.1188 -0.0972
10407W        W27254   0.913   8.103   0.223  0.0528 -0.1166 -0.0506
10408W        W27255  11.759  12.499   3.473  0.1150  0.2114  0.1169
10409W        W27256   3.502  18.121  11.682 -0.1343  0.1225 -0.0181
10410W        W27257  11.908   8.264   2.965 -0.2569 -0.1318  0.2570
10411W        W27258   6.638  14.722   4.432 -0.1257  0.0771  0.2157
10412W        W27259   4.125  13.924  11.993 -0.2198 -0.0630 -0.1662
10413W        W27260  15.761   0.493   2.095 -0.1091 -0.0287 -0.0859
10414W        W27261  11.825  12.132  13.244 -0.0277  0.1177  0.3919
10415W        W27262  14.718  18.445  12.511 -0.1002 -0.2162  0.5629
10416W        W27263  14.428   6.374  14.785  0.0961 -0.0809  0.0187
10417W        W27264   1.416   6.550  15.371  0.1500  0.0760  0.2181
10418W        W27265   0.915  13.882   0.713 -0.1476 -0.0564  0.1867
10419W        W27266  18.208   3.647  14.650 -0.2703 -0.2138 -0.0290
10420W        W27267  13.010  12.702  13.663 -0.2869 -0.0261 -0.1529
10421W        W27268   6.796   2.142  14.374 -0.3144 -0.2155  0.2196
10422W        W27269  10.813   0.799  11.600 -0.1547  0.0136 -0.2581
10423W        W27270   3.320  16.745  15.656  0.1612  0.1579 -0.0908
10424W        W27271   1.393   7.126   4.520 -0.0154  0.2340  0.0300
10425W        W27272   3.160   8.109  15.274  0.4105  0.2008  0.0943
10426W        W27273   0.847  10.159  11.510 -0.0086 -0.6388 -0.1532
10427W        W27274   6.664   3.488  11.762 -0.0406  0.1648  0.5159
10428W        W27275  15.540  10.742  14.675 -0.2068  0.0302  0.0550
10429W        W27276   9.369  10.128  12.436  0.0589  0.1367 -0.1932
10430W        W27277  17.676   3.680   3.160  0.1277 -0.0603 -0.1889
10431W        W27278  17.813   0.633   2.860  0.3790 -0.1852  0.2565
10432W        W27279   1.773  16.186   2.444 -0.1118  0.5549 -0.1343
10433W        W27280   0.983   7.645   0.509  0.0161 -0.1344 -0.0073
10434W        W27281   6.672   7.747  12.900  0.2681 -0.2893 -0.4763
10435W        W27282   0.993  11.058   1.542  0.2834  0.1145  0.1065
10436W        W27283   9.512  14.199  14.451 -0.1279 -0.1185  0.1724
10437W        W27284  11.592   4.268  10.171 -0.2631  0.0347 -0.2504
10438W        W27285  11.521  18.764  13.642 -0.1221  0.3431  0.0089
10439W        W27286   0.694  13.376   0.673  0.3099 -0.0261 -0.1525
10440W        W27287   2.465  13.285   3.021  0.0393  0.1247 -0.0193
10441W        W27288   1.976  12.967   4.290  0.0316 -0.1470  0.1323
10442W        W27289   3.364   2.292   4.110 -0.3118  0.2178  0.1446
10443W        W27290   3.232  11.041  13.691  0.2978  0.5199 -0.0693
10444W        W27291  14.289   5.419  15.287  0.1133 -0.2958  0.1340
10445W        W27292   0.344  18.307  13.860 -0.3121 -0.1838  0.6313
10446W        W27293  15.881  14.558   4.796 -0.3499 -0.1057 -0.2062
10447W        W27294   9.737  17.335  13.102 -0.1759 -0.2025 -0.1755
10448W        W27295   3.129   0.798  11.802  0.2651 -0.0256  0.2779
10449W        W27296   2.786   6.709   4.960 -0.0426  0.2068  0.1568
10450W        W27297   0.180   2.221  12.521  0.0019  0.1678  0.2137
10451W        W27298   2.221   8.166   4.189  0.1092 -0.1035  0.2168
10452W        W27299  11.358   2.551  11.460 -0.1096 -0.2649  0.0010
10453W        W27300  17.202   8.056   5.069 -0.2614 -0.1277 -0.1248
10454W        W27301   6.819  15.314   1.189 -0.1783  0.0212 -0.0779
10455W        W27302   7.526  16.036  11.975  0.0304  0.2042 -0.0287
10456W        W27303  18.818   8.166  14.922 -0.0002  0.0113 -0.2906
10457W        W27304  14.211  11.172   0.621 -0.0340  0.2852  0.0523
10458W        W27305   2.134  16.146  12.623  0.1096  0.0656 -0.1676
10459W        W27306   3.337   9.137   4.917 -0.1287 -0.1717 -0.4076
10460W        W27307   0.781  11.056  11.033  0.0344  0.2595 -0.3313
10461W        W27308   1.030  16.799  10.762  0.1645 -0.1653 -0.2982
10462W        W27309   0.877   5.700  13.472 -0.0931 -0.0968 -0.1178
10463W        W27310   1.977   0.466  15.605  0.1365 -0.0895 -0.1904
10464W        W27311  15.548  14.021   4.200  0.0651  0.3887 -0.0410
10465W        W27312  11.930  14.079  12.275  0.0488  0.3590 -0.1219
10466W        W27313   9.433   7.756   2.339 -0.2751  0.2071  0.0885
10467W        W27314  12.979  13.669   0.823 -0.0221 -0.2116  0.0871
10468W        W27315  13.064   2.587   3.437  0.1057 -0.1676  0.0145
10469W        W27316  17.255   3.314   5.578  0.2064  0.0127 -0.0238
10470W        W27317   0.997   5.314  15.109  0.0686  0.0610 -0.0389
10471W        W27318   9.180   0.160  11.517 -0.0602  0.2542  0.1883
10472W        W27319  17.183  17.636  14.326  0.0889 -0.1496 -0.3277
10473W        W27320  11.058  17.264   0.629  0.1541  0.2078  0.1155
10474W        W27321   3.376  15.411  11.913  0.0820  0.1105 -0.3604
10475W        W27322  18.440   4.120   2.155 -0.0310  0.1082 -0.2166
10476W        W27323   6.623  13.752   0.517  0.1740  0.0729  0.0641
10477W        W27324  10.786   4.967  15.378  0.2066  0.0737 -0.0648
10478W        W27325   6.591   9.166   0.985 -0.0286  0.0262  0.3016
10479W        W27326   5.836  11.743  11.815 -0.0337  0.1382 -0.1593
10480W        W27327  12.374  12.076   4.844  0.1865  0.1782 -0.1675
10481W        W27328   6.141  12.421   2.036  0.0457 -0.4154  0.0669
10482W        W27329   0.386   1.288   1.061  0.1676 -0.4622 -0.3110
10483W        W27330  17.689   5.275   0.810 -0.2887  0.1008  0.1877
10484W        W27331   2.810   1.673   5.183  0.0081 -0.0936 -0.1146
10485W        W27332   8.531   8.866   3.747 -0.0957 -0.4199  0.1278
10486W        W27333   1.154  11.671   4.265 -0.2026 -0.5063 -0.0898
10487W        W27334  13.703   6.722   3.303 -0.1124 -0.0058  0.3544
10488W        W27335   4.378  13.189   3.783 -0.2702  0.0978  0.3013
10489W        W27336   5.186   9.671   2.609 -0.1541  0.1415  0.1382
10490W        W27337   5.907  10.019   1.945 -0.2335 -0.0750  0.0861
10491W        W27338   8.616   0.908  12.577 -0.2389 -0.3338  0.2707
10492W        W27339   9.306   5.076  11.359  0.0313  0.1797 -0.1295
10493W        W27340  12.632  11.692   5.471 -0.1018 -0.2801  0.0590
10494W        W27341  16.931  17.417   2.606 -0.0699 -0.0016  0.0576
10495W        W27342   0.175  13.668  13.115  0.2094 -0.5020  0.2497
10496W        W27343   3.474   1.603  14.191 -0.1434 -0.2425 -0.3953
10497W        W27344   0.028  10.767   1.307  0.2019  0.1104 -0.0580
10498W        W27345   7.884  15.114  13.942 -0.2604  0.2769 -0.1419
10499W        W27346  17.188  14.712   1.379 -0.0453  0.2536  0.1156
10500W        W27347  11.238  11.371   0.330  0.0094 -0.1643  0.0927
10501W        W27348  12.476  14.006   1.626  0.1145  0.2558  0.0327
10502W        W27349  12.547   2.788  14.363  0.2505  0.0845 -0.2480
10503W        W27350   0.809  16.552  12.268  0.1153  0.2381  0.2494
10504W        W27351  13.202  14.020  13.377  0.0189 -0.1099 -0.1645
10505W        W27352  15.688   0.890  13.104 -0.1564  0.1630  0.0974
10506W        W27353   9.044  18.758  11.127 -0.4077 -0.0157  0.3714
10507W        W27354   4.905   5.420   5.209 -0.1641  0.3320 -0.1506
10508W        W27355  14.628  11.966   3.914  0.3682 -0.1416 -0.0102
10509W        W27356   0.016   2.770   0.623 -0.0301  0.1358 -0.1725
10510W        W27357  18.852  12.112   4.564  0.0110 -0.1084 -0.1373
10511W        W27358  17.777   3.556   4.005 -0.0889  0.0025 -0.0642
10512W        W27359  13.195   8.685  12.242  0.1699 -0.0681  0.1736
10513W        W27360   9.190  17.836   3.637 -0.1724  0.3742 -0.0016
10514W        W27361  15.945  12.918  13.526  0.3072 -0.0688  0.1856
10515W        W27362   5.996   5.559   2.129 -0.1788  0.1053 -0.0372
10516W        W27363   7.013   1.089   4.066  0.0461  0.0424 -0.0089
10517W        W27364   9.623   8.165   2.368  0.3106  0.0831 -0.2068
10518W        W27365  10.605  12.415  15.630 -0.2174  0.0457 -0.1176
10519W        W27366   3.402  12.403   3.612 -0.0584  0.0136  0.0125
10520W        W27367  11.786   0.297  15.672  0.2275  0.0856 -0.1274
10521W        W27368   7.294   1.376   1.330 -0.1291  0.0128 -0.0501
10522W        W27369  13.738  15.657  12.594  0.1299 -0.3464 -0.1428
10523W        W27370   5.305   1.720   1.527 -0.2743 -0.1146 -0.1202
10524W        W27371   7.351   0.820  13.098  0.0053  0.1228  0.1066
10525W        W27372   4.189  13.462   3.059  0.1301 -0.0158  0.1400
10526W        W27373  10.618   3.637  15.307 -0.0393  0.2865 -0.1397
10527W        W27374  15.962  12.033  13.464  0.1672 -0.1659 -0.0434
10528W        W27375  10.240   8.347   0.657 -0.4239  0.1684  0.0331
10529W        W27376   3.781  17.097   4.636  0.0837 -0.2230  0.0529
10530W        W27377  13.912   5.374  14.911  0.3021 -0.0116 -0.1071
10531W        W27378   4.828  11.340  14.627  0.2017 -0.1273  0.2884
10532W        W27379  10.896   0.152  15.016  0.3637  0.1524 -0.1058
10533W        W27380   9.130   6.887  14.221 -0.3014  0.2215 -0.3784
10534W        W27381   5.350   8.070  13.491  0.0074  0.0120  0.1504
10535W        W27382   4.141   7.366   0.031 -0.1975  0.3253  0.4247
10536W        W27383   3.759   9.253  15.223  0.0785 -0.1119 -0.1015
10537W        W27384  17.041  17.921   3.242  0.1069 -0.2367  0.1664
10538W        W27385  10.232   6.098  13.728 -0.1950 -0.1849  0.0623
10539W        W27386  16.464   4.994   3.179 -0.3049 -0.1960  0.2652
10540W        W27387  18.715   7.997   3.787  0.0412 -0.1199 -0.2099
10541W        W27388  14.713  10.866   1.648  0.2959  0.2794  0.3825
10542W        W27389  11.788  15.003   3.367  0.1766 -0.0471 -0.0215
10543W        W27390   4.389   8.690   4.044  0.2954  0.2088  0.0969
10544W        W27391   4.417  15.000  11.081  0.0868  0.0576 -0.1716
10545W        W27392  10.024   4.261   3.191  0.0161 -0.2173  0.0897
10546W        W27393   9.674   0.632   0.357  0.1892 -0.0009  0.0083
10547W        W27394  16.642   2.379   4.846  0.0511  0.0301  0.4266
10548W        W27395   8.765   6.351   3.388  0.0120  0.2152 -0.1602
10549W        W27396   6.610  14.354  13.281 -0.2315  0.2689 -0.1445
10550W        W27397   0.342   1.062  14.591 -0.1139  0.1424  0.0330
10551W        W27398   8.678  15.477   2.365  0.0249 -0.1756  0.0101
10552W        W27399  11.455  16.848   2.463  0.3108  0.1026 -0.2132
10553W        W27400  11.632   9.136  12.440  0.3135 -0.1466 -0.2413
10554W        W27401  13.589   3.053  12.866  0.2753 -0.0001 -0.0085
10555W        W27402  15.682  15.875  12.672  0.1242  0.0599 -0.1732
10556W        W27403  15.666   2.575   2.195 -0.0520  0.2868 -0.1627
10557W        W27404   4.491  10.427   4.940 -0.3125 -0.2256 -0.3666
10558W        W27405  11.775  11.797  14.127  0.2136 -0.0764 -0.0446
10559W        W27406  13.371   4.220   0.675 -0.0117  0.1257  0.3079
10560W        W27407   9.704   0.940   3.868  0.3621  0.2891 -0.0444
10561W        W27408  18.002  15.272  13.951  0.0606 -0.3098  0.1422
10562W        W27409  18.323  15.447  14.961  0.3396  0.1515 -0.2168
10563W        W27410   0.591  18.095   4.311  0.2318 -0.0822 -0.1823
10564W        W27411   1.025   5.897   3.794 -0.1149 -0.1508  0.0416
10565W        W27412   9.840  11.342   2.509 -0.3158 -0.0786 -0.1739
10566W        W27413  18.513   2.007   0.010 -0.0907  0.2984  0.2564
10567W        W27414  10.219   7.295  10.658  0.2431  0.0611 -0.1387
10568W        W27415   6.496  14.971   3.203 -0.1176  0.3453  0.2685
10569W        W27416  18.262   3.259   4.762 -0.3131 -0.0844  0.1014
10570W        W27417  15.260  16.768  11.149  0.0478  0.0428 -0.1666
10571W        W27418  13.086  11.889   0.218  0.0201 -0.1637  0.0796
10572W        W27419   8.764  11.966  14.701 -0.1523  0.3381  0.2179
10573W        W27420   5.818  14.752   1.220  0.1031  0.0682  0.0319
10574W        W27421   4.941   5.335  12.331 -0.1134  0.0800  0.2066
10575W        W27422   6.830  15.541   3.927 -0.0738 -0.1923  0.1791
10576W        W27423  11.745  17.810   5.483 -0.0224 -0.0896 -0.1556
10577W        W27424  13.223  18.504   0.670 -0.3496  0.1829  0.0488
10578W        W27425  17.971  15.746  14.157  0.1244  0.3318 -0.1147
10579W        W27426  15.389   5.497  11.995  0.3891 -0.0492  0.1769
10580W        W27427  16.082   8.619   2.265 -0.2294 -0.0777 -0.1858
10581W        W27428   8.706  10.873   4.890  0.0693 -0.0145 -0.1503
10582W        W27429  18.224   2.095  14.122  0.0878 -0.1034 -0.1964
10583W        W27430   3.118  13.982  13.417 -0.1784  0.2887  0.0919
10584W        W27431   0.088   1.733   0.927 -0.0128  0.0522  0.0487
10585W        W27432  11.589  14.052   0.823  0.1590 -0.0841  0.0846
10586W        W27433  15.897  18.590   4.544  0.2304  0.0135 -0.0457
10587W        W27434  17.957  11.001   3.101 -0.3045 -0.3902  0.0891
10588W        W27435  18.562  18.076   1.690  0.1309  0.1267  0.1215
10589W        W27436   4.634   8.186  10.885 -0.0430 -0.1745 -0.1890
10590W        W27437  15.790   9.738   6.154 -0.0693  0.0667  0.0420
10591W        W27438  17.698   8.011  14.775  0.1146  0.1359  0.0635
10592W        W27439  15.397  14.097  12.436  0.0132  0.0704 -0.1818
10593W        W27440   3.045  17.370  14.700 -0.1848 -0.4230  0.0299
10594W        W27441  13.004  10.854  13.138 -0.0464 -0.1915  0.0234
10595W        W27442  14.221  18.433  10.925 -0.3370  0.0456  0.0233
10596W        W27443  14.971   7.862  13.793  0.0626  0.2532 -0.0469
10597W        W27444   8.793   9.029   4.193 -0.0246 -0.2427 -0.0590
10598W        W27445  12.637   5.397  13.663  0.0697 -0.1157 -0.1300
10599W        W27446  15.834   5.106   4.405 -0.3185 -0.1739 -0.1786
10600W        W27447  13.825  17.796  11.997  0.1402  0.1460 -0.1034
10601W        W27448   9.499   4.881  12.193  0.2215  0.0732  0.0221
10602W        W27449   5.690   0.904   1.800  0.1277 -0.0340  0.1128
10603W        W27450   8.105   2.749   4.639 -0.1429  0.2469  0.0869
10604W        W27451   4.258  14.032  15.748  0.1194 -0.0574  0.1578
10605W        W27452  17.682   5.444   6.057  0.0408  0.1897 -0.0538
10606W        W27453   8.872  14.916   0.320  0.0373  0.1543  0.1428
10607W        W27454   6.625  11.175   1.036 -0.0574  0.1123 -0.0569
10608W        W27455   7.046   6.719  11.600  0.2257  0.2055 -0.0548
10609W        W27456   4.422  15.100  14.270 -0.2203 -0.0953  0.0768
10610W        W27457   5.116   8.989  14.712  0.4337  0.1662 -0.2487
10611W        W27458  16.515   8.008   2.613  0.0944 -0.0086 -0.1428
10612W        W27459   9.681   2.814   5.333  0.1063  0.0654  0.0984
10613W        W27460  14.028   7.943  12.973  0.2846 -0.1801 -0.3610
10614W        W27461   0.599   0.657  10.901  0.0863  0.2717 -0.0124
10615W        W27462   4.077   4.241  15.347 -0.1853  0.0616  0.1429
10616W        W27463   5.458  10.494  13.008 -0.1202 -0.0478 -0.1458
10617W        W27464  10.425   9.779   5.137  0.3983 -0.0884 -0.2663
10618W        W27465  11.656  11.011   3.489 -0.1705 -0.0344  0.2510
10619W        W27466  12.003   6.845   0.055 -0.0161  0.0460  0.2682
10620W        W27467  11.762   5.691  13.092  0.0267  0.0835  0.0963
10621W        W27468  13.121   6.847   5.100  0.0621  0.1778  0.2044
10622W        W27469   2.352  11.060  14.076  0.0537  0.3092  0.0862
10623W        W27470  17.337  11.319  15.466 -0.0365  0.0459  0.0854
10624W        W27471  18.613  17.073   0.590 -0.0501  0.0951  0.1117
10625W        W27472   9.086   8.344  10.770  0.0372 -0.1610  0.0975
10626W        W27473   8.002   8.265  14.533  0.0722  0.1684 -0.2419
10627W        W27474   7.495   3.229  12.120 -0.0879  0.2384  0.2334
10628W        W27475   3.458  11.822  13.289 -0.2095 -0.2085 -0.0886
10629W        W27476   5.507   9.393   5.603 -0.0340 -0.0227  0.0470
10630W        W27477  16.832  18.498  13.684 -0.1865 -0.0740 -0.2949
10631W        W27478   1.260  12.032   1.314  0.0921  0.0611  0.1351
10632W        W27479   2.024   6.223  12.725  0.0261 -0.1624 -0.1990
10633W        W27480  16.250  12.495  13.645 -0.1923 -0.0241  0.0982
10634W        W27481  18.376  10.849   4.709 -0.1144 -0.0334 -0.3124
10635W        W27482  18.579  15.067  11.803  0.2479  0.0137  0.2550
10636W        W27483  13.346   5.811   4.218 -0.0970 -0.3134  0.0469
10637W        W27484  17.912   0.594   4.889 -0.2368  0.3143  0.0570
10638W        W27485   3.579   7.279   3.234 -0.0112  0.1985  0.0125
10639W        W27486  17.614  14.526   1.010  0.0373 -0.0625  0.0425
10640W        W27487  14.459  12.220   3.340  0.1766  0.3707 -0.1938
10641W        W27488   2.634  17.440  14.349 -0.1429 -0.0828  0.2771
10642W        W27489  16.771  11.666  14.977 -0.2093 -0.0166 -0.0296
10643W        W27490   2.874   8.429  14.930 -0.0095 -0.1224  0.0026
10644W        W27491   6.295   4.005   3.724  0.0517 -0.0474 -0.0152
10645W        W27492   7.328   8.835  11.124  0.0303 -0.1505 -0.1840
10646W        W27493   6.908  17.455   1.282 -0.1650 -0.0443  0.0752
10647W        W27494  15.499  11.965  11.891 -0.2269  0.2451 -0.1541
10648W        W27495   8.676   9.799  14.380 -0.2011  0.0496  0.2045
10649W        W27496  14.040   6.190   3.295 -0.0745  0.0930 -0.1328
10650W        W27497  10.788   4.107  12.287  0.0420 -0.1043 -0.0234
10651W        W27498  14.362  16.147  15.312  0.3389  0.0679  0.4697
10652W        W27499  15.663  13.507   0.229  0.4031  0.1637  0.1843
10653W        W27500   6.882  15.425  13.341  0.0460  0.2240  0.2699
10654W        W27501  16.923   6.794   2.253  0.2035 -0.2204  0.2557
10655W        W27502   6.593  15.762  12.408 -0.2709  0.1531 -0.0148
10656W        W27503  17.897  18.286   1.776 -0.2829 -0.0817 -0.2703
10657W        W27504   5.495   4.616   1.870  0.1390 -0.2641 -0.3962
10658W        W27505   8.763  15.432   4.271 -0.2495  0.1550 -0.4597
10659W        W27506  10.621  12.649   3.263  0.0934 -0.0837 -0.2946
10660W        W27507   7.018  17.871  15.302  0.1417  0.1338 -0.0791
10661W        W27508   5.391   7.583  12.616 -0.2113  0.5334  0.0286
10662W        W27509   7.492  12.883   3.084  0.0652 -0.1122 -0.0944
10663W        W27510  18.079   3.079   0.674  0.1231  0.1901 -0.2022
10664W        W27511  15.428  14.155  13.748 -0.0168 -0.2915  0.3427
10665W        W27512  18.616   9.231  15.380 -0.1620  0.1120  0.2656
10666W        W27513  12.212  16.626  14.726  0.0795 -0.4384  0.1963
10667W        W27514   1.516   3.709   3.837 -0.0358 -0.0896 -0.3264
10668W        W27515  11.217   0.839  11.954  0.2356  0.2016 -0.0333
10669W        W27516   7.906  10.400  14.881  0.2033  0.0647 -0.1868
10670W        W27517  18.491   1.949   0.478  0.0019 -0.2768  0.0468
10671W        W27518  14.577  18.069   3.432  0.0007  0.0066  0.1828
10672W        W27519   2.933   9.762   4.531 -0.1093  0.1380  0.0310
10673W        W27520   3.646   8.237   2.228  0.2985  0.2426  0.0944
10674W        W27521   3.697   4.747  15.660  0.0521 -0.1879 -0.0073
10675W        W27522  12.647  10.720   2.441 -0.0474 -0.1559  0.1323
10676W        W27523   9.587  17.922   0.555  0.4179 -0.0963  0.1099
10677W        W27524   1.677  16.959   4.575 -0.0185 -0.1101  0.3210
10678W        W27525   7.668  16.863   3.665  0.2476  0.0360  0.1444
10679W        W27526  16.160  12.696  12.882  0.0335  0.2499 -0.0514
10680W        W27527   5.601  10.927   2.333 -0.2492 -0.0529 -0.3045
10681W        W27528  11.751  10.524  12.697 -0.2203  0.0705 -0.1992
10682W        W27529   7.390  17.088   3.013 -0.0913 -0.0710  0.1418
10683W        W27530   3.756  12.346   1.564  0.2522  0.0710 -0.0970
10684W        W27531   5.616  16.572  14.681 -0.0253 -0.1273 -0.3697
10685W        W27532   4.906   0.079   3.607 -0.0211  0.0052  0.0485
10686W        W27533  13.264   3.297  11.557 -0.2239  0.1362 -0.2119
10687W        W27534   5.942   3.378   1.601 -0.1733  0.0015  0.2480
10688W        W27535  16.758  10.311   0.400  0.0982  0.2638  0.1300
10689W        W27536  17.985   3.933   0.318 -0.0917  0.1407 -0.0815
10690W        W27537  11.818  12.530  15.060  0.1359  0.2454 -0.2293
10691W        W27538  18.298  13.701   1.807 -0.0899  0.2224  0.1343
10692W        W27539  18.455  13.636   4.922  0.1463 -0.0574  0.0785
10693W        W27540  15.841  15.263   2.734  0.0337  0.0336 -0.1922
10694W        W27541   1.644   2.368   1.275  0.3457  0.0316 -0.0500
10695W        W27542  17.349  15.273   2.622 -0.2641 -0.1388 -0.0558
10696W        W27543  11.681  10.922  11.135  0.2421 -0.2701 -0.1404
10697W        W27544   9.864   6.912  14.723  0.0594 -0.2204  0.1372
10698W        W27545  12.013  11.350   1.734 -0.1730 -0.2332  0.0576
10699W        W27546   4.591   5.597   5.580  0.4809  0.0858  0.0556
10700W        W27547  11.619  16.335   2.306  0.3263  0.1012 -0.1587
10701W        W27548  16.949  11.908   5.617  0.1622 -0.0808 -0.1566
10702W        W27549   3.631  11.691   2.424  0.1320  0.1338  0.0028
10703W        W27550   6.705  17.344  12.532 -0.0648  0.0281  0.1561
10704W        W27551  11.967  17.807   4.093 -0.2073 -0.1467  0.2113
10705W        W27552   3.883   8.844   9.961 -0.1619 -0.0670 -0.0044
10706W        W27553  11.127   6.958   3.325  0.0337  0.1217  0.0294
10707W        W27554  11.091   7.397  14.600 -0.3618 -0.0512 -0.1652
10708W        W27555   7.273   7.865  13.901  0.0197 -0.2147 -0.2680
10709W        W27556  16.932   9.535   2.494 -0.1774 -0.1491 -0.2347
10710W        W27557  14.949  13.180   2.597 -0.3083  0.1565  0.0978
10711W        W27558   0.669   3.173   3.079 -0.2161  0.3506  0.0103
10712W        W27559  17.026   9.172   0.046  0.2504  0.0583 -0.0068
10713W        W27560   3.876  11.497   3.311 -0.2253 -0.5446  0.3304
10714W        W27561   4.690  11.285   1.369  0.0956 -0.3735  0.0125
10715W        W27562   0.096  17.946  10.707 -0.0549  0.1001  0.0393
10716W        W27563  11.389   7.602   0.403  0.1032  0.3425  0.1727
10717W        W27564  12.269   2.801   1.979  0.2722 -0.3093  0.0442
10718W        W27565  15.202  14.938  12.953  0.1146 -0.0506 -0.0428
10719W        W27566   7.084  18.276  13.643 -0.1597 -0.0138  0.1389
10720W        W27567  10.378  17.771   3.186 -0.0692 -0.2497 -0.0195
10721W        W27568   1.180  16.358   2.716 -0.2852 -0.4522 -0.0613
10722W        W27569   6.427   3.354   1.508  0.2908  0.2985 -0.0549
10723W        W27570  11.632  11.117  14.723  0.0127 -0.3192 -0.0081
10724W        W27571  17.152  15.775  13.565 -0.0646  0.1508 -0.3686
10725W        W27572  18.658  13.429  12.870  0.1701 -0.2825  0.1898
10726W        W27573  13.736   2.091  12.133  0.2344  0.1694 -0.0303
10727W        W27574  12.070  13.998  12.817 -0.2752 -0.3579  0.2747
10728W        W27575  14.959   4.998   1.313  0.0900  0.1196 -0.3311
10729W        W27576   3.818  15.710  14.651 -0.5072 -0.5264  0.1189
10730W        W27577  17.338  15.343   5.892  0.4527 -0.0183 -0.1332
10731W        W27578  11.710   6.996   1.754 -0.0133  0.0096  0.2350
10732W        W27579  17.848  15.186  15.442  0.1108  0.0071  0.0002
10733W        W27580   8.777  14.540   2.939 -0.1815 -0.1385  0.0340
10734W        W27581   9.341  13.794   0.322  0.1168  0.2530 -0.0891
10735W        W27582  13.107  11.339  13.657 -0.3456  0.2065 -0.0388
10736W        W27583  10.575  13.309   5.059 -0.1768 -0.2474 -0.1252
10737W        W27584  13.942  11.269   3.117  0.3292  0.0519 -0.0884
10738W        W27585  15.686  15.633   3.661 -0.0533 -0.1499 -0.1500
10739W        W27586   1.149  13.456   0.924 -0.3184  0.0322 -0.0262
10740W        W27587   0.486  16.944  13.753  0.2828  0.1096  0.0456
10741W        W27588  12.577   6.849  10.300  0.1962  0.0485  0.2630
10742W        W27589  18.243   4.082   4.973  0.0749  0.1164  0.1392
10743W        W27590  17.473   9.603   1.327  0.0735 -0.0296  0.1189
10744W        W27591  10.863  15.415   5.069  0.0163  0.0192 -0.0429
10745W        W27592   8.345   7.475   1.425 -0.0750 -0.1162  0.0387
10746W        W27593  12.885   3.222  15.535  0.0860 -0.0529  0.0896
10747W        W27594   3.251  16.327  15.438 -0.2619 -0.0372  0.0022
10748W        W27595   2.264  13.600   4.713 -0.1424  0.0183  0.1877
10749W        W27596   3.574   5.094  15.297  0.2208  0.0168 -0.3795
10750W        W27597  17.402  18.779   2.398 -0.0685 -0.0696  0.1078
10751W        W27598   6.841   8.704   3.087 -0.3720  0.0338  0.0982
10752W        W27599  16.715   4.521   1.530 -0.0218 -0.1809 -0.1518
10753W        W27600  18.361   2.542  13.282  0.3033  0.1117 -0.3136
10754W        W27601  16.838  17.945  14.509 -0.2743 -0.2111  0.4451
10755W        W27602   7.479  15.822  15.619 -0.1769  0.0198 -0.0007
10756W        W27603  11.892   5.979  15.521 -0.2297  0.0613  0.1235
10757W        W27604  16.787  14.015  11.664  0.0436 -0.3162 -0.0983
10758W        W27605   5.480   0.367   4.262 -0.1000 -0.0500 -0.0085
10759W        W27606   3.158   3.529   3.234 -0.0917  0.0982  0.2238
10760W        W27607   1.356  11.884   1.902 -0.0394 -0.3587  0.1149
10761W        W27608  16.152   4.465  13.337  0.0429 -0.3081  0.2018
10762W        W27609  17.840   0.824  12.011  0.1817  0.0285 -0.1660
10763W        W27610   1.730   2.282  14.705 -0.2209  0.1973 -0.0538
10764W        W27611  18.754   9.064   5.233 -0.0235 -0.1581  0.0159
10765W        W27612   1.646  16.502   1.886 -0.1976  0.1305  0.0759
10766W        W27613   5.167   1.088  13.826 -0.1142  0.0402  0.4641
10767W        W27614   8.793  11.452  14.971 -0.0194 -0.1230 -0.3785
10768W        W27615  11.024   2.082   1.850  0.1531 -0.0059  0.1819
10769W        W27616  12.532  11.378  14.886 -0.2723 -0.0013 -0.1885
10770W        W27617   9.851  16.153   1.942 -0.1818  0.1364  0.2162
10771W        W27618  11.719  11.588  13.315  0.0420  0.1942 -0.0562
10772W        W27619  13.212   2.204  14.843 -0.1082 -0.4150  0.1496
10773W        W27620  15.517  11.124  11.476 -0.2126  0.0277  0.0256
10774W        W27621   4.776  14.389  13.932 -0.2520  0.4420  0.0378
10775W        W27622   6.139  11.978   0.204 -0.2217  0.3392 -0.2839
10776W        W27623   3.947   1.579   4.384 -0.1107 -0.1027 -0.1236
10777W        W27624   3.070  13.309   1.699  0.0091  0.0992  0.0096
10778W        W27625  10.511   6.226  15.192 -0.1696 -0.1953  0.3042
10779W        W27626  16.006   0.526   5.322 -0.0821  0.0488 -0.0971
10780W        W27627  11.002  10.997   0.098  0.3280  0.0807 -0.3941
10781W        W27628   9.663   0.336   0.835  0.2653 -0.1448  0.2961
10782W        W27629  14.970  11.992   0.715 -0.4828  0.2378 -0.0450
10783W        W27630   5.210  17.235   0.410 -0.0928 -0.1147 -0.1113
10784W        W27631   8.209   8.945   3.379 -0.1114  0.0378  0.3018
10785W        W27632   9.308   0.614   2.018 -0.1229  0.0201 -0.0349
10786W        W27633  14.044  13.221   1.594  0.3009 -0.1985  0.1057
10787W        W27634  14.892   3.740   1.560 -0.0604 -0.0859  0.2423
10788W        W27635  11.851   5.014   3.889 -0.1392  0.0105 -0.1194
10789W        W27636   3.799  10.846   2.098  0.0287  0.1789  0.1479
10790W        W27637  10.738   1.812   2.442  0.1788 -0.1404 -0.0229
10791W        W27638   6.505   3.425   3.912 -0.1850  0.3411 -0.2841
10792W        W27639  14.432  15.763   3.330 -0.0874 -0.2403  0.5770
10793W        W27640   9.699   7.670   0.007  0.3867  0.0273 -0.3755
10794W        W27641   4.845   8.428   3.986 -0.2568 -0.3324  0.0684
10795W        W27642   2.115  17.251   1.640 -0.2106 -0.1972 -0.1613
10796W        W27643  11.401  12.147   3.279  0.1348  0.2607 -0.1331
10797W        W27644  17.318   0.590   1.943 -0.0220  0.2843 -0.0485
10798W        W27645  17.686  13.616  12.430  0.1322  0.3410  0.0035
10799W        W27646   3.672   9.901   1.140  0.1667 -0.2246 -0.0636
10800W        W27647  18.108   0.641   4.043 -0.1754 -0.0701  0.3135
10801W        W27648  15.345   1.438  12.670  0.0708  0.0119 -0.1056
10802W        W27649  12.204  14.572  11.532  0.3696  0.1610 -0.2100
10803W        W27650   8.766  12.494   4.062  0.3440 -0.1044 -0.1868
10804W        W27651   2.643  17.174   4.527 -0.2257  0.0900 -0.4377
10805W        W27652   7.305   1.839  15.016  0.0600 -0.2730 -0.3424
10806W        W27653   1.422  12.356   5.793  0.1327  0.0502  0.2628
10807W        W27654  15.433  17.054   2.024 -0.0128  0.1816  0.1909
10808W        W27655   8.218  14.548   3.500 -0.0363  0.1030 -0.3112
10809W        W27656  16.838  14.987  15.604 -0.2672 -0.0861 -0.4121
10810W        W27657   0.477  16.915   5.117 -0.1852  0.3207 -0.0511
10811W        W27658  18.665  16.126  12.018  0.3875 -0.1850  0.2711
10812W        W27659  14.701  17.850  11.649  0.2142  0.1042 -0.2405
10813W        W27660   4.030   3.684  11.810  0.0925  0.3200  0.0743
10814W        W27661   5.556  12.437  12.955 -0.3841 -0.0660 -0.2135
10815W        W27662   2.456   5.640   0.414  0.0778 -0.3069 -0.1564
10816W        W27663   9.888   5.001  13.010 -0.1683 -0.1667  0.1417
10817W        W27664   8.981  12.987   1.002  0.0809 -0.1261  0.0785
10818W        W27665  10.008   1.597  11.649 -0.2458  0.3733 -0.4146
10819W        W27666   9.838   0.390  11.531  0.3028 -0.0877 -0.5116
10820W        W27667  10.041   4.619   0.030  0.2163 -0.3721  0.1958
10821W        W27668  14.521  11.953   0.008  0.1592  0.3063  0.0496
10822W        W27669   6.495   4.751   2.453 -0.0782  0.0876  0.0173
10823W        W27670  15.267  13.129  12.556 -0.0042 -0.2536  0.1323
10824W        W27671   1.305  11.978  14.787 -0.1259  0.0991 -0.0466
10825W        W27672   9.998   9.633  15.632  0.0574  0.1883  0.2665
10826W        W27673  10.637  14.178   0.467 -0.1883 -0.1811  0.0065
10827W        W27674  16.668  13.401  15.097  0.2621  0.2965  0.0891
10828W        W27675  12.800   9.340  11.796 -0.2952 -0.1474  0.0550
10829W        W27676  16.812  12.408  12.290 -0.1790  0.1399  0.0637
10830W        W27677   6.480  13.382  13.524  0.1548  0.1432  0.0013
10831W        W27678   8.874  14.459   0.582  0.0967 -0.0546  0.1371
10832W        W27679   5.920  16.687  12.473  0.0672  0.1245 -0.0253
10833W        W27680  13.276  12.302  13.310 -0.2005  0.0453 -0.2977
10834W        W27681   1.846   2.521  15.608 -0.5923  0.2048  0.0106
10835W        W27682  17.328   8.443   1.159 -0.0153 -0.2619  0.0658
10836W        W27683   2.663  15.986   2.742 -0.5146 -0.2420  0.0098
10837W        W27684   8.326  13.363   1.975 -0.1580 -0.2185 -0.2312
10838W        W27685   6.806   3.651   4.686 -0.1546 -0.1333 -0.1666
10839W        W27686  12.749  13.607  13.397 -0.2023 -0.0451  0.3278
10840W        W27687  18.520   5.437   5.522  0.2797 -0.4306  0.1139
10841W        W27688   2.498  10.226   3.556 -0.0237  0.1548  0.1288
10842W        W27689  13.011  17.266  13.636  0.0823  0.4638 -0.0471
10843W        W27690   0.908   1.609  14.016  0.1464 -0.0854 -0.0472
10844W        W27691   1.948   2.070   3.309  0.4697  0.1288 -0.1186
10845W        W27692  13.018   2.287  14.409 -0.0051 -0.0786  0.1584
10846W        W27693   2.164   5.058  12.864  0.3927  0.0100 -0.0755
10847W        W27694  11.847   2.642  11.320 -0.1407 -0.1067 -0.1281
10848W        W27695  10.896   7.600  11.510  0.2104  0.2024 -0.0299
10849W        W27696  12.982  14.258   4.388 -0.0590 -0.0141  0.0060
10850W        W27697  12.709  10.491   4.877  0.0032  0.2345 -0.0840
10851W        W27698  13.638  14.597   2.358  0.0453 -0.2388  0.3802
10852W        W27699   0.487  16.375   4.947 -0.1930 -0.2426  0.0938
10853W        W27700  16.047  11.225   0.952  0.2101 -0.0561 -0.0718
10854W        W27701  11.331  16.777   3.464  0.3015 -0.1092  0.0939
10855W        W27702   4.676  16.568   3.318  0.1911 -0.3123  0.0490
10856W        W27703   0.216   1.025   0.710 -0.1626  0.0842  0.1472
10857W        W27704   0.094   3.274  14.279 -0.1521  0.1732  0.2485
10858W        W27705   7.694   4.691  14.939 -0.0720  0.0988 -0.1094
10859W        W27706   2.684   8.989  14.052 -0.1576 -0.1300  0.3108
10860W        W27707  14.297   9.230  12.729 -0.0617  0.2073 -0.4177
10861W        W27708  10.414   9.136  13.394 -0.3513 -0.0188  0.3838
10862W        W27709  14.151  10.581  15.341  0.0037  0.2349  0.0530
10863W        W27710  18.248   0.203   2.089 -0.1523  0.2189  0.6469
10864W        W27711   4.869   9.086  12.075  0.3262 -0.1966 -0.2634
10865W        W27712  13.950  12.746  11.583  0.1528  0.4302 -0.3339
10866W        W27713  17.708   5.443  13.683 -0.0659  0.1109 -0.0033
10867W        W27714  17.296  14.672  13.567  0.1043 -0.0805  0.2339
10868W        W27715   1.895   7.241  14.828 -0.0290  0.3720 -0.0780
10869W        W27716  11.875   4.715   5.898  0.1429  0.0897  0.5975
10870W        W27717   2.725   7.599   2.808 -0.1661 -0.0844  0.0992
10871W        W27718   1.698  13.970   2.060 -0.1063  0.3396 -0.2917
10872W        W27719  12.280   0.428  12.778  0.2681  0.0950 -0.0965
10873W        W27720  15.972  11.941  11.417  0.0011 -0.0003  0.0707
10874W        W27721   5.099   0.943  10.685  0.1878 -0.0900  0.2808
10875W        W27722   5.910   3.717   3.632  0.3743  0.0590 -0.2014
10876W        W27723  15.339  10.483   2.250 -0.0641  0.1002  0.1849
10877W        W27724   0.258  17.198   2.237  0.0975 -0.2803  0.3803
10878W        W27725  15.924  10.570   3.987 -0.0348  0.1945 -0.0685
10879W        W27726  17.095  13.478   3.045 -0.2314 -0.0100 -0.0186
10880W        W27727   5.815  15.813  14.566 -0.0029  0.0095  0.0500
10881W        W27728  15.359  15.170   0.979  0.1381  0.0244  0.3368
10882W        W27729  10.524   3.526   3.030 -0.3067  0.2979 -0.1048
10883W        W27730  10.657  12.361   2.589  0.3962 -0.0674 -0.1921
10884W        W27731  13.352  14.281  12.287  0.1298  0.0471  0.0292
10885W        W27732  15.596  17.287   5.128  0.1633 -0.0237 -0.2773
10886W        W27733   6.833  18.671  12.023  0.1325 -0.0543  0.3948
10887W        W27734  16.252  17.425  13.350  0.0665 -0.0088  0.0447
10888W        W27735   6.354  10.439   2.908  0.0213 -0.2401 -0.1693
10889W        W27736   1.480  18.039  14.208 -0.2733  0.2878  0.0016
10890W        W27737  13.816   9.240  12.636 -0.1198 -0.2590 -0.0360
10891W        W27738   9.402   0.824  13.985 -0.2045 -0.5245 -0.0283
10892W        W27739   3.921   7.083   2.344  0.0431 -0.2189  0.1245
10893W        W27740   4.116   8.193  13.099 -0.1899  0.0947 -0.0989
10894W        W27741   7.142  11.254   5.490 -0.0357  0.1065 -0.1637
10895W        W27742   5.109   7.896  11.609  0.1245  0.0367  0.2614
10896W        W27743   3.659  14.479  14.205 -0.2169  0.1421  0.1703
10897W        W27744  13.236  14.849  12.507  0.0238  0.1732 -0.1074
10898W        W27745  12.135  10.709   4.094  0.1119  0.0894  0.1799
10899W        W27746  15.586   3.565   0.401 -0.0921  0.2387 -0.2805
10900W        W27747  14.656  14.725  14.231 -0.0330 -0.0433 -0.0214
10901W        W27748   8.560   1.722  13.411 -0.2358  0.1063  0.2399
10902W        W27749  12.426  14.007   5.484 -0.0156  0.0199 -0.4101
10903W        W27750   7.500  14.905   4.058 -0.0039 -0.0238  0.2311
10904W        W27751   3.946  11.256  11.000 -0.2254  0.0563  0.0902
10905W        W27752   2.758   2.433   0.843  0.3701 -0.0415 -0.2896
10906W        W27753  18.485   4.570  13.962  0.0892  0.1111  0.0368
10907W        W27754  12.114   5.209  11.276 -0.2866  0.1828 -0.1772
10908W        W27755   1.982  14.251   1.692 -0.1123  0.0058  0.0004
10909W        W27756  17.111   0.503  12.651 -0.2619  0.0365  0.0282
10910W        W27757  15.224  11.888   5.079  0.1268 -0.0803 -0.0044
10911W        W27758   4.478  13.323  14.428 -0.1829  0.2391 -0.2249
10912W        W27759  11.560   4.995  13.201 -0.0983 -0.1348  0.3286
10913W        W27760   8.867  10.521  15.172  0.1432  0.1102  0.0746
10914W        W27761   4.319   3.410   3.756 -0.5304 -0.0495 -0.0253
10915W        W27762   3.338  12.643  15.529  0.0609 -0.6002  0.1814
10916W        W27763   1.490  11.029  11.730 -0.0356  0.0463  0.2432
10917W        W27764  16.919   0.337   0.037 -0.4216 -0.0888 -0.0431
10918W        W27765  12.925   5.070  13.513  0.0431 -0.0198  0.2563
10919W        W27766   7.735   5.345   2.235  0.0392 -0.3657  0.0308
10920W        W27767   4.619   3.770  12.979  0.0940 -0.1117 -0.1920
10921W        W27768   2.949  17.461  11.670  0.3467 -0.2189 -0.2116
10922W        W27769   6.566   9.484   4.284  0.2800 -0.0174  0.0294
10923W        W27770  18.674  16.775  15.554  0.1081  0.1350 -0.1278
10924W        W27771   4.031  16.805  15.561  0.0708 -0.2367  0.1617
10925W        W27772  15.122  16.284   5.128 -0.1549  0.0582  0.2290
10926W        W27773   3.577  14.789   3.723  0.2652 -0.3466  0.0535
10927W        W27774  16.851   1.225  11.981  0.0246 -0.0322  0.3612
10928W        W27775  15.915  10.155   3.681  0.0690  0.0927  0.3719
10929W        W27776   2.153  13.843   2.444  0.0159  0.1081  0.2336
10930W        W27777   0.755   3.169   4.436 -0.0849 -0.0834  0.2012
10931W        W27778   9.361  12.438   5.648  0.1749  0.2563 -0.2771
10932W        W27779   4.691   0.288  15.714  0.0301 -0.1198  0.0001
10933W        W27780  18.365   8.746  14.060  0.0182  0.0714  0.1140
10934W        W27781   6.601   2.677  13.002  0.0717 -0.0908 -0.1492
10935W        W27782  15.864  17.023   2.889  0.1454  0.0135 -0.1493
10936W        W27783  12.368  16.824   1.915  0.0220 -0.2692 -0.1109
10937W        W27784  13.513   6.734  15.674  0.2129 -0.2040 -0.2272
10938W        W27785   3.080   1.961  15.181  0.1454 -0.0567 -0.0024
10939W        W27786  11.035  17.526   4.235 -0.0004  0.1260 -0.2057
10940W        W27787  17.585   5.754   0.496  0.2959  0.1054 -0.1232
10941W        W27788   3.197   0.867  10.053  0.1680  0.0119 -0.3497
10942W        W27789   0.693  15.276  14.536  0.1237  0.1669 -0.3216
10943W        W27790  16.001   3.374   2.830 -0.1118  0.1202  0.0103
10944W        W27791   7.265   3.664   5.408 -0.0142  0.0435 -0.0639
10945W        W27792  12.522   2.604   3.405 -0.0742 -0.1436 -0.3790
10946W        W27793  18.399   9.197  13.080 -0.0807 -0.3124 -0.0746
10947W        W27794   1.699   4.518   5.494 -0.0968  0.3572 -0.2567
10948W        W27795   2.370  11.900   0.388  0.0906 -0.0054  0.0361
10949W        W27796  16.652  11.349   1.597  0.1156 -0.0304 -0.0337
10950W        W27797   4.552  16.139  12.651  0.0075  0.0693 -0.0326
10951W        W27798   8.783  18.386  12.565 -0.1184  0.2166  0.1857
10952W        W27799   2.315   3.031  13.078  0.2267 -0.1675 -0.2503
10953W        W27800  15.648  17.148  13.945  0.1186  0.0679  0.0064
10954W        W27801  16.656   2.009  12.162  0.0139  0.3376 -0.1268
10955W        W27802   6.681  14.782  15.332 -0.0007 -0.3005  0.0559
10956W        W27803   5.883   2.642   1.022 -0.1662 -0.2843 -0.3985
10957W        W27804  17.692  13.604   3.517  0.0796 -0.2314 -0.4171
10958W        W27805   7.746   2.953   0.196  0.1590 -0.1787 -0.0797
10959W        W27806   4.363  12.274  14.915 -0.2413  0.3140 -0.1160
10960W        W27807  14.253   1.570   3.949 -0.0324 -0.0957 -0.1810
10961W        W27808  14.170   4.573  12.084 -0.3213 -0.1514  0.1264
10962W        W27809   9.696  14.124  12.065  0.1126  0.2780 -0.3518
10963W        W27810   6.238   2.179   3.258  0.0042  0.1287  0.0128
10964W        W27811  17.463   1.961   3.630  0.1403 -0.0406 -0.1482
10965W        W27812  11.206   7.073   1.714  0.2032  0.1495 -0.0285
10966W        W27813   3.318   9.620  12.428  0.0171  0.3338  0.1765
10967W        W27814   4.933   1.063   0.043  0.1120 -0.1222  0.2109
10968W        W27815   0.154  14.985   5.181 -0.1254 -0.0126  0.2701
10969W        W27816  13.753   4.653  11.161 -0.1596 -0.3191 -0.2719
10970W        W27817   0.127   1.813  11.720  0.2507  0.3080 -0.2517
10971W        W27818  15.318   7.638  11.700  0.4125 -0.3199  0.0270
10972W        W27819   3.575  11.520   3.804  0.1354  0.0089 -0.1763
10973W        W27820  11.194   1.130  14.164  0.3727  0.1594 -0.2004
10974W        W27821   1.177   0.484   2.145  0.1224  0.2096  0.3159
10975W        W27822  13.836   0.999   1.927 -0.2481 -0.2437  0.0246
10976W        W27823   4.244  12.746  15.197 -0.0983 -0.0507  0.2138
10977W        W27824   9.935   7.888  13.363  0.1278  0.0902  0.1178
10978W        W27825  12.353   8.431   0.143 -0.1631  0.0130  0.3867
10979W        W27826   7.811  10.265  13.428 -0.0456  0.1773 -0.6048
10980W        W27827  16.758   9.174   0.561 -0.0203  0.0962  0.2733
10981W        W27828  11.896   8.845   4.228 -0.0254 -0.3929 -0.1747
10982W        W27829   0.610  11.524  11.837 -0.1900 -0.1078 -0.1501
10983W        W27830  13.225   7.861   0.197 -0.2930  0.3521 -0.0968
10984W        W27831   1.565  13.807  14.001  0.2019  0.0613  0.0150
10985W        W27832  18.752   0.258  14.412  0.3825  0.1283  0.1483
10986W        W27833  15.601  18.536  14.967 -0.2876 -0.2304 -0.1440
10987W        W27834   9.488   6.703   0.997  0.1743 -0.1858 -0.0117
10988W        W27835  14.520   4.909   0.202  0.1980  0.1637  0.2260
10989W        W27836  12.038  10.679   5.633  0.4830  0.1387  0.2160
10990W        W27837   6.233   2.504   4.281  0.1617  0.0297 -0.0464
10991W        W27838   5.301   4.995   2.086 -0.2856  0.0373  0.0121
10992W        W27839   2.050  18.738  14.617 -0.0149  0.0565  0.1964
10993W        W27840   9.507   9.141   2.273  0.0058 -0.4064 -0.2863
10994W        W27841   9.242   4.335   2.471  0.5944  0.0011 -0.0860
10995W        W27842  11.756  16.386   1.697 -0.0455  0.0682 -0.0476
10996W        W27843   9.371   5.138  14.794  0.0567 -0.1418 -0.1563
10997W        W27844  17.456  14.731   2.723 -0.1884  0.0705 -0.2716
10998W        W27845  13.548   8.060  14.093  0.2342 -0.4402 -0.5261
10999W        W27846  17.862   7.352   1.804  0.0007 -0.1560  0.1598
11000W        W27847  12.710  11.427   0.645 -0.3459  0.3402  0.1808
11001W        W27848  17.543  11.305  13.411  0.2768 -0.4107 -0.2213
11002W        W27849  16.589   4.874   5.587  0.1998  0.1203 -0.1964
11003W        W27850   9.247  11.411   3.070  0.1070 -0.2153  0.2645
11004W        W27851   8.964   9.315   3.169 -0.2776 -0.2366  0.1388
11005W        W27852   8.805   8.400  12.350 -0.0299  0.0492 -0.0382
11006W        W27853  14.864  11.642  14.165  0.1701 -0.1361 -0.3610
11007W        W27854   5.637   1.484  11.421  0.1505 -0.0670  0.1029
11008W        W27855  10.091   9.763  12.869 -0.2255  0.0093  0.0837
11009W        W27856  16.854   2.486  12.247  0.2771  0.0804 -0.0597
11010W        W27857  10.671  13.865  10.364  0.1474  0.1820  0.1213
11011W        W27858  12.137   4.116   0.877  0.0382 -0.1015  0.0373
11012W        W27859  18.370  17.135  12.920 -0.0345  0.4624 -0.0477
11013W        W27860   8.268  16.710  14.929  0.0444 -0.0931  0.1153
11014W        W27861  10.564  16.469   3.015 -0.1476  0.1244  0.0030
11015W        W27862  16.668  17.645   3.037  0.1069  0.0037  0.0853
11016W        W27863   3.795   9.954   5.137  0.1885  0.3280  0.0967
11017W        W27864  13.886   2.428  14.959 -0.5186  0.1321  0.1471
11018W        W27865  15.922  11.549  14.535  0.2526  0.2890 -0.3045
11019W        W27866   9.988   9.367  13.335  0.2059  0.1432  0.1512
11020W        W27867  15.353   2.696   2.911 -0.1137 -0.1037  0.2231
11021W        W27868  14.392  17.775  11.184 -0.0052  0.0334 -0.1650
11022W        W27869   2.230  13.810  15.275  0.2596 -0.5026  0.3439
11023W        W27870  13.782   2.359   4.343 -0.1927 -0.0515 -0.0602
11024W        W27871   3.374  10.527  11.089 -0.0149 -0.0533  0.2924
11025W        W27872   9.935   6.383  14.460 -0.1375  0.2173  0.1727
11026W        W27873   7.913   1.442  11.119 -0.3367 -0.3745 -0.2563
11027W        W27874  10.736   7.405   3.962  0.2563 -0.1004  0.1136
11028W        W27875  12.015  14.597   1.236 -0.1436  0.1766 -0.1567
11029W        W27876   2.785   3.197   0.906  0.2888  0.2153 -0.0222
11030W        W27877  10.261   4.098   1.811 -0.1736  0.0797 -0.0486
11031W        W27878   7.455   4.939  13.770 -0.3101 -0.3141 -0.0373
11032W        W27879   4.825  13.268  13.513 -0.0279 -0.1718 -0.2145
11033W        W27880  13.324   5.398   2.143 -0.0175  0.2002 -0.1270
11034W        W27881   9.913   4.374   2.115 -0.2536  0.0317 -0.3947
11035W        W27882   3.574   4.982  11.511 -0.0702 -0.1213  0.3407
11036W        W27883   4.259  17.904   2.218 -0.3630 -0.2625  0.3669
11037W        W27884  16.530  17.932  11.633 -0.2864  0.2137  0.2322
11038W        W27885  18.347  18.720  13.568  0.0488  0.0410 -0.1474
11039W        W27886  12.061  16.172  14.533 -0.1772  0.3819 -0.0329
11040W        W27887   0.061  15.521  12.596 -0.0338 -0.0795  0.0405
11041W        W27888   6.513  14.440   0.981 -0.4257 -0.1831 -0.0549
11042W        W27889  17.371   6.978   4.472  0.4647  0.2654 -0.2213
11043W        W27890   4.873   7.794  13.962 -0.3059  0.1728  0.3651
11044W        W27891  12.463  15.015   2.093 -0.2228  0.0938 -0.0267
11045W        W27892   3.242  15.744  15.354  0.0301  0.0964 -0.0103
11046W        W27893  15.191  17.485  11.761 -0.0811 -0.1674 -0.1320
11047W        W27894   3.003   8.000  12.379 -0.1943  0.1460  0.0219
11048W        W27895  18.716  11.062   2.104  0.2406  0.0959  0.1861
11049W        W27896  12.482   3.311   0.196  0.1423  0.0512  0.0942
11050W        W27897   5.768   5.481  14.178 -0.0129 -0.0607  0.0206
11051W        W27898   3.648  15.670  12.976 -0.3033 -0.0741  0.2563
11052W        W27899   5.712  13.562  11.478 -0.0926 -0.1681  0.0925
11053W        W27900  10.333   4.693   0.429 -0.1747 -0.1995 -0.0746
11054W        W27901  16.355   0.275   2.494  0.1854 -0.1452 -0.0803
11055W        W27902   5.305  15.596  12.885 -0.1252  0.0803  0.1176
11056W        W27903  18.305  11.790   4.667  0.2344 -0.0493  0.2357
11057W        W27904   9.721   7.439   1.781  0.4099  0.0210 -0.3200
11058W        W27905  15.406   2.673   0.415  0.0827 -0.0452 -0.2955
11059W        W27906  13.642   6.827   5.506  0.3924  0.2156 -0.1051
11060W        W27907  15.769   7.215  11.902 -0.2960  0.2406 -0.0675
11061W        W27908   6.196  11.271   1.314 -0.1301  0.3363  0.2787
11062W        W27909   6.206   5.206  12.121 -0.2731  0.2017  0.0393
11063W        W27910   8.182  10.380   3.097  0.0521  0.4397 -0.5551
11064W        W27911   7.964   9.201  10.875  0.0285 -0.1496 -0.1491
11065W        W27912   4.409   8.757   2.511  0.0680 -0.0250  0.1376
11066W        W27913   8.598   9.014   0.323 -0.2706 -0.1670  0.1036
11067W        W27914  17.410  16.057  11.799  0.0799 -0.1349 -0.2438
11068W        W27915  14.676  14.255  14.481  0.0595 -0.1706 -0.1810
11069W        W27916  15.715  16.159   4.022 -0.0746  0.0041 -0.0005
11070W        W27917   8.959  13.564  11.949 -0.0079 -0.1436 -0.1953
11071W        W27918   6.187   5.968   1.908  0.0286  0.3042 -0.3878
11072W        W27919  18.297   0.957   4.762  0.0034  0.0205 -0.0598
11073W        W27920  11.421  13.485   1.680 -0.1004 -0.0662  0.1028
11074W        W27921  13.843  11.926   1.911  0.1004  0.0658 -0.1838
11075W        W27922  11.949   4.365  12.181  0.0950  0.3512  0.2164
11076W        W27923   9.446   1.193  11.349 -0.1136  0.0903 -0.4995
11077W        W27924  16.681   7.756   0.064  0.1950  0.1903  0.1641
11078W        W27925   2.467   2.017   0.143  0.0808 -0.0535 -0.0026
11079W        W27926   4.135  17.263   5.383  0.1365  0.1167 -0.0660
11080W        W27927  18.702  11.120  13.845  0.1323 -0.0266 -0.2635
11081W        W27928  13.216   4.243   5.084 -0.1107 -0.1003 -0.2402
11082W        W27929  16.065   5.211   6.424  0.0255 -0.0229 -0.1917
11083W        W27930  15.531   7.688   5.183 -0.2096 -0.2116 -0.1598
11084W        W27931  16.022  14.844   1.736  0.0587  0.3453  0.1842
11085W        W27932   6.265  18.692  15.246  0.0958  0.0640  0.1798
11086W        W27933   0.495  12.350   1.831  0.0810 -0.0194  0.2367
11087W        W27934  14.272  12.561  14.306 -0.1615 -0.0839 -0.1090
11088W        W27935   0.565  15.665   4.386 -0.0318  0.2038 -0.3416
11089W        W27936  11.700   1.625   4.194  0.2501  0.0959  0.0164
11090W        W27937   4.938  16.906  15.481 -0.0517 -0.0332  0.2687
11091W        W27938  14.077  14.207   0.646 -0.0878 -0.1592  0.2169
11092W        W27939  18.137   6.395  11.895  0.2054  0.2810 -0.0105
11093W        W27940  15.755   0.575   4.641  0.2111 -0.1373 -0.1391
11094W        W27941   2.632  16.939  14.027 -0.0470 -0.2389  0.0771
11095W        W27942  11.723   2.338   0.624 -0.1358 -0.2244 -0.0682
11096W        W27943   2.869  14.562   3.178  0.0289  0.0847 -0.1041
11097W        W27944   3.499   9.060  14.305 -0.1484 -0.1212  0.3301
11098W        W27945   6.277  10.112  14.076  0.0153  0.1659 -0.2132
11099W        W27946   4.553   2.899   0.701  0.0654 -0.6239  0.1729
11100W        W27947   9.845   5.378  12.675 -0.1177 -0.2726  0.1673
11101W        W27948  17.403   8.887  11.431 -0.1800 -0.0770 -0.1459
11102W        W27949  17.416   9.166  12.801  0.2834  0.3737 -0.2166
11103W        W27950  11.705  14.355  12.787  0.1571 -0.1343 -0.1158
11104W        W27951  17.791  17.597   2.329 -0.3494  0.0181 -0.4453
11105W        W27952  18.425   7.881  12.794  0.2060  0.0080  0.2146
11106W        W27953  17.976  15.739  15.627 -0.0161 -0.1265 -0.1175
11107W        W27954   1.640  17.248   3.191  0.0860 -0.0335  0.0376
11108W        W27955   8.884   0.268   4.158  0.1375  0.2704 -0.1666
11109W        W27956  13.033  17.219  14.657 -0.0312 -0.0015 -0.0979
11110W        W27957   5.761  15.816   1.996 -0.1896 -0.0694  0.1526
11111W        W27958  11.397   6.575   4.092  0.0670 -0.0143 -0.1270
11112W        W27959  13.444   9.955  14.387  0.0050  0.0797  0.2184
11113W        W27960   8.838   2.326   1.682  0.2316 -0.0893 -0.0880
11114W        W27961   4.449  16.898  14.677 -0.2231 -0.3051  0.0980
11115W        W27962   2.798  18.617  15.643  0.0038 -0.0290  0.0222
11116W        W27963  12.461   0.638  14.449 -0.1827 -0.0165 -0.1257
11117W        W27964  15.925   2.144   5.119  0.1743 -0.0478  0.3224
11118W        W27965  13.837   3.379  15.491 -0.0600 -0.0070  0.2603
11119W        W27966  14.771  17.723  13.679 -0.0306 -0.0279  0.0352
11120W        W27967   8.315   0.971   3.808  0.0970  0.4065  0.0524
11121W        W27968   7.067   7.330  15.445  0.0047 -0.1743  0.1066
11122W        W27969   0.568  13.427   4.233  0.0996 -0.0880  0.2258
11123W        W27970  12.355  16.757   5.072  0.3163 -0.1491  0.1133
11124W        W27971  18.406   0.097   3.552 -0.1452 -0.2253  0.1207
11125W        W27972  12.067  17.517  15.074 -0.2638 -0.0946  0.0355
11126W        W27973  16.883   6.783   3.135 -0.2170 -0.2468  0.1547
11127W        W27974   7.037  13.809  10.698 -0.0234  0.3409  0.2032
11128W        W27975   4.500  15.388  14.629 -0.0417 -0.0391 -0.1805
11129W        W27976   9.150   2.263  15.327  0.1640  0.0677 -0.0736
11130W        W27977   9.026   7.808  14.364  0.0298 -0.1111  0.0918
11131W        W27978  14.333  18.439   4.191  0.1129  0.0285  0.4661
11132W        W27979  18.577  13.828  13.233 -0.0420  0.0564 -0.2018
11133W        W27980   0.022   4.708   1.234  0.2377  0.3461 -0.1785
11134W        W27981   0.527  13.492   4.802 -0.3514 -0.0645 -0.0748
11135W        W27982   5.109   4.524   3.425 -0.1847  0.4194  0.4033
11136W        W27983   1.059   0.297   3.248 -0.0128 -0.2188  0.0496
11137W        W27984   2.498  16.472  13.521  0.0564 -0.0917  0.1140
11138W        W27985  17.162   3.731  12.519 -0.0008  0.2814 -0.1332
11139W        W27986   3.710   9.153  13.291  0.0304  0.2475  0.1053
11140W        W27987   5.548   9.179   3.989  0.0477 -0.2105  0.1545
11141W        W27988   4.530   0.186  13.180  0.0851  0.1060  0.0581
11142W        W27989  12.094   0.879   4.729 -0.2468 -0.1091  0.0403
11143W        W27990  18.659   6.491  12.643  0.2890 -0.0919  0.2591
11144W        W27991   5.877  17.040  15.262 -0.1104  0.0576  0.1327
11145W        W27992  17.231  17.038   2.666 -0.2098  0.0283  0.0239
11146W        W27993   3.216  17.761   3.190  0.0551  0.0294 -0.0052
11147W        W27994  16.034  16.440  10.208 -0.1473 -0.1759 -0.0736
11148W        W27995   6.876   8.419  11.294 -0.0210 -0.0567 -0.2024
11149W        W27996   2.658   0.288   2.249  0.1955  0.0497  0.1977
11150W        W27997  17.892  18.498  14.326 -0.4427  0.0451  0.1255
11151W        W27998  10.362   8.673  13.137 -0.1698  0.0805 -0.0614
11152W        W27999  17.087  12.288  11.838 -0.1310 -0.2334  0.2747
11153W        W28000   5.824   1.035  13.197 -0.0682 -0.2924 -0.3382
11154W        W28001   0.913   8.838   0.268  0.5372 -0.0742  0.1346
11155W        W28002  15.547   7.582   2.346  0.1821 -0.0632  0.1426
11156W        W28003   3.968   6.736   4.708 -0.2149  0.2159 -0.2016
11157W        W28004   7.233  11.838   3.274  0.1088  0.1417 -0.1658
11158W        W28005   1.271  17.208   0.302 -0.0941  0.1372  0.2824
11159W        W28006  15.734   6.028  14.311 -0.1709 -0.0802  0.1390
11160W        W28007  12.779  18.631   1.149 -0.2636 -0.1669 -0.2228
11161W        W28008  10.875   9.163   2.635  0.0270  0.1111 -0.2381
11162W        W28009   9.667  15.175  15.074 -0.0832  0.0837 -0.1294
11163W        W28010   8.356   5.140   2.780 -0.1493  0.1246  0.1151
11164W        W28011   3.334   1.543  13.724  0.2325  0.3041  0.2214
11165W        W28012   6.573   7.025  14.063  0.1853  0.2271  0.3638
11166W        W28013  11.341   7.988  14.399  0.0710  0.3946  0.1274
11167W        W28014  15.114  18.389   0.852  0.2787 -0.1208 -0.0231
11168W        W28015  11.972   1.540  10.732 -0.2273 -0.0960  0.0436
11169W        W28016   8.598  18.215   1.170 -0.1421  0.3057 -0.4557
11170W        W28017   4.088   3.489   4.771  0.2556 -0.2231 -0.1143
11171W        W28018   6.067   6.852  15.502 -0.0841 -0.0211 -0.1063
11172W        W28019   3.835   8.910  11.053 -0.0705  0.1403  0.0953
11173W        W28020   1.386  14.092  14.674  0.2134 -0.0542 -0.1111
11174W        W28021  18.011  16.172  14.462 -0.0349 -0.1181  0.2127
11175W        W28022   6.657   0.120   1.198 -0.1999 -0.2076 -0.1796
11176W        W28023  16.493   8.119  14.632 -0.0932 -0.2524 -0.0913
11177W        W28024  12.921   8.112  13.104  0.0410 -0.0644  0.2080
11178W        W28025  15.692  10.412   5.045 -0.1777 -0.0167  0.1320
11179W        W28026   5.344   8.287   3.588  0.0341  0.2121  0.0767
11180W        W28027  11.498  17.376   2.878  0.1279 -0.1123 -0.0067
11181W        W28028  10.461   9.967   0.065 -0.1688 -0.0421 -0.2966
11182W        W28029  17.812   2.722   4.607 -0.1171  0.0780 -0.1508
11183W        W28030   2.722   6.672  13.721  0.2038  0.3735 -0.0466
11184W        W28031   9.491  11.901  10.697  0.0309  0.0917 -0.0097
11185W        W28032  13.660  16.104   0.722 -0.2400  0.1707  0.2516
11186W        W28033   3.270   3.093   2.360  0.1800 -0.2561 -0.1929
11187W        W28034  16.162   4.935  12.057  0.3188 -0.1188  0.1859
11188W        W28035  11.067  18.152   1.497 -0.4050 -0.0548 -0.1236
11189W        W28036  11.378  10.546   5.553 -0.1644  0.2143 -0.1225
11190W        W28037  13.036   5.359  15.498 -0.1165 -0.1949 -0.0364
11191W        W28038  13.097   5.956   0.330 -0.2630  0.2320  0.3279
11192W        W28039  15.073   5.370  12.654  0.1730  0.0664 -0.1311
11193W        W28040   2.794   3.636   0.640  0.2853 -0.0335  0.1682
11194W        W28041   0.282   5.856  11.314  0.1150 -0.1497 -0.1073
11195W        W28042  13.211   3.061   4.204 -0.2028 -0.1085 -0.1007
11196W        W28043  17.329  10.108  12.692 -0.2429  0.1136 -0.2240
11197W        W28044   9.925   4.982  12.393 -0.0846 -0.1709 -0.1718
11198W        W28045   3.150  11.900   3.261 -0.2266  0.2364  0.3612
11199W        W28046   4.900   2.655   5.058 -0.0957  0.0585  0.0070
11200W        W28047  12.531  15.873  12.362 -0.2069  0.2422 -0.3847
11201W        W28048  16.046  12.544   3.650 -0.0476  0.2681  0.3760
11202W        W28049  12.947   0.278  12.031  0.3819 -0.1216  0.0373
11203W        W28050   5.880   0.455  11.681  0.1713 -0.1719  0.1052
11204W        W28051  15.765  15.188   4.465  0.1957  0.3560 -0.1947
11205W        W28052  11.675   3.063  12.151  0.2478  0.0421  0.2163
11206W        W28053   5.306   6.841  13.926  0.0489 -0.2647  0.1313
11207W        W28054  17.427   6.148   0.083  0.0127  0.0936  0.0575
11208W        W28055   2.528  13.084  14.789 -0.2386  0.0833 -0.1771
11209W        W28056   6.818  11.777  13.287 -0.1858  0.0736  0.3148
11210W        W28057  16.552  16.494  12.660 -0.4685 -0.2558 -0.3968
11211W        W28058   4.465  18.577   1.148 -0.0500 -0.2508 -0.2428
11212W        W28059   1.049   2.932  15.001 -0.0722 -0.3812 -0.2088
11213W        W28060   6.541   6.444  11.346 -0.2221  0.2696  0.2248
11214W        W28061   7.250   6.499  15.706 -0.1070 -0.1898  0.0089
11215W        W28062   1.593   7.192  13.645 -0.0133  0.0020 -0.1817
11216W        W28063   7.434   9.863   5.686  0.0817  0.2195 -0.1210
11217W        W28064  16.051  12.910   5.117  0.3390 -0.2247  0.2453
11218W        W28065   1.762  14.057   1.232 -0.0155 -0.2269 -0.4172
11219W        W28066   7.065   0.434  14.276 -0.1368  0.0074 -0.0830
11220W        W28067  14.216   6.546  12.014 -0.0953 -0.1832 -0.1352
11221W        W28068  16.000   8.213   1.863 -0.2447  0.0194  0.2753
11222W        W28069   1.188   7.697  12.497  0.0514  0.0808  0.2534
11223W        W28070  12.564   0.029   3.319 -0.0116 -0.1846  0.1984
11224W        W28071  17.662  15.789   4.013 -0.1655  0.1113 -0.2305
11225W        W28072   3.166   2.524  14.499  0.0833  0.3033 -0.2335
11226W        W28073  17.188   9.592  12.584 -0.2464 -0.4139  0.1748
11227W        W28074  12.449  13.510   9.995 -0.0570  0.2806  0.1755
11228W        W28075   8.355   7.293   5.434  0.2867  0.0362  0.0117
11229W        W28076   2.966  14.720   2.236  0.0053 -0.0651 -0.3964
11230W        W28077  11.762   5.687  12.038 -0.1514 -0.1020 -0.1638
11231W        W28078  10.495  15.766  13.010  0.4261 -0.0034  0.0234
11232W        W28079  11.418   2.409  15.246  0.0640  0.1666 -0.0011
11233W        W28080  14.230  13.441   5.544  0.3130  0.1599 -0.1537
11234W        W28081   7.776   1.196   3.113 -0.3215  0.1314  0.3749
11235W        W28082   0.297  10.107   0.482  0.3446  0.0644 -0.1815
11236W        W28083   8.816   4.377  12.686 -0.0699  0.1649 -0.1109
11237W        W28084  14.503  18.755   1.562 -0.2434  0.2846 -0.0684
11238W        W28085  18.315   0.220  12.722 -0.1438 -0.1354 -0.3054
11239W        W28086  15.838  16.594  13.612 -0.0510  0.2652  0.3070
11240W        W28087  15.917   9.110  12.547  0.3760  0.1220 -0.0807
11241W        W28088   5.519   2.864   4.963 -0.2966 -0.1401 -0.0272
11242W        W28089  10.118   5.805   1.894 -0.2974  0.0693  0.1064
11243W        W28090  13.855   6.699  14.383  0.0155 -0.0423  0.1804
11244W        W28091   6.875  17.434  11.500 -0.1528 -0.0522  0.1608
11245W        W28092  17.658  11.778  11.419  0.0259 -0.0836 -0.0881
11246W        W28093  10.516   4.921   3.415 -0.0747 -0.1995  0.1146
11247W        W28094   1.242   1.203  13.317  0.2030  0.1363  0.2947
11248W        W28095   8.454   2.947  13.933 -0.0255 -0.0230  0.0875
11249W        W28096  11.703   5.557   0.570  0.0436 -0.1178  0.0390
11250W        W28097   8.788   4.255   2.637  0.2223 -0.0152 -0.1992
11251W        W28098   9.664   0.205   4.201  0.2178 -0.1457 -0.0598
11252W        W28099   7.421   4.398  13.517 -0.3491  0.0679 -0.1336
11253W        W28100   9.657  16.512  15.149  0.0299 -0.0260 -0.5872
11254W        W28101   1.842  13.709  14.828  0.1740  0.3583 -0.2021
11255W        W28102   5.128  12.780   4.347 -0.1052  0.0537 -0.1879
11256W        W28103   7.193  13.178   1.806 -0.0198  0.2454  0.0088
11257W        W28104  12.819  17.256   2.518 -0.1164 -0.0200 -0.3953
11258W        W28105   6.714   6.508  13.895 -0.2270  0.2318  0.1210
11259W        W28106  15.128   7.383  11.296  0.1509 -0.2907 -0.1845
11260W        W28107  11.445  17.816   0.656 -0.0581  0.1116 -0.0878
11261W        W28108   1.983   2.542   0.275  0.0464 -0.2741  0.3612
11262W        W28109  12.937  13.385   2.579  0.0717 -0.2487  0.1619
11263W        W28110   8.699   1.879   4.885 -0.2031 -0.0801 -0.1714
11264W        W28111   3.371  14.889  14.245  0.2521 -0.1705 -0.1192
11265W        W28112  15.465  12.903  13.412  0.0295 -0.1448 -0.1714
11266W        W28113   0.657  11.144   1.985 -0.2726 -0.0115  0.0622
11267W        W28114  17.417  12.664  11.793  0.1730  0.0955 -0.4503
11268W        W28115   5.771   3.035   0.731  0.2733  0.0451 -0.1076
11269W        W28116  10.355  18.762   2.244  0.1546 -0.1999 -0.1704
11270W        W28117   9.384  17.729  10.130 -0.5542 -0.1549 -0.1787
11271W        W28118  11.182   0.151  12.100 -0.1353 -0.0738  0.0076
11272W        W28119  10.974  12.399   3.552  0.2082 -0.0436 -0.0285
11273W        W28120  13.707   5.066   3.431 -0.0133 -0.2609 -0.0381
11274W        W28121   9.498  18.592   1.547  0.0285 -0.4592 -0.0116
11275W        W28122   8.987   6.330   5.566 -0.0886 -0.0823  0.1058
11276W        W28123   6.042   7.599  10.718  0.0176  0.1150 -0.2193
11277W        W28124   6.011   8.629   0.387  0.0654  0.3859  0.0570
11278W        W28125  15.023   1.087   0.336 -0.1401 -0.0847 -0.0665
11279W        W28126   1.097   1.209  15.329 -0.0577  0.0126 -0.1178
11280W        W28127   4.436  16.378  14.806  0.2654  0.0576 -0.2699
11281W        W28128   1.092   7.653   3.700 -0.1192 -0.2533  0.0275
11282W        W28129   3.524  11.113   0.520  0.0656  0.0618 -0.3417
11283W        W28130  13.964   2.278   2.288  0.0000 -0.1463 -0.1644
11284W        W28131   9.744  13.636  10.609  0.0629  0.2174  0.0406
11285W        W28132   1.518   6.297  12.429 -0.2294 -0.1977 -0.1081
11286W        W28133   8.414  12.007  12.421  0.0059  0.1509 -0.0621
11287W        W28134  17.311   6.675  13.337  0.3374 -0.1925  0.0707
11288W        W28135   5.514   6.008   4.361  0.4492  0.1659  0.2774
11289W        W28136   4.567  10.382  15.415 -0.0875  0.0937  0.1157
11290W        W28137   1.431   6.990  15.572  0.1843 -0.3075 -0.1560
11291W        W28138  16.115   7.355   3.159 -0.0009  0.0490  0.3253
11292W        W28139   8.097  11.166   2.179  0.0403 -0.2844 -0.2994
11293W        W28140  13.657   0.767   4.023  0.2174  0.0793 -0.1019
11294W        W28141   1.180   1.572  14.391 -0.0083 -0.1070  0.1205
11295W        W28142   3.180   2.745  11.350  0.0785 -0.2030 -0.1544
11296W        W28143  17.566   4.556  11.617 -0.1927 -0.3280  0.0371
11297W        W28144  18.800   1.087   3.413 -0.1137 -0.1269 -0.1829
11298W        W28145  16.330   2.001  12.968 -0.0524 -0.1214 -0.1025
11299W        W28146  12.116   4.325   2.846  0.0587  0.1117 -0.2508
11300W        W28147  17.993   7.812   0.647  0.1503 -0.1728 -0.1400
11301W        W28148   5.146  15.431  11.805  0.0423 -0.2006 -0.2487
11302W        W28149   9.438  15.254  13.995 -0.1776 -0.3895  0.0469
11303W        W28150   4.378  18.231  13.609 -0.1284 -0.2449 -0.4307
11304W        W28151  15.571  18.429  13.969 -0.1651 -0.0924  0.0724
11305W        W28152   5.591   5.920   2.376  0.1327 -0.2837  0.0439
11306W        W28153   7.773   7.793  13.665 -0.0600  0.2796 -0.0605
11307W        W28154   6.016   0.449  12.572  0.0631 -0.1085 -0.1967
11308W        W28155   4.657  12.043   2.391 -0.0882  0.2323  0.0266
11309W        W28156  18.744  18.506   9.991  0.0507  0.1014 -0.0861
11310W        W28157  15.958   6.002   2.911 -0.2237 -0.0248 -0.0102
11311W        W28158  15.959   5.769   3.921  0.0129  0.0805 -0.1161
11312W        W28159  10.390  16.062  12.612  0.0373  0.0940  0.0907
11313W        W28160  13.676  13.135   1.951 -0.0641 -0.0993 -0.0405
11314W        W28161   0.847  14.597  13.215 -0.4055 -0.0129  0.2232
11315W        W28162   1.631  17.774   0.973 -0.0836 -0.0948  0.0749
11316W        W28163  18.496   5.251   1.301 -0.0473 -0.1838  0.1552
11317W        W28164   7.896  10.924  14.977  0.2740 -0.0842 -0.0889
11318W        W28165   3.353   8.461  10.585 -0.2778  0.1354 -0.0160
11319W        W28166   8.987  13.229   0.584  0.0915  0.2274 -0.3944
11320W        W28167   0.298  17.381   1.142 -0.3111  0.0077 -0.0282
11321W        W28168  13.416  10.981  12.365  0.1627  0.1461  0.2583
11322W        W28169  11.816  14.366   1.883  0.1122 -0.1524 -0.1386
11323W        W28170  12.102   7.833   0.951 -0.3005  0.0628 -0.1700
11324W        W28171  18.090  11.469  15.078  0.1348  0.1218  0.2071
11325W        W28172   0.758   3.279  13.802 -0.0503 -0.0450 -0.0090
11326W        W28173   0.556   5.166   3.731  0.0030  0.2414 -0.0644
11327W        W28174   6.426  13.348  10.730 -0.1713  0.1532  0.2453
11328W        W28175  16.798   9.135   2.261  0.1784 -0.2746  0.0691
11329W        W28176  18.760   5.949   3.385 -0.1183  0.1627 -0.1483
11330W        W28177   0.176  16.097   2.450  0.1195 -0.1650 -0.1315
11331W        W28178   0.431  15.996   3.954 -0.1946  0.2917  0.1109
11332W        W28179   6.084   1.109   4.545 -0.1082  0.0692  0.0386
11333W        W28180  13.401   1.661   3.761  0.0147  0.1876 -0.0849
11334W        W28181   5.130   4.208  14.202 -0.1054 -0.1249 -0.0638
11335W        W28182  10.712  12.982  11.964 -0.0156 -0.0893 -0.0523
11336W        W28183  17.842   7.025   1.293 -0.1210  0.0307  0.3002
11337W        W28184   7.783  15.980  14.549 -0.0274  0.0417  0.1331
11338W        W28185  10.662   8.740  15.229 -0.1032  0.0971 -0.2937
11339W        W28186   9.420   4.675  15.175  0.0979  0.1186 -0.0576
11340W        W28187  10.823  16.522   1.054 -0.0070 -0.0453  0.2111
11341W        W28188   1.725  14.835  13.113  0.0472 -0.2099 -0.0595
11342W        W28189   7.593  16.669  14.183  0.3813  0.0064  0.3866
11343W        W28190  11.332   7.322  12.033  0.2242 -0.0934 -0.0174
11344W        W28191   8.385  15.173   0.549 -0.0455  0.0787 -0.0446
11345W        W28192   9.447   1.699  10.661 -0.3092  0.1598 -0.0457
11346W        W28193   6.786   2.902   2.497 -0.1355 -0.1560  0.2867
11347W        W28194   0.560  11.952   0.080 -0.0473  0.0934  0.1308
11348W        W28195   4.729  14.318  10.496  0.0405  0.1276  0.5279
11349W        W28196   4.746  14.257  14.388 -0.1420 -0.0350 -0.2974
11350W        W28197   7.236  11.094  14.602 -0.0131  0.2207  0.2460
11351W        W28198   9.004   4.683   4.036  0.4685 -0.1923 -0.0708
11352W        W28199   7.621  13.284  13.766 -0.0814 -0.1686 -0.2554
11353W        W28200   8.408   5.354  14.228 -0.1417 -0.0074 -0.0595
11354W        W28201   4.661  10.836  14.352 -0.1930  0.0053  0.0707
11355W        W28202   1.679   4.101  13.782 -0.1533 -0.0290  0.0168
11356W        W28203   6.911  10.717  14.803 -0.2050  0.1821  0.2241
11357W        W28204   9.499  14.136  15.705 -0.2147  0.3562  0.2300
11358W        W28205   9.649   2.362   0.090 -0.0160  0.1305 -0.0553
11359W        W28206   2.185  17.838  15.039  0.0987  0.2833  0.1487
11360W        W28207  16.472   3.261   4.404 -0.3738  0.2550 -0.1846
11361W        W28208   4.889   4.020  15.709 -0.0420  0.2788  0.2005
11362W        W28209  10.138  11.428  11.861 -0.1615  0.0105  0.1672
11363W        W28210   5.268   9.004  11.039  0.3680  0.0869 -0.1713
11364W        W28211   2.155   5.860   0.844 -0.0109  0.5331 -0.1286
11365W        W28212   0.035  10.927  12.228  0.0630  0.0581 -0.1637
11366W        W28213   4.322   6.511  12.941 -0.1625  0.3228 -0.1065
11367W        W28214  11.676   7.754  13.469  0.0535  0.2809 -0.1652
11368W        W28215  15.812   4.309   2.057  0.2449  0.3988 -0.1592
11369W        W28216   8.232   8.144   3.931 -0.1622  0.2026 -0.3889
11370W        W28217   3.783   7.610   1.470  0.2187  0.1452 -0.0341
11371W        W28218   9.390   7.818   1.398 -0.2443  0.2307 -0.4592
11372W        W28219   1.225   7.457   4.184 -0.0238  0.1966  0.1429
11373W        W28220  18.323   9.451  13.526 -0.0331  0.0830  0.0971
11374W        W28221  11.740   2.115   3.400 -0.1188  0.2082 -0.1516
11375W        W28222   0.308   5.931  14.686 -0.0789 -0.0748  0.1485
11376W        W28223   9.731  15.108  13.003  0.3105 -0.1415 -0.2735
11377W        W28224   8.878  15.946  13.618 -0.1831  0.1190  0.0474
11378W        W28225   0.671   8.318   3.251 -0.5191  0.0258  0.3134
11379W        W28226  11.424  13.492  10.799 -0.0104 -0.1342  0.0412
11380W        W28227   5.715   2.511  11.180  0.1618 -0.1362 -0.2195
11381W        W28228  16.847  14.906  13.565  0.2144  0.1324  0.1405
11382W        W28229   9.238   2.763  14.887 -0.0179  0.0459  0.0320
11383W        W28230  11.744   5.144   0.825  0.0951  0.1210  0.4091
11384W        W28231   1.172   6.169   1.070 -0.3327  0.2838  0.2501
11385W        W28232   5.778   7.065   0.598 -0.0970 -0.1616  0.1555
11386W        W28233   6.229  10.969   4.997  0.0505  0.1818 -0.0109
11387W        W28234   2.315   2.337   5.616  0.0774 -0.1666 -0.2390
11388W        W28235  18.396  10.772   3.115 -0.1276 -0.0499 -0.2808
11389W        W28236  18.383  10.162  12.092 -0.0310 -0.3449  0.3739
11390W        W28237   1.424  17.982   3.738  0.3943 -0.3303 -0.0640
11391W        W28238  18.421   8.485   0.828 -0.1573 -0.0545  0.0222
11392W        W28239   4.114   8.199   3.278 -0.0122 -0.3163  0.1424
11393W        W28240   2.708   7.292  11.276 -0.3432 -0.0452  0.0244
11394W        W28241   2.905   7.784  13.015 -0.0919 -0.2988  0.1152
11395W        W28242  10.162  14.797   3.303 -0.1105  0.4088  0.1780
11396W        W28243   1.988   2.689  11.565 -0.2315  0.0227  0.2604
11397W        W28244   4.423   1.790   1.854  0.3473 -0.0780  0.1558
11398W        W28245   2.288   1.627  14.858  0.2257  0.3410  0.1453
11399W        W28246   3.872  12.136   3.749  0.0671  0.0254 -0.0994
11400W        W28247  14.499  18.266  11.344  0.0702 -0.2892  0.0115
11401W        W28248   1.276  12.873   5.007  0.0477  0.0894  0.1896
11402W        W28249   6.266  14.256  12.005 -0.0454 -0.1901 -0.1091
11403W        W28250  16.582   9.362   3.868  0.2358  0.1948 -0.0275
11404W        W28251  11.817  10.561   3.714  0.4738  0.0508  0.1530
11405W        W28252   1.764  13.160  13.890  0.1485  0.1928  0.0965
11406W        W28253   5.206   2.990   4.146 -0.1491  0.0311 -0.2333
11407W        W28254   6.784   5.063   5.202  0.1794 -0.1890 -0.2351
11408W        W28255   1.932  15.994   0.897 -0.1486 -0.2508 -0.1353
11409W        W28256  11.998  18.043   3.337  0.5249  0.4032  0.0088
11410W        W28257   7.333  12.466   2.259  0.3400 -0.0290 -0.1424
11411W        W28258   7.381   5.923  15.736  0.1473  0.2666  0.0516
11412W        W28259   8.540  16.263   4.634 -0.3824 -0.1722  0.0888
11413W        W28260  14.070   0.928   2.784 -0.4171 -0.0209 -0.1320
11414W        W28261   0.093   4.920  14.892  0.1911  0.2282 -0.0037
11415W        W28262   1.840  17.972  13.816  0.2265 -0.0225  0.0190
11416W        W28263  14.184  10.194   1.977  0.0046  0.0600  0.1555
11417W        W28264   0.351   7.163   3.814 -0.0151 -0.0125 -0.0279
11418W        W28265   8.684  12.664   1.349 -0.2575 -0.2224 -0.0979
11419W        W28266   8.296   3.556  15.453 -0.0405  0.1994  0.2034
11420W        W28267   8.597   6.641  10.711  0.0687  0.2260 -0.1881
11421W        W28268   0.936   3.410  14.255 -0.1053 -0.0790 -0.1598
11422W        W28269   5.163   8.834   3.036  0.1902  0.0842  0.0141
11423W        W28270   2.098   8.682   0.093  0.2312  0.1031  0.0008
11424W        W28271  10.384  13.367  14.547 -0.3771  0.0824 -0.1230
11425W        W28272   7.709  18.545  11.690 -0.0833 -0.0424 -0.0328
11426W        W28273  15.290   5.682   4.297  0.0316  0.0114 -0.2210
11427W        W28274  11.277   2.196  11.849 -0.0876  0.0365  0.2964
11428W        W28275  16.470  11.201  13.110  0.0617  0.1127  0.0615
11429W        W28276   1.825   1.796  13.847  0.2932  0.1793  0.2460
11430W        W28277  14.258  17.703  14.656 -0.2375 -0.0480  0.1670
11431W        W28278   1.951   0.439  13.493 -0.2430 -0.1175 -0.0739
11432W        W28279  14.184   4.239  12.881 -0.2678  0.2153  0.0381
11433W        W28280   4.802   2.054   4.027 -0.2591 -0.0071  0.0360
11434W        W28281   8.921  15.008   3.171  0.0947  0.1215  0.0364
11435W        W28282  13.299  15.832  12.987  0.1141 -0.1583  0.3636
11436W        W28283  18.257   2.049   1.913 -0.1621  0.1867  0.0434
11437W        W28284  14.060   9.083  11.219 -0.0321 -0.0065 -0.2499
11438W        W28285   1.725   8.376  15.651 -0.2364 -0.0261 -0.1427
11439W        W28286   8.919  11.173   3.343 -0.0396  0.0038  0.0558
11440W        W28287  14.015   5.898   5.448  0.2890 -0.3452 -0.3999
11441W        W28288   8.988  17.193  15.175  0.1789  0.1181 -0.0674
11442W        W28289  10.200  10.484   1.211  0.0339  0.1142 -0.0661
11443W        W28290   4.601  10.315  14.377  0.0300 -0.0166 -0.1003
11444W        W28291   8.226  11.698  11.525  0.1057 -0.1677  0.0218
11445W        W28292  18.574   3.742   5.095 -0.3599 -0.2036 -0.2123
11446W        W28293  13.640  18.563  12.203  0.2323  0.0813  0.3485
11447W        W28294  11.753  18.056   2.054  0.2207 -0.2100  0.0543
11448W        W28295  12.725   2.792   1.689 -0.0531 -0.1132  0.0074
11449W        W28296   4.906   6.835   4.512 -0.1770  0.2064  0.0247
11450W        W28297  12.692   3.925   3.368  0.1029  0.0206  0.2235
11451W        W28298   5.182   9.031   0.809 -0.0537  0.2790 -0.0433
11452W        W28299   7.305   8.897  15.558  0.2894 -0.0275 -0.1039
11453W        W28300   2.761  14.143   3.435  0.1686  0.0119 -0.1556
11454W        W28301   3.625   0.889  12.333  0.0003  0.0549  0.0999
11455W        W28302  11.058  15.550  11.931 -0.4312 -0.0216  0.2090
11456W        W28303   2.332  10.352   4.012  0.2991  0.0554 -0.0854
11457W        W28304  10.316  18.172  14.933 -0.0507 -0.0070  0.0319
11458W        W28305  18.616   4.477   4.386 -0.0317 -0.1901 -0.1268
11459W        W28306   0.557  13.146  12.739 -0.1615  0.4402 -0.0159
11460W        W28307   2.190  17.414   3.512 -0.0931 -0.2100 -0.1841
11461W        W28308  12.936   5.836  15.093  0.0087 -0.3306 -0.3165
11462W        W28309   9.079   8.363  13.602 -0.2185 -0.2653  0.0530
11463W        W28310   7.821   6.127   0.845 -0.1595 -0.0543  0.1196
11464W        W28311  13.342  16.751   0.289  0.0082  0.0518  0.0958
11465W        W28312  11.290   2.762  12.290 -0.3286  0.0322  0.1480
11466W        W28313   6.987   8.223  14.161  0.0245  0.1991 -0.1128
11467W        W28314   9.127   1.339  10.848  0.1381  0.0068 -0.0993
11468W        W28315   8.299  16.158   2.845 -0.0690 -0.1607 -0.0690
11469W        W28316   3.881   7.345   1.899  0.0935  0.2685 -0.2134
11470W        W28317   5.612   4.675  11.694  0.1775  0.0096  0.4001
11471W        W28318  18.230   5.766  12.424  0.1640 -0.2035  0.0852
11472W        W28319   1.518   6.935   0.906 -0.1440  0.2610 -0.0287
11473W        W28320   2.339  14.013   4.170 -0.1625 -0.0142  0.1314
11474W        W28321   1.101   7.144   1.354 -0.0329  0.2774  0.2879
11475W        W28322   1.580  10.690   3.395 -0.1335 -0.0048  0.0305
11476W        W28323  12.167  11.708  13.096  0.0501 -0.1920  0.2517
11477W        W28324  16.624   4.990   2.556 -0.0464 -0.0229  0.1429
11478W        W28325  14.528  11.864  13.857 -0.3028  0.1528  0.2511
11479W        W28326   0.318   8.099   3.445  0.0180  0.1369  0.0279
11480W        W28327  10.113  16.524  12.655  0.2462 -0.1611  0.3576
11481W        W28328  17.231   8.350  14.068  0.1394  0.0281  0.0382
11482W        W28329  15.774  16.116   0.136 -0.0983  0.0569 -0.0172
11483W        W28330  12.867   0.668  11.666 -0.2175 -0.2616  0.0316
11484W        W28331  12.481   7.937   5.704 -0.2684  0.2024 -0.0458
11485W        W28332   4.260   3.242  12.838  0.4416 -0.0908 -0.2358
11486W        W28333   7.507   2.456  13.684 -0.0423  0.2148  0.2920
11487W        W28334   2.926   8.946  15.056  0.1316  0.1173 -0.0489
11488W        W28335   9.815   6.633  12.901  0.0563  0.0849 -0.2627
11489W        W28336  11.992   3.860   5.648 -0.0282 -0.3251 -0.0287
11490W        W28337   5.885  18.282  13.941 -0.0067 -0.1568 -0.2070
11491W        W28338  10.438  10.325   1.732 -0.0304  0.3761 -0.2177
11492W        W28339   5.058   6.472  14.205  0.1547  0.0982  0.0052
11493W        W28340   4.064   5.834   1.176  0.1106  0.1960 -0.1608
11494W        W28341   8.747   1.092   2.836  0.2190  0.1721 -0.1207
11495W        W28342  13.739  17.080   0.521  0.0436 -0.0660  0.3255
11496W        W28343  13.598  17.266   3.765  0.0102  0.0048 -0.0607
11497W        W28344   6.774  12.645   2.356  0.0788  0.1933  0.0632
11498W        W28345   0.507   3.557   4.756  0.0521 -0.0079  0.0332
11499W        W28346  12.443   3.325  14.135 -0.0313  0.1497 -0.1028
11500W        W28347   4.082   6.198  11.245  0.1255 -0.1705 -0.2301
11501W        W28348   9.959   1.812  13.486  0.2259 -0.0024  0.0189
11502W        W28349   1.288  18.310   3.336 -0.3121 -0.1814  0.0399
11503W        W28350  13.740   0.581   2.167  0.0819 -0.0942 -0.0262
11504W        W28351  11.495  14.021   4.045 -0.3824 -0.0961 -0.0967
11505W        W28352  12.707   9.414   3.078  0.0290 -0.3117 -0.1644
11506W        W28353  17.425  16.883   3.928 -0.0085 -0.2985  0.0879
11507W        W28354  11.714   3.076   0.708  0.1167 -0.1059 -0.0384
11508W        W28355   6.668   0.514   0.328 -0.4064  0.2221 -0.1562
11509W        W28356   1.613  10.957   4.484  0.0307  0.0290 -0.0560
11510W        W28357  13.322   1.556   1.347 -0.0733 -0.1486  0.1802
11511W        W28358  15.718   9.749   1.106 -0.1951  0.2385  0.4502
11512W        W28359   7.162   2.677   4.154  0.3450  0.4469 -0.0034
11513W        W28360   2.834   7.144  14.359 -0.3007 -0.0589 -0.1391
11514W        W28361   2.844   7.088  12.811  0.1773  0.1302 -0.2180
11515W        W28362   7.880  10.533  10.698 -0.0851 -0.1881  0.0722
11516W        W28363   9.081   1.613   2.934  0.0260 -0.2056  0.0939
11517W        W28364  18.529  11.208  14.869  0.0379  0.1894  0.0691
11518W        W28365   5.322   9.060  11.573  0.2680 -0.2142 -0.1323
11519W        W28366  10.261   6.877   1.894  0.0501  0.1532  0.3358
11520W        W28367  16.583  13.116  11.614  0.1974 -0.0632 -0.1622
11521W        W28368  17.427   0.097  13.619 -0.0849 -0.3444  0.4310
11522W        W28369  16.261  15.716   3.480  0.0746 -0.0965 -0.1407
11523W        W28370  16.092   3.711  15.487 -0.1405 -0.0160 -0.1592
11524W        W28371   6.162   5.159   3.479  0.0523 -0.0070 -0.0466
11525W        W28372   9.709   2.363  14.128 -0.0420 -0.2392  0.0341
11526W        W28373   2.601  13.543   0.473  0.1010  0.1770  0.2831
11527W        W28374   9.801   9.812   4.627  0.2792  0.1296  0.1695
11528W        W28375   9.837   5.309  14.021  0.0969 -0.0930 -0.0035
11529W        W28376  13.285  13.441  14.151 -0.4574 -0.0280  0.2253
11530W        W28377   0.365   4.721   3.653  0.5563  0.0048 -0.0824
11531W        W28378   0.898   8.085   3.737  0.1834  0.0853 -0.1242
11532W        W28379  12.609  10.671  15.578 -0.2038  0.1910  0.4496
11533W        W28380   8.822   7.289   2.791  0.0918  0.0843  0.0755
11534W        W28381   6.299   3.203  15.368  0.0855  0.0704 -0.1755
11535W        W28382   0.030   2.654   2.307 -0.0460  0.1886 -0.1280
11536W        W28383  16.531   8.383  12.015  0.2976 -0.1532  0.1233
11537W        W28384  10.807   5.530  11.562  0.3066 -0.3343 -0.0784
11538W        W28385   9.679   6.081   1.930 -0.1713  0.0744  0.3656
11539W        W28386   2.326  16.548  14.882  0.1916  0.0229 -0.3873
11540W        W28387   1.930   3.451   2.155 -0.0123  0.0397 -0.1911
11541W        W28388   0.952   8.457  14.819 -0.0648 -0.1055 -0.2042
11542W        W28389  13.556   1.245   4.081  0.1820  0.0865  0.0224
11543W        W28390   4.303  17.152   4.882 -0.1879 -0.1203  0.2143
11544W        W28391   8.005  14.528   2.360  0.2192  0.1088 -0.1244
11545W        W28392   4.639   1.921  15.072  0.0579 -0.0270 -0.0394
11546W        W28393  16.965   9.236   1.048 -0.1921  0.1650  0.1084
11547W        W28394  12.885   5.561   3.871  0.2354  0.0743  0.0529
11548W        W28395   3.048  10.904   0.238 -0.1079 -0.2387  0.2392
11549W        W28396   5.305  16.614   1.032  0.2186 -0.0053  0.0103
11550W        W28397  10.781   9.011   3.527  0.1863 -0.0591 -0.1011
11551W        W28398   1.986   3.482  10.215 -0.4019  0.0778  0.0261
11552W        W28399   0.724   9.717   1.264  0.0344  0.1236  0.2028
11553W        W28400  12.818   4.393   1.333 -0.0568 -0.2508  0.2286
11554W        W28401  10.131   5.104  11.028 -0.1332 -0.1405  0.0783
11555W        W28402   0.467   8.483   0.919 -0.1242  0.5314  0.1548
11556W        W28403  17.680   8.125   0.396  0.1077  0.1011  0.0849
11557W        W28404  13.937   7.443  10.421  0.3779  0.1879 -0.0856
11558W        W28405   0.001  14.851   1.191  0.1045 -0.1665 -0.0707
11559W        W28406  16.597  10.776   0.374  0.3964 -0.0505 -0.0042
11560W        W28407  12.855   3.434   3.970 -0.1507  0.2444 -0.3425
11561W        W28408   0.615  18.122  13.089 -0.2862  0.1699 -0.1651
11562W        W28409   0.813  17.970  11.627 -0.0239 -0.2582  0.0141
11563W        W28410  18.598  10.737   2.596  0.3113 -0.2581  0.1170
11564W        W28411   5.605   2.876  14.391  0.0536 -0.1905 -0.0685
11565W        W28412   9.894   7.000   3.403 -0.1139 -0.3173  0.1709
11566W        W28413   6.745   6.080  12.256 -0.0316  0.2129 -0.0403
11567W        W28414  12.915   4.812  14.821  0.1430 -0.1645 -0.0671
11568W        W28415   0.923   9.971  15.347 -0.1491 -0.1619 -0.3892
11569W        W28416  13.555   2.500   4.844 -0.0954 -0.1515  0.2082
11570W        W28417   3.449  10.231   3.819  0.1579  0.0043 -0.5713
11571W        W28418  12.396   5.214  10.827 -0.0673 -0.1214 -0.5243
11572W        W28419  14.004  17.404  14.104 -0.2304  0.1312  0.0915
11573W        W28420  11.538   6.016  11.688  0.3327  0.1082  0.0297
11574W        W28421  14.204   5.483  13.178 -0.0374  0.0209  0.2137
11575W        W28422  15.389   8.366   5.854  0.0385 -0.0909 -0.2997
11576W        W28423  12.632  14.429   1.295 -0.1458  0.2256  0.0815
11577W        W28424  13.699  15.578   0.549 -0.1027  0.3076  0.1253
11578W        W28425  14.885  15.172   3.376 -0.2167 -0.0748  0.0233
11579W        W28426   3.728   5.812  13.500 -0.1267  0.1964  0.3791
11580W        W28427  18.225  17.477   0.641 -0.2767 -0.1067  0.1378
11581W        W28428   7.362  18.429   0.602 -0.1271  0.1266  0.2416
11582W        W28429  18.015  12.737  13.602  0.0990 -0.0137 -0.1517
11583W        W28430   2.488  17.739   0.251  0.2771  0.1785  0.1353
11584W        W28431  12.685   2.662  12.591 -0.4026  0.2721 -0.0622
11585W        W28432  15.353   5.101  15.602  0.2360  0.1018 -0.0726
11586W        W28433   4.694   0.647   4.827 -0.1966 -0.1993  0.2890
11587W        W28434   0.625   4.053  12.064  0.1357 -0.1037  0.1527
11588W        W28435  13.128   4.666  13.073 -0.5317 -0.2320 -0.3047
11589W        W28436   8.500  15.746   1.992 -0.0585  0.1542  0.0091
11590W        W28437   3.455   8.041   4.021  0.0239 -0.3226  0.1238
11591W        W28438  13.716   3.958   4.462 -0.0653 -0.0784 -0.1534
11592W        W28439   1.530  12.250   2.654  0.0115 -0.0572  0.2689
11593W        W28440  18.257  16.703  14.372 -0.2513  0.2167 -0.1728
11594W        W28441  15.344   8.326   1.814  0.1616 -0.2688 -0.0023
11595W        W28442   4.651   6.362  12.547  0.1006 -0.4115  0.1770
11596W        W28443   0.753   5.199   2.925  0.1509 -0.2318 -0.2427
11597W        W28444   2.375   3.330   0.567 -0.2461  0.0352 -0.0571
11598W        W28445  18.516   7.817   4.838  0.1768  0.0605  0.0346
11599W        W28446  12.168   8.376   1.080 -0.1144 -0.0291  0.0075
11600W        W28447   4.446  12.283  11.173  0.1126  0.3153 -0.1883
11601W        W28448   6.091   2.374   0.162  0.1402 -0.1556 -0.0989
11602W        W28449   2.507  10.318  11.876  0.3825 -0.0068  0.1625
11603W        W28450  16.316  11.477  15.561  0.0832  0.0238  0.0216
11604W        W28451   8.237   6.134  11.960  0.1457 -0.1019 -0.0963
11605W        W28452  18.122  10.415  15.173 -0.1536  0.0497  0.0351
11606W        W28453  16.044   1.549  15.224 -0.0453  0.0527  0.0079
11607W        W28454   2.943   2.742   0.447 -0.1668 -0.1218  0.2962
11608W        W28455   4.086  15.472  14.317  0.1033 -0.1742 -0.1315
11609W        W28456   5.982   9.533   4.333 -0.3681  0.2114 -0.0920
11610W        W28457  12.340  11.956   2.894  0.1076  0.2343 -0.0725
11611W        W28458  14.242   9.227   2.189 -0.1442  0.1491  0.0053
11612W        W28459   0.019   5.477   3.298 -0.0708 -0.0439  0.2705
11613W        W28460   2.084  16.621   2.821 -0.0755 -0.0225 -0.3196
11614W        W28461   2.980   8.607  14.147  0.0938 -0.0032  0.2010
11615W        W28462   3.464  12.778  12.295  0.0624  0.0810 -0.0460
11616W        W28463  11.747   8.930  11.422  0.0721 -0.1306 -0.0149
11617W        W28464   2.660  10.280  15.300 -0.2166  0.0909  0.1717
11618W        W28465  17.116  17.369  15.296 -0.1610  0.0699  0.0932
11619W        W28466  16.234  17.338   1.945 -0.1271  0.5027 -0.0323
11620W        W28467   4.338  14.420   2.645  0.0335  0.0277  0.0019
11621W        W28468  11.176  15.841  14.263 -0.0334  0.2292  0.0991
11622W        W28469  11.656   7.315   0.035  0.1059  0.0951  0.3580
11623W        W28470   3.890   8.779  15.459  0.0179  0.2181 -0.1122
11624W        W28471  18.781  16.644   5.731 -0.0736 -0.0304  0.2131
11625W        W28472  17.357  16.640   3.425 -0.3567  0.2079  0.1758
11626W        W28473  16.505   8.100   1.696  0.0505  0.2073 -0.0628
11627W        W28474  11.601  10.534   4.205  0.1465  0.2023 -0.3551
11628W        W28475  18.168  15.290   1.362 -0.0903  0.0356 -0.1375
11629W        W28476  18.099   2.102  13.303 -0.1892 -0.0193 -0.0241
11630W        W28477  10.154  10.762  15.253 -0.0546  0.1790  0.0442
11631W        W28478   1.642  14.830  11.647 -0.2520 -0.2183 -0.1408
11632W        W28479   9.274   7.116   1.172  0.0028  0.2115  0.0964
11633W        W28480  18.510  17.462  14.005 -0.0759  0.1606 -0.1957
11634W        W28481   2.701  18.757  15.135  0.2675  0.0622  0.0817
11635W        W28482   5.889   5.108   4.455  0.3932 -0.0328 -0.1708
11636W        W28483  11.459   4.492  12.933  0.0270 -0.0795 -0.3987
11637W        W28484   2.122  11.555   0.675 -0.4314  0.0671  0.4542
11638W        W28485   8.879  12.190   3.401 -0.3084  0.1043  0.1162
11639W        W28486   9.268   3.779  15.258  0.0110  0.0813  0.2875
11640W        W28487  14.883  14.771  12.628  0.0506  0.1571  0.3355
11641W        W28488   1.180   9.222   3.500 -0.0277 -0.2504  0.0584
11642W        W28489   7.073   0.255   4.769 -0.0474  0.0543 -0.4615
11643W        W28490  13.594   5.263  11.159 -0.2301 -0.4547 -0.2336
11644W        W28491  12.504   8.135   0.697  0.1356 -0.0534  0.1580
11645W        W28492  18.181   1.663   0.162  0.2893  0.0732 -0.0771
11646W        W28493   4.122  17.221   0.484  0.0549 -0.1098 -0.0975
11647W        W28494  12.123  17.048  13.908  0.5442 -0.0566  0.0069
11648W        W28495  16.082   7.550   0.613 -0.1033  0.0128  0.2078
11649W        W28496   0.065  15.533   1.255 -0.0821  0.0039 -0.1011
11650W        W28497  15.651   5.328   1.062  0.0733 -0.1371  0.0203
11651W        W28498  10.611   2.909  12.002  0.1105 -0.1894 -0.3784
11652W        W28499  10.275  12.310   3.068 -0.5321  0.3839  0.1638
11653W        W28500  15.195  12.160   3.648 -0.2025  0.0360 -0.6502
11654W        W28501  11.789  11.443   1.205 -0.0451 -0.1209  0.1339
11655W        W28502  14.159   9.390   0.868 -0.2795 -0.1526  0.0530
11656W        W28503   8.719   9.776   4.048  0.0063  0.3931 -0.2719
11657W        W28504  18.552   0.006   4.904 -0.1853  0.0409 -0.0041
11658W        W28505  10.882   4.501  15.213  0.1353 -0.0647  0.3468
11659W        W28506  10.649  15.787   0.610 -0.1604 -0.2188 -0.2787
11660W        W28507   0.045  10.361   2.659 -0.0770  0.1968  0.0131
11661W        W28508   2.805  18.644  10.761  0.0672 -0.1381 -0.0617
11662W        W28509   0.745  15.476   3.009 -0.1599 -0.1417 -0.0524
11663W        W28510   9.390   7.075  14.900 -0.1773  0.2851 -0.1194
11664W        W28511  17.618   3.703  11.690 -0.1423  0.2271  0.1594
11665W        W28512  18.054   2.274  12.881 -0.0669  0.0562 -0.0797
11666W        W28513   8.691  14.032  12.937 -0.0748  0.2111  0.0332
11667W        W28514   1.211  15.342  12.658  0.2517 -0.0658  0.1213
11668W        W28515  13.717   4.191  12.387 -0.1910 -0.0965 -0.0667
11669W        W28516   9.864  12.503  13.531 -0.0449 -0.2521 -0.0581
11670W        W28517   3.609   5.380   0.898  0.1013  0.0055  0.3386
11671W        W28518  17.637  15.563  13.786 -0.0314  0.0764 -0.2466
11672W        W28519  16.894  18.774   3.315  0.0520 -0.0116  0.0945
11673W        W28520   3.620  13.646   3.956  0.0199  0.2312 -0.0472
11674W        W28521   4.979   7.285  13.905  0.2093  0.0774 -0.2235
11675W        W28522   7.742  15.709  12.744  0.3343  0.5047 -0.1073
11676W        W28523   8.265   8.763  15.740 -0.3114  0.0823 -0.0497
11677W        W28524   9.624  13.445  11.630  0.1057 -0.1067 -0.0991
11678W        W28525   5.866   7.490  11.923 -0.0595  0.1523 -0.0529
11679W        W28526   2.773  12.154   5.039  0.1349 -0.0180  0.1347
11680W        W28527  14.251  17.687   1.736  0.2993  0.2045 -0.1123
11681W        W28528  10.344  10.080   2.707  0.4222 -0.2672  0.2505
11682W        W28529   6.307   6.067  12.728  0.2793  0.2626  0.0716
11683W        W28530   7.234  15.284  14.678  0.0851 -0.0251 -0.1810
11684W        W28531   3.820   6.584   4.253 -0.2477  0.1174 -0.0530
11685W        W28532  13.091   4.807  14.191  0.1539  0.0484 -0.1246
11686W        W28533   7.677  10.056   4.589 -0.0280  0.0071  0.1299
11687W        W28534  11.259   1.078  12.505  0.1515  0.2199 -0.2445
11688W        W28535  17.301   2.608   3.457 -0.0106 -0.0365  0.1394
11689W        W28536  11.764   0.054  12.233  0.3387 -0.4682  0.4175
11690W        W28537  11.515   6.607   1.369  0.0449 -0.1024 -0.2824
11691W        W28538   6.233   5.073  15.359  0.0609 -0.2925 -0.0054
11692W        W28539   2.465  16.062   0.644 -0.0810  0.1058 -0.1510
11693W        W28540  14.749  10.058  11.259 -0.0043  0.2493 -0.1752
11694W        W28541   3.347  14.047   4.315 -0.0282  0.1547 -0.1555
11695W        W28542  10.865  18.191   0.010  0.0446 -0.1339 -0.1468
11696W        W28543   3.423   3.335  15.556  0.1467  0.2702 -0.0976
11697W        W28544  11.927   1.566  14.092 -0.1249  0.0253  0.5606
11698W        W28545   2.867   2.308   0.318  0.3773  0.0208 -0.0361
11699W        W28546  17.311  14.687  11.164  0.1668 -0.1349  0.0841
11700W        W28547  14.685   6.735  11.602 -0.1944 -0.1492  0.0787
11701W        W28548   2.906  16.703   5.105  0.2743  0.3053 -0.1680
11702W        W28549   4.561  17.297  11.573  0.1854  0.1613  0.1004
11703W        W28550  18.350  17.034   0.102 -0.2206  0.0738 -0.3136
11704W        W28551  18.206   9.971   4.438 -0.0895 -0.0488  0.1521
11705W        W28552  15.536   2.027   6.042 -0.3468 -0.0578  0.1801
11706W        W28553   1.931   5.054   2.920 -0.0939 -0.0145 -0.0321
11707W        W28554   5.683   2.382  13.994 -0.0976  0.1381 -0.0217
11708W        W28555   2.838   8.737   4.810  0.0382  0.2720 -0.1939
11709W        W28556   6.982   3.491  12.887 -0.1851  0.1701 -0.1127
11710W        W28557   2.147  17.315   4.624 -0.0926  0.0162  0.2413
11711W        W28558  17.796  12.546  12.628 -0.1800 -0.0164 -0.3912
11712W        W28559   4.066  18.033  10.982 -0.1420 -0.1046  0.0430
11713W        W28560   0.966  16.721  11.798 -0.0539 -0.0498  0.2596
11714W        W28561  15.056   3.623  11.734 -0.0757 -0.0535  0.0797
11715W        W28562   6.529   0.373  11.097  0.0121 -0.3823 -0.1796
11716W        W28563  16.339   2.184   1.396 -0.0385 -0.5732 -0.0374
11717W        W28564  11.029   3.139   3.747  0.0277 -0.4490 -0.0663
11718W        W28565   0.512   3.037   0.659 -0.0726  0.2825 -0.4353
11719W        W28566   3.432  18.141   1.134  0.2353 -0.0053 -0.0044
11720W        W28567  18.406  18.766  11.538 -0.1077  0.0078 -0.1274
11721W        W28568   9.811   4.436  11.619  0.1449 -0.0579  0.2097
11722W        W28569   1.799   1.732  11.019  0.4336  0.1030  0.1021
11723W        W28570  15.432   1.153   3.421  0.1221 -0.1242  0.2680
11724W        W28571   8.140  10.593   0.007 -0.0946  0.0153 -0.1492
11725W        W28572  16.016   9.518  12.757 -0.0457  0.1214  0.2390
11726W        W28573   6.013   7.861   5.487 -0.1190  0.1711  0.1233
11727W        W28574  18.595  12.184   2.974  0.1309 -0.1105  0.3059
11728W        W28575  18.544   8.682   4.534  0.2722  0.1483 -0.2176
11729W        W28576   6.429  11.986  12.221  0.1219 -0.0653  0.1592
11730W        W28577   1.388   0.658  10.852 -0.0638 -0.3520 -0.0874
11731W        W28578   7.590   1.036  12.705  0.0476  0.3863  0.0554
11732W        W28579   5.435   4.041   4.036 -0.1196 -0.2572 -0.2216
11733W        W28580  13.083  14.109  11.231 -0.2371  0.1881  0.0652
11734W        W28581  13.704   0.239  13.304 -0.0440 -0.2102  0.0707
11735W        W28582  17.446   4.068   0.850  0.1573 -0.2390  0.0132
11736W        W28583  15.277  17.543  13.746 -0.1028  0.1991 -0.0807
11737W        W28584   8.601   6.154  11.028 -0.0205 -0.0213 -0.3087
11738W        W28585  16.387   2.123   5.188  0.3668  0.1353  0.2998
11739W        W28586  15.539  16.915   3.287  0.0173  0.0022  0.1257
11740W        W28587   1.858   8.304  14.575 -0.3339  0.1007  0.2877
11741W        W28588  11.172   6.316  12.072 -0.3354  0.0012 -0.1745
11742W        W28589   5.886  15.605   0.771  0.0071 -0.0549  0.0718
11743W        W28590   5.024  13.406  12.249 -0.4330 -0.3817  0.0837
11744W        W28591   8.205   4.111   4.326  0.1678  0.1557  0.2120
11745W        W28592   3.088   2.468  13.420 -0.0246  0.4655 -0.0435
11746W        W28593  17.226  13.746   4.778 -0.0645 -0.1351  0.1302
11747W        W28594   3.932  10.005   0.322  0.1144  0.0094  0.1403
11748W        W28595  17.924  17.655  15.394  0.3249  0.0306  0.0517
11749W        W28596  14.478  17.777   0.391 -0.0128  0.4464  0.2094
11750W        W28597   9.972  11.502   5.060  0.0810 -0.3567 -0.0041
11751W        W28598   1.892   7.411  14.363 -0.1908  0.1553 -0.2318
11752W        W28599  13.228   4.649   3.478  0.0130 -0.2283 -0.0571
11753W        W28600   2.862  15.361  13.599 -0.3373  0.1950  0.0630
11754W        W28601   5.799  13.576  14.650  0.0945  0.0012  0.1654
11755W        W28602   6.775  11.161  10.740  0.1881  0.2169 -0.2070
11756W        W28603  13.779  16.399   3.700  0.1832  0.1061  0.1315
11757W        W28604  11.058  18.813   2.904  0.0034  0.2704 -0.1622
11758W        W28605   9.056   1.842   1.726 -0.1522 -0.1075 -0.0168
11759W        W28606   2.685  12.215  11.642 -0.0441 -0.1843 -0.2067
11760W        W28607  17.970  14.296   4.638 -0.1282  0.0849 -0.3556
11761W        W28608   2.903   3.391  12.432  0.3491 -0.0903 -0.1185
11762W        W28609   4.693  12.144   3.258  0.0044  0.2983  0.0109
11763W        W28610  16.674  12.805   0.768 -0.1867 -0.0927 -0.0269
11764W        W28611  14.566   9.677   4.664 -0.0714 -0.0504 -0.0319
11765W        W28612   5.396   7.605  14.743  0.1303 -0.0136 -0.2691
11766W        W28613   6.831   8.833  14.090  0.2149 -0.0055  0.1431
11767W        W28614  11.043  17.101  11.372 -0.1976 -0.0035 -0.0814
11768W        W28615  17.858  15.496   1.027 -0.1036 -0.0304  0.1600
11769W        W28616   3.273   3.257   0.729  0.3403 -0.0385  0.1728
11770W        W28617  13.943  18.004   1.475 -0.3650 -0.0302 -0.0813
11771W        W28618  15.574  13.633  11.519 -0.0635  0.0046  0.0466
11772W        W28619   1.502   0.426  15.125  0.0951  0.2020 -0.0637
11773W        W28620  12.494   2.757   1.190 -0.0633  0.0105 -0.2584
11774W        W28621   6.205   1.761  13.709  0.2871 -0.0726  0.0337
11775W        W28622   6.827   3.523   0.031  0.1979 -0.1451 -0.1381
11776W        W28623   1.281  11.238  12.929  0.3346 -0.1364  0.0349
11777W        W28624  16.306  14.350  13.559 -0.0381 -0.1379 -0.1962
11778W        W28625   1.974   4.636   4.986  0.2277 -0.1107 -0.0221
11779W        W28626   9.302   2.928  11.175 -0.2661 -0.1682 -0.1840
11780W        W28627   6.887   5.735  13.661 -0.1390  0.1330  0.2784
11781W        W28628   4.199  15.911  15.412  0.4348 -0.0644 -0.2100
11782W        W28629   3.095  11.069   0.747 -0.1841 -0.0172 -0.3221
11783W        W28630  17.254   5.304   0.523  0.1803 -0.2289 -0.1662
11784W        W28631   5.907  17.888  12.203  0.0146  0.1849  0.1356
11785W        W28632  13.669  15.801   4.053  0.1134 -0.1806 -0.0980
11786W        W28633  15.283   5.480  13.689 -0.1981 -0.0992  0.0938
11787W        W28634  10.231  15.693  11.429  0.1955 -0.2434  0.0082
11788W        W28635  11.576   1.855   0.181 -0.0069 -0.1822 -0.0585
11789W        W28636  11.771   9.702  12.408  0.2267 -0.0250 -0.1145
11790W        W28637   6.562   3.925   4.279 -0.2411  0.4084  0.1138
11791W        W28638  10.121   2.779  12.009 -0.2797 -0.0351  0.1139
11792W        W28639   5.785   7.878  12.270 -0.0632 -0.1160 -0.2041
11793W        W28640  17.199  10.045   2.338  0.1531  0.0908 -0.3268
11794W        W28641  13.692  17.269  15.232  0.0795  0.0244  0.5444
11795W        W28642   2.076   8.817  12.882  0.0328  0.1016 -0.1502
11796W        W28643   9.042   3.001  15.778 -0.2578 -0.1809 -0.2486
11797W        W28644  10.594  16.502  12.673 -0.2961 -0.0452 -0.2645
11798W        W28645   5.702  10.543   1.042  0.3409  0.2636 -0.2272
11799W        W28646   9.829   0.478   1.940  0.2090  0.0489 -0.2936
11800W        W28647   1.075   0.866   3.429 -0.1052  0.0080 -0.2342
11801W        W28648  14.862   6.257  12.299  0.2033 -0.1198  0.2100
11802W        W28649  11.770   0.030   2.485  0.0599 -0.0878  0.2864
11803W        W28650  12.642   2.198   5.320  0.1591 -0.1055  0.3102
11804W        W28651   1.151   1.046  12.568 -0.0925  0.0786 -0.1430
11805W        W28652  14.256  13.117  14.881 -0.2188  0.2415 -0.2370
11806W        W28653  12.941  17.191  13.074 -0.1490  0.0581 -0.1607
11807W        W28654  18.667  18.258  14.750 -0.2157  0.1837  0.0226
11808W        W28655  15.982  13.826  12.459  0.2662 -0.1082 -0.0456
11809W        W28656  10.546   0.978  13.022 -0.0067 -0.0080 -0.0905
11810W        W28657   6.131  16.354   3.839 -0.0447 -0.2544  0.0177
11811W        W28658  18.090  10.326   3.687 -0.0290 -0.0049 -0.2978
11812W        W28659   0.955   6.040  13.013  0.1549 -0.0423 -0.1297
11813W        W28660   9.546  17.657  12.272  0.2264 -0.0995  0.2510
11814W        W28661  14.672  18.375   1.092  0.3272  0.0024  0.0290
11815W        W28662  11.659  17.317   4.539 -0.1075 -0.2465  0.1524
11816W        W28663  12.146  17.558   5.583  0.0041 -0.0183  0.3526
11817W        W28664   8.884  10.026  12.685 -0.1445  0.2361  0.0025
11818W        W28665  15.849   8.192   0.454  0.3128 -0.2778 -0.3756
11819W        W28666  16.350  12.841   3.324  0.2978  0.0662 -0.0705
11820W        W28667   8.279   0.066  12.850  0.0802  0.2348  0.3477
11821W        W28668  16.580  15.136   4.438  0.0949 -0.0259  0.0037
11822W        W28669  11.393   7.071   1.248  0.0567 -0.0855 -0.0130
11823W        W28670   0.523   2.558   4.962  0.0764 -0.0362  0.1321
11824W        W28671  14.693   0.184  15.072 -0.1655 -0.1839 -0.2914
11825W        W28672   6.944  10.973  11.590 -0.0433  0.0095  0.1715
11826W        W28673   9.363  12.479   2.028  0.0230 -0.2007 -0.0041
11827W        W28674  12.925  17.071   1.995 -0.3616  0.1034 -0.0093
11828W        W28675   6.715   4.279  14.047  0.2642 -0.0088 -0.0704
11829W        W28676   2.593  17.871  11.730 -0.1358  0.2241  0.0447
11830W        W28677  17.296   5.694  14.584 -0.0498  0.0951  0.2561
11831W        W28678   0.752  14.147   4.092  0.1633 -0.1718  0.1631
11832W        W28679   4.830  10.205   2.352  0.0422  0.2212  0.1247
11833W        W28680  16.642  16.691  11.501 -0.2999 -0.0319 -0.1862
11834W        W28681   6.282   3.985  11.192  0.1541  0.2292  0.3593
11835W        W28682   8.334  12.894   3.250  0.1389  0.1551  0.0615
11836W        W28683  17.017  13.432  15.425 -0.1964 -0.1435 -0.1732
11837W        W28684   3.487   4.333   2.396  0.3513 -0.1242 -0.1301
11838W        W28685  17.093   0.504   0.555 -0.0419 -0.0006 -0.0142
11839W        W28686  15.448   5.177  14.330  0.0225 -0.2715  0.2533
11840W        W28687   4.918  14.777  14.216 -0.1314  0.1019  0.1554
11841W        W28688  17.169   0.543  13.722  0.1067 -0.0019  0.2947
11842W        W28689  13.266  16.991   5.217 -0.3468 -0.0835 -0.0803
11843W        W28690   5.386   4.793  11.234  0.0873  0.0779  0.0095
11844W        W28691   0.233  14.993  14.670 -0.1155 -0.1073 -0.1570
11845W        W28692  10.440   8.201  14.021  0.3982 -0.1616 -0.3066
11846W        W28693   1.011  13.083  14.635  0.0275  0.4760 -0.3121
11847W        W28694   1.062  17.624   1.679  0.1514  0.2021  0.0484
11848W        W28695  14.567  12.472   4.786  0.0485  0.0170 -0.0741
11849W        W28696   4.499  12.675   0.991 -0.2564 -0.0694  0.0124
11850W        W28697  18.249  11.072  14.154 -0.1515 -0.0119  0.1043
11851W        W28698   2.364   2.779  13.757 -0.1132  0.1348  0.1977
11852W        W28699  17.665  15.657  11.890  0.0203  0.1380  0.0158
11853W        W28700   4.266  15.966   4.615 -0.1418  0.0092  0.1034
11854W        W28701   4.752   7.726   4.559  0.4200  0.2135  0.1154
11855W        W28702   2.706   1.028  11.709 -0.1121 -0.0337  0.3511
11856W        W28703  15.517  18.603   5.395  0.1653  0.0587  0.0890
11857W        W28704  11.914  10.621   3.227  0.1105 -0.0844 -0.2800
11858W        W28705   5.709  16.841   0.666  0.1126  0.0262 -0.1505
11859W        W28706  14.118   8.253   4.020 -0.0930 -0.2090  0.3539
11860W        W28707  17.444  14.479  15.445 -0.1959 -0.1687  0.5074
11861W        W28708   0.913  18.844  11.566 -0.2347  0.0016 -0.0902
11862W        W28709  18.779   6.064  15.620  0.1647  0.2426  0.1711
11863W        W28710   1.972  15.759   2.392 -0.2066 -0.1877  0.1899
11864W        W28711   4.653   5.910  11.413 -0.0423 -0.0539 -0.0880
11865W        W28712  15.197   3.370  12.992 -0.0248 -0.1816 -0.3393
11866W        W28713  13.585   3.734  11.649  0.2041  0.3124 -0.0037
11867W        W28714  15.364  16.007   0.554  0.0461 -0.1069  0.3527
11868W        W28715   1.746  15.607   3.322 -0.1463 -0.5003  0.1154
11869W        W28716   4.623   8.752   3.057 -0.3211 -0.0144  0.0506
11870W        W28717  10.593  17.187  13.165  0.0739  0.1810 -0.0934
11871W        W28718  10.475  14.239  15.524  0.0416  0.2402  0.2557
11872W        W28719   6.312  14.640  14.788  0.0058 -0.1013  0.2289
11873W        W28720  12.103   7.304   4.241 -0.0119  0.2022  0.2227
11874W        W28721   6.052   6.167   0.461  0.1721 -0.0661 -0.1037
11875W        W28722   1.537   9.894   0.295 -0.0157  0.0330  0.0393
11876W        W28723   4.978  14.865   2.978 -0.2119  0.0438  0.1677
11877W        W28724  16.652  15.549  13.642  0.0650  0.3085  0.0272
11878W        W28725  13.555  11.972  13.065  0.0364 -0.0374  0.0178
11879W        W28726   5.838  17.806   0.098 -0.1598 -0.0903 -0.2061
11880W        W28727   5.772  14.489  15.488 -0.0421  0.0988 -0.0009
11881W        W28728  16.337  16.455  13.551 -0.2502  0.1731  0.1382
11882W        W28729  13.346   5.742   3.594  0.1052 -0.4646  0.1137
11883W        W28730   6.425  15.768  13.750  0.1698  0.1545  0.0731
11884W        W28731  18.822  11.285   4.166 -0.2269  0.0533  0.5981
11885W        W28732   4.847   3.307  11.733  0.0890  0.0502  0.0968
11886W        W28733   8.053  18.081   3.146  0.4047 -0.2811  0.2795
11887W        W28734  10.619  14.742   3.477  0.3586  0.1558  0.2008
11888W        W28735   0.356   7.514  11.261  0.0819  0.2563 -0.0107
11889W        W28736   0.995   2.519   0.433  0.2878  0.0977 -0.0855
11890W        W28737   5.199   1.283   1.356  0.1497 -0.1175 -0.0272
11891W        W28738   1.705  17.050  11.101 -0.0960 -0.1727 -0.0132
11892W        W28739  14.045  11.205   5.025 -0.2187 -0.2066  0.4147
11893W        W28740   2.126  18.329   5.074 -0.1952  0.1233  0.2131
11894W        W28741  13.014   0.048   0.746  0.1038 -0.1072 -0.1853
11895W        W28742   9.900  16.647  13.140 -0.0365 -0.0589  0.0521
11896W        W28743   5.790  16.403   0.897 -0.0427  0.4086  0.3416
11897W        W28744   6.906  13.964  13.432  0.0364  0.2011 -0.2646
11898W        W28745  12.190  11.559  11.283 -0.0697  0.2988 -0.1164
11899W        W28746  13.342  10.178   1.046  0.2120  0.0627 -0.3116
11900W        W28747  17.911   8.058   3.146 -0.2409  0.1470 -0.0844
11901W        W28748   8.463   9.947   3.593 -0.0141  0.3374  0.0959
11902W        W28749   7.030  11.112   0.750  0.0258  0.3220 -0.1078
11903W        W28750  16.166   4.352   5.078 -0.0145  0.0354  0.1030
11904W        W28751   1.014   3.456   0.073  0.2392  0.4528 -0.1749
11905W        W28752  11.777  17.224   2.403  0.0036 -0.2183  0.0988
11906W        W28753   8.333   4.814   2.323 -0.2013 -0.1719 -0.5381
11907W        W28754  13.627  12.886   4.450 -0.2006  0.1383 -0.2696
11908W        W28755  11.983  13.258   4.075 -0.3370  0.0912 -0.0616
11909W        W28756  16.980   6.341  11.633  0.3131  0.0527  0.0913
11910W        W28757   3.469   2.701   2.909  0.2804  0.2468  0.1013
11911W        W28758  13.247   5.144  11.968 -0.3397 -0.0330  0.0347
11912W        W28759  11.668   6.049   4.722 -0.1900  0.2623 -0.0191
11913W        W28760   8.073  17.673   2.882 -0.1571  0.0535 -0.1765
11914W        W28761   6.164  14.338  15.769  0.0352 -0.1409 -0.0307
11915W        W28762  16.969  13.579  13.270  0.0941  0.1360  0.1153
11916W        W28763  11.940   9.085  10.329 -0.0673 -0.1091  0.3050
11917W        W28764   0.006  15.306  13.251 -0.2952  0.0433 -0.0259
11918W        W28765   0.570  11.882   4.223  0.0611  0.2837  0.2506
11919W        W28766   6.947   4.904   1.515 -0.1217  0.0111 -0.0497
11920W        W28767  17.145   3.294   1.049 -0.3040  0.0068  0.2867
11921W        W28768   5.841   2.440  14.926  0.1510  0.2239  0.1572
11922W        W28769  12.421  15.504   3.756  0.0379 -0.4885 -0.3088
11923W        W28770   7.173   4.222  15.756 -0.1183  0.0094  0.2097
11924W        W28771  16.717   1.859   4.786  0.1063  0.0547 -0.0389
11925W        W28772  15.457   9.465  12.105  0.0442  0.1451  0.0004
11926W        W28773  16.866   1.952  12.695 -0.0524  0.0103 -0.3924
11927W        W28774  14.565   3.927   1.173 -0.2265 -0.0416  0.0911
11928W        W28775   5.318   5.317  14.032  0.3732  0.0699 -0.0877
11929W        W28776   4.795   7.517  14.785  0.0662 -0.0713  0.3146
11930W        W28777   1.079  13.266   4.251  0.1623 -0.1705  0.1356
11931W        W28778  17.299   1.916   2.321 -0.0244  0.0422  0.1122
11932W        W28779   6.092  12.425   4.388  0.1969 -0.2381  0.3256
11933W        W28780  18.361  12.487  11.818 -0.4382  0.0636  0.1033
11934W        W28781  15.582  15.169  12.597 -0.3613  0.1871  0.0257
11935W        W28782  14.503   5.076  13.932  0.2130 -0.4218  0.2665
11936W        W28783   8.734  16.423  13.357 -0.0608  0.1269 -0.0635
11937W        W28784   1.810  16.145   3.339  0.3060 -0.0469  0.2190
11938W        W28785   8.740  15.193   4.724  0.1580 -0.0945  0.0926
11939W        W28786  17.410   6.507   2.099 -0.1232  0.0321  0.0420
11940W        W28787  11.004   7.394   2.612  0.2814  0.2014 -0.1005
11941W        W28788   7.466  12.544  13.829 -0.3552 -0.1407  0.1267
11942W        W28789   2.954   2.439  15.221 -0.0290 -0.0406  0.0572
11943W        W28790   2.511   3.069  15.668  0.0878 -0.2123 -0.1215
11944W        W28791   4.512  12.111  14.386  0.2827 -0.3667 -0.1823
11945W        W28792   8.777   0.405  15.766  0.0707  0.4116 -0.1167
11946W        W28793   3.081  15.701   1.563 -0.0644 -0.3405 -0.1266
11947W        W28794  12.042   8.163   0.514  0.0798  0.1669 -0.1176
11948W        W28795   1.183  12.804   4.023  0.2794  0.1302  0.1068
11949W        W28796  14.944  12.184   1.759  0.3120 -0.3033  0.2001
11950W        W28797   4.072   3.965   0.346 -0.2427 -0.0516  0.5134
11951W        W28798   5.505   0.502  12.464  0.1503  0.0514  0.0999
11952W        W28799  11.273   3.900   3.465 -0.0955 -0.0848  0.1314
11953W        W28800  14.115   7.744   0.728  0.1497 -0.0569  0.0660
11954W        W28801   3.937  17.211   0.955  0.2462  0.1642 -0.1069
11955W        W28802   3.307  18.523  15.535 -0.1708 -0.0811  0.3944
11956W        W28803  15.300  10.495  15.268  0.1722 -0.0981 -0.0354
11957W        W28804   8.635  13.683   1.655 -0.1057 -0.1295  0.3278
11958W        W28805   7.143   0.287  14.729 -0.2145  0.1240 -0.1475
11959W        W28806  14.351  16.570   3.781  0.1303 -0.1087 -0.3015
11960W        W28807  17.301  14.781   5.956 -0.0035  0.2980  0.0295
11961W        W28808  12.249   9.741  14.703 -0.1254 -0.2563 -0.1642
11962W        W28809  16.778   4.182   4.081  0.2136 -0.1108 -0.0987
11963W        W28810  14.481   5.713   0.536  0.3387 -0.1592 -0.1216
11964W        W28811  12.001   7.113  11.145 -0.1937  0.0377  0.0442
11965W        W28812   8.563  10.416   1.247 -0.1806  0.0019  0.2526
11966W        W28813   4.347  12.458   2.326 -0.1905  0.0484  0.0649
11967W        W28814   0.450   1.101   3.479 -0.0788 -0.0630 -0.0261
11968W        W28815  15.577   1.886   0.527 -0.0182 -0.0137 -0.1086
11969W        W28816  18.602  12.498   3.683  0.0565  0.1453 -0.1179
11970W        W28817   7.876  12.153  11.329  0.0483 -0.2606 -0.0399
11971W        W28818   1.277   2.142   2.158 -0.0844  0.1327  0.0946
11972W        W28819  14.246  16.380   5.263  0.0020  0.2666  0.3775
11973W        W28820  10.342   4.776  13.150 -0.0467  0.1637  0.0561
11974W        W28821  11.919   4.105  12.592  0.0174 -0.2104 -0.0811
11975W        W28822   0.005   4.077   2.664 -0.0415 -0.1425  0.0502
11976W        W28823   2.540  12.588   3.455  0.0857 -0.1142 -0.5458
11977W        W28824  11.969   0.126  15.251 -0.1006 -0.1921  0.0503
11978W        W28825   3.835  16.176   4.893 -0.0516  0.1969  0.2340
11979W        W28826   6.222   1.230  13.473 -0.1844  0.1040  0.0434
11980W        W28827   5.382   9.165  12.112  0.1712  0.2885 -0.0936
11981W        W28828  13.159  11.065  11.106 -0.1470 -0.2127 -0.0105
11982W        W28829   7.743   1.876   4.700 -0.0520  0.1100  0.2418
11983W        W28830  13.786  17.963   2.687  0.1308  0.2050 -0.1342
11984W        W28831  18.657  13.388   5.449 -0.2589  0.0790  0.0823
11985W        W28832   0.577  11.715   5.002  0.0214 -0.1385 -0.1005
11986W        W28833  15.645   9.832  11.349  0.0042 -0.0369 -0.3451
11987W        W28834   6.693   4.324  14.909  0.1935 -0.0484 -0.1331
11988W        W28835  14.144   6.793  14.846 -0.1441  0.0248 -0.0214
11989W        W28836  17.589  18.676   3.788  0.3010 -0.0233 -0.0687
11990W        W28837   8.478   6.193  13.121  0.0061  0.0588  0.1614
11991W        W28838   9.310  12.931   1.968  0.0123 -0.0479  0.0693
11992W        W28839  10.113  11.998  13.031 -0.3127  0.0543  0.2549
11993W        W28840  12.657  14.033   2.113 -0.1871 -0.0383 -0.1711
11994W        W28841   0.439  17.644   4.521  0.1346  0.1227  0.0366
11995W        W28842  14.987   6.915   3.297 -0.2418  0.1670 -0.0190
11996W        W28843  13.175  18.264   5.746 -0.2040  0.1195  0.2648
11997W        W28844  14.192   0.460   2.663 -0.0236  0.3940 -0.1891
11998W        W28845   3.346   8.512  15.084  0.1057 -0.1725 -0.0819
11999W        W28846  13.836  11.225   0.177  0.0107 -0.2772  0.0203
12000W        W28847  15.536  11.773   1.036 -0.1394 -0.3367  0.1817
12001W        W28848  15.883   1.170   0.965 -0.1362 -0.3985  0.0878
12002W        W28849   5.159   6.309   6.253 -0.1913  0.1671 -0.1580
12003W        W28850   4.885  17.218   3.973  0.3468  0.1437  0.0641
12004W        W28851  17.900   6.947   4.564 -0.0719  0.1352  0.4175
12005W        W28852  16.697  18.852  14.467  0.0418 -0.5382 -0.1230
12006W        W28853  13.298   4.828  11.042  0.1939  0.4284  0.0206
12007W        W28854   9.056   8.137   1.630  0.1459  0.2849  0.2674
12008W        W28855  17.281   3.861   2.694  0.4343  0.2949 -0.1192
12009W        W28856  15.059  12.012  11.593  0.1470 -0.0665 -0.1219
12010W        W28857   9.168   8.919  11.678  0.2716 -0.0553  0.0382
12011W        W28858  12.674   6.759   5.469 -0.1414 -0.1776 -0.0226
12012W        W28859  18.173  13.435  13.165 -0.5113 -0.1481 -0.3686
12013W        W28860  11.507  17.674   4.191  0.0420  0.0947  0.0110
12014W        W28861  10.707   5.682   4.236  0.1257  0.1022  0.0951
12015W        W28862   8.702   3.241  11.610 -0.1279 -0.2062 -0.1041
12016W        W28863  16.885   1.516  15.399 -0.0011  0.0766 -0.2361
12017W        W28864   3.236   6.421  15.101 -0.0489 -0.0743  0.2025
12018W        W28865  11.420  17.769   3.233 -0.2038  0.1777  0.0595
12019W        W28866   7.048  14.439   9.798 -0.4063  0.3190 -0.1294
12020W        W28867  18.003   2.094  11.555  0.0862  0.1095  0.0219
12021W        W28868   8.870  16.341  14.952 -0.3609 -0.0775 -0.0146
12022W        W28869  18.420  10.695  13.812  0.1093  0.2652 -0.0699
12023W        W28870  11.732   6.809   5.136  0.1476  0.0421  0.1078
12024W        W28871   9.608  10.389   5.093  0.0364 -0.3202  0.0913
12025W        W28872  15.475   8.011  15.241  0.0572  0.0984  0.0923
12026W        W28873  16.293   2.899  11.599  0.1707  0.0496  0.3352
12027W        W28874   8.490  11.669   0.494 -0.2556  0.1886  0.2181
12028W        W28875  12.398   0.583  11.542 -0.1112  0.0544  0.0159
12029W        W28876   3.552   8.772  11.635 -0.2001 -0.0519 -0.0807
12030W        W28877   5.676  13.972  14.944 -0.1235  0.0224 -0.0826
12031W        W28878   2.410  14.502  13.882  0.0420 -0.1092  0.0986
12032W        W28879  14.459   6.309  12.627  0.0001  0.1633  0.1689
12033W        W28880  10.970  11.492   0.870 -0.1489  0.2815 -0.1718
12034W        W28881   7.403  11.108  13.548  0.1644  0.3092  0.1371
12035W        W28882   2.754   3.040  13.955  0.2227  0.1872  0.1415
12036W        W28883  13.488   8.599  14.235 -0.0296 -0.1700 -0.3428
12037W        W28884   3.812  10.201  12.988 -0.0771 -0.1467 -0.1464
12038W        W28885   3.766   8.487   3.483 -0.1642  0.3108  0.4438
12039W        W28886   5.650   6.405   2.050 -0.2195 -0.3896  0.0863
12040W        W28887  13.278   2.617  14.130  0.1553  0.3375  0.0334
12041W        W28888   4.411   1.133  11.891 -0.1091  0.0086  0.4162
12042W        W28889   4.085   9.683  13.141 -0.3309 -0.3579 -0.0485
12043W        W28890   2.525  17.137  12.801  0.1194  0.2611 -0.1244
12044W        W28891  15.163   2.797  15.044 -0.2481 -0.1653 -0.0183
12045W        W28892   1.714   3.594  13.965 -0.1944  0.3584 -0.1738
12046W        W28893   8.769  11.040  13.543  0.0513  0.0807  0.2762
12047W        W28894   5.587   2.058   4.670 -0.4572  0.1863 -0.1367
12048W        W28895  18.229   6.862   3.135 -0.0289  0.0272  0.0186
12049W        W28896  17.894   5.443  14.139 -0.2522 -0.0159 -0.2440
12050W        W28897   4.821   1.920  14.025  0.2542 -0.2188  0.2023
12051W        W28898   9.026   0.361   1.703  0.1821  0.1671  0.1114
12052W        W28899   0.886   1.906  11.321 -0.0891 -0.2120  0.0392
12053W        W28900   7.075  15.766   3.057  0.0778 -0.0893  0.3355
12054W        W28901   1.564   4.301   3.871  0.2001  0.1474  0.0469
12055W        W28902   9.328  15.860  15.675  0.0790 -0.1583 -0.2434
12056W        W28903  11.666   0.239   2.093  0.0806 -0.3360 -0.0319
12057W        W28904   4.385  18.128   3.616 -0.1898  0.0991  0.1142
12058W        W28905   0.849  16.058  12.097 -0.2129 -0.0480  0.0967
12059W        W28906   3.076  15.951  11.472 -0.1150 -0.2629  0.1131
12060W        W28907  12.622   5.516   4.716 -0.0506  0.0469 -0.3273
12061W        W28908   2.778  10.109   0.979  0.0106  0.0201  0.3251
12062W        W28909   4.965   7.376  11.893  0.0672 -0.2060  0.2228
12063W        W28910  16.206   8.988  13.958 -0.3124 -0.0591  0.2270
12064W        W28911  12.041  15.507   4.106  0.1086  0.0272 -0.2322
12065W        W28912   2.079  18.266  11.802  0.0483 -0.0448  0.1506
12066W        W28913  16.307   2.877   2.581  0.4010  0.1542 -0.2631
12067W        W28914   9.983   1.215  12.364 -0.2065 -0.0627 -0.1290
12068W        W28915   6.347  15.719   2.697 -0.1267 -0.0934  0.0106
12069W        W28916   7.362   1.694  11.904 -0.1269  0.0115 -0.0727
12070W        W28917   8.501  10.688  14.291 -0.1728 -0.0437  0.1406
12071W        W28918  10.823   5.728   3.740  0.2353  0.1761 -0.1228
12072W        W28919   1.860   7.016   0.226 -0.4615  0.1687 -0.0905
12073W        W28920  15.141  11.185   0.274 -0.0164 -0.0270  0.1232
12074W        W28921   8.837   5.579  13.600 -0.1376 -0.1110  0.0974
12075W        W28922  10.971   1.984  13.268  0.2191 -0.0205  0.3655
12076W        W28923   3.765   9.436   5.015 -0.0128  0.3244 -0.0155
12077W        W28924   9.669  11.247   3.297  0.2059  0.0908 -0.1399
12078W        W28925   9.008  17.209   1.234  0.3420  0.3599  0.2661
12079W        W28926   1.160  11.520  13.737  0.1714 -0.0578  0.2483
12080W        W28927   7.987   3.207  12.003  0.2143 -0.0255 -0.4307
12081W        W28928   4.570   4.943  14.523  0.0207 -0.0835  0.3770
12082W        W28929  13.842  17.822  13.463  0.3712  0.0084 -0.2441
12083W        W28930  12.553  17.628   4.041 -0.0625 -0.1769  0.5141
12084W        W28931   3.055   0.802  10.845 -0.1367 -0.1321  0.0134
12085W        W28932   9.406  13.315   1.004 -0.0163  0.0798  0.3408
12086W        W28933   5.062  13.932  13.993  0.1037 -0.0814  0.2822
12087W        W28934   7.638   1.698   1.083 -0.0754  0.2338 -0.1288
12088W        W28935   7.547  16.858   2.326  0.1158 -0.1504  0.0038
12089W        W28936  16.372   8.354  13.192  0.1527  0.1264 -0.2252
12090W        W28937  13.737  13.267   3.711  0.0986  0.4533 -0.2395
12091W        W28938  15.470  11.969   5.648 -0.0292  0.2619  0.1804
12092W        W28939  15.480  15.487  12.284 -0.1061 -0.2600 -0.0320
12093W        W28940  13.174  12.757   0.721 -0.4717 -0.2381  0.1385
12094W        W28941  14.904   4.877  12.794 -0.1314  0.1417 -0.1400
12095W        W28942   6.598  14.243   0.337 -0.1229  0.2413  0.2336
12096W        W28943  10.495  15.044  14.914 -0.2737  0.4291 -0.0713
12097W        W28944  18.063   4.027   3.100  0.0311  0.3173 -0.0350
12098W        W28945   5.014   2.457   1.097  0.1617 -0.2282  0.3369
12099W        W28946  17.112   2.225   4.873  0.0540 -0.1441 -0.0514
12100W        W28947  16.119  17.157  12.044  0.3657  0.1326  0.3593
12101W        W28948  11.247   8.226   4.326 -0.0126  0.1444  0.4317
12102W        W28949  17.392   4.398   5.196 -0.2114 -0.1171  0.1150
12103W        W28950   5.677  10.043   2.814  0.1973  0.0224  0.2027
12104W        W28951  15.041   1.734   2.801  0.0673  0.1321 -0.2123
12105W        W28952   3.299   0.706   2.955 -0.0213 -0.0589  0.3149
12106W        W28953   4.871   6.147  15.697  0.3282 -0.0530  0.0812
12107W        W28954   2.910  11.876  13.418  0.1568  0.0918 -0.2501
12108W        W28955  16.362  18.400   1.767  0.1532  0.0479 -0.2793
12109W        W28956   9.475  18.678  15.481  0.0522  0.0367 -0.0446
12110W        W28957   9.053   8.801   3.713  0.1732  0.2251  0.1026
12111W        W28958   8.109   7.757  14.522 -0.0762  0.2918  0.2091
12112W        W28959   8.257   4.414  13.170  0.0781  0.0865 -0.2103
12113W        W28960  16.489  13.845   3.683 -0.0272  0.0436 -0.2746
12114W        W28961  17.007  13.396   1.837  0.2748  0.0505 -0.2607
12115W        W28962  16.255   9.134   3.504  0.0286 -0.0785  0.4622
12116W        W28963  10.653   9.909   1.955  0.1340  0.1453  0.0377
12117W        W28964   7.699   4.199  14.985  0.0655  0.0052 -0.0454
12118W        W28965  18.638  14.492   3.507  0.2672  0.3648  0.0399
12119W        W28966  18.297   0.527   4.518  0.2668 -0.1067  0.1170
12120W        W28967   6.991  11.823  15.558  0.1924  0.0725  0.1059
12121W        W28968  16.217  11.533   4.540 -0.3419  0.1179 -0.3478
12122W        W28969  10.955   9.516  11.655  0.3168  0.2926  0.1837
12123W        W28970  17.275   6.603  14.376 -0.2924 -0.3353 -0.0981
12124W        W28971   2.170   7.024  15.180  0.0161  0.0571 -0.0641
12125W        W28972   6.596  12.315  14.819 -0.2513  0.1900  0.0754
12126W        W28973  17.623   1.148  11.592  0.1784  0.0284 -0.2305
12127W        W28974   3.566  10.693  13.595  0.0814 -0.0798 -0.0387
12128W        W28975  13.535   9.118  13.483  0.1358 -0.4687  0.0546
12129W        W28976  10.985  15.371  15.159 -0.0715 -0.0191 -0.1017
12130W        W28977  16.275   9.089   2.113 -0.4737 -0.1262 -0.2336
12131W        W28978   2.560   3.402  14.360  0.1719  0.2380 -0.0706
12132W        W28979   7.933  14.281   4.351 -0.2704 -0.0897  0.3756
12133W        W28980  12.878   5.315   1.837 -0.1248  0.0933  0.3136
12134W        W28981  12.390   7.743   4.160 -0.1632 -0.1275  0.0677
12135W        W28982   1.466   7.507   0.495 -0.0002  0.0729 -0.1448
12136W        W28983  13.256   9.361   4.956 -0.1114  0.0218  0.1039
12137W        W28984   8.776   2.866   0.381  0.1509  0.2544 -0.1321
12138W        W28985   9.951  17.969   5.272  0.2642 -0.0538  0.0301
12139W        W28986  14.202  15.383   1.206 -0.0633 -0.0226  0.3302
12140W        W28987   7.526  10.046  15.134  0.0543 -0.1038  0.1504
12141W        W28988   8.455   5.587   2.579  0.1248  0.0777  0.2413
12142W        W28989   1.104  16.175  12.570 -0.3599  0.0415 -0.0146
12143W        W28990   3.102  16.296  12.699 -0.3083 -0.1039  0.1782
12144W        W28991  10.303  17.470  12.696 -0.0648 -0.0043 -0.2230
12145W        W28992  14.474   4.631   4.599  0.2393 -0.1940  0.0973
12146W        W28993   0.431  15.269  12.784  0.1209 -0.0644 -0.1741
12147W        W28994  15.406  15.949   4.425  0.2953 -0.1030 -0.0630
12148W        W28995   2.112  14.624  11.673  0.1688  0.3804 -0.0419
12149W        W28996  15.952  14.532  15.300 -0.0903  0.0280  0.1506
12150W        W28997  14.497   7.674  13.131  0.1878 -0.2241 -0.1633
12151W        W28998   0.779   1.220  11.452  0.3489  0.1252 -0.3319
12152W        W28999   4.266   6.073  12.304 -0.2762  0.3274 -0.2042
12153W        W29000   3.823  16.915  11.085  0.0702  0.0546 -0.0723
12154W        W29001   7.172  16.856  10.737 -0.4846 -0.1202  0.1133
12155W        W29002  11.829  14.957  10.946  0.0894 -0.1891 -0.1619
12156W        W29003  14.219  18.276  12.791  0.3301  0.1072  0.2390
12157W        W29004   7.919   3.181  15.619  0.0152 -0.2080  0.0940
12158W        W29005   8.675   8.684   5.145 -0.4918  0.0388  0.0423
12159W        W29006   5.905   4.253  13.734 -0.1749  0.0053 -0.0774
12160W        W29007  17.528  12.092  14.664  0.0375  0.0668  0.1510
12161W        W29008   3.100   8.933  11.942  0.1984 -0.1990 -0.4363
12162W        W29009   8.315  14.661  12.429  0.0953 -0.0394 -0.0388
12163W        W29010   8.252   9.272   0.518  0.2065  0.1943  0.1535
12164W        W29011  16.489  15.439   6.090 -0.0567  0.0456  0.0318
12165W        W29012  17.744  17.890  13.574 -0.2806 -0.1621 -0.0941
12166W        W29013  15.604   3.653  13.692 -0.0654 -0.0644  0.3552
12167W        W29014  17.102   0.579   4.496  0.0625 -0.0309 -0.1041
12168W        W29015  12.447   7.098  14.357 -0.0310  0.1690 -0.0027
12169W        W29016  13.877  12.554   5.691 -0.0879  0.2773  0.3399
12170W        W29017   0.715   2.844  15.437 -0.2118  0.2282 -0.1002
12171W        W29018  10.994   5.035  12.342  0.2121  0.2904 -0.3999
12172W        W29019  11.340   0.018  12.558 -0.1014  0.2598  0.0017
12173W        W29020   1.286   6.244   4.025 -0.2002 -0.0141  0.1623
12174W        W29021   0.659  13.705  11.890 -0.0985  0.0926  0.1241
12175W        W29022  14.923  12.554  14.474 -0.0623  0.4229 -0.0076
12176W        W29023   7.031  11.356  14.101  0.3913  0.0570 -0.1224
12177W        W29024   6.691  14.823   3.680  0.0033  0.2592  0.2057
12178W        W29025   2.071   4.006   2.304 -0.1192  0.1505  0.1363
12179W        W29026   1.193   1.952   0.252 -0.2281  0.0229  0.1331
12180W        W29027  13.640  14.191  15.629  0.3564 -0.1016 -0.1016
12181W        W29028   4.261  15.252   1.481  0.4403  0.0493  0.3458
12182W        W29029   9.262   1.394  14.967  0.2327  0.0596  0.1545
12183W        W29030   0.063  18.545   0.675 -0.0883 -0.4016  0.2309
12184W        W29031  11.978   4.722   5.416  0.1585 -0.2599  0.3479
12185W        W29032   0.000   6.279  14.862  0.1488  0.2469  0.1043
12186W        W29033   9.530   2.510   3.363  0.1923 -0.2127 -0.3265
12187W        W29034   8.559   8.295   1.696 -0.2166 -0.2382 -0.0749
12188W        W29035   7.153   6.502   5.050 -0.1597  0.0291  0.1583
12189W        W29036  14.366  14.109  12.585 -0.4569  0.1411  0.0147
12190W        W29037   8.394  13.899  13.355 -0.1638  0.0016 -0.1552
12191W        W29038  17.964  10.145  11.715 -0.1662 -0.2784 -0.0391
12192W        W29039   0.214  11.218   4.876 -0.0657  0.2234  0.0119
12193W        W29040  12.438  16.216  13.972  0.1502 -0.2569 -0.3295
12194W        W29041  17.403   9.797   0.326 -0.0779 -0.1374 -0.0215
12195W        W29042  17.092  17.187  13.960 -0.1439 -0.0531  0.1301
12196W        W29043  14.446   1.547   5.100  0.0537  0.1432  0.1419
12197W        W29044   1.352  10.169  15.104  0.1541  0.1843  0.4777
12198W        W29045  10.621  11.295   2.116  0.1678  0.1123  0.2868
12199W        W29046   9.053  10.663  14.202  0.0036 -0.0405 -0.0503
12200W        W29047   8.453   3.251   1.818  0.2702  0.1253  0.1908
12201W        W29048   5.654  12.695  12.020  0.1697  0.1811  0.1242
12202W        W29049  14.236  17.595  11.613  0.0523  0.0255  0.1341
12203W        W29050   4.349  17.045  13.212  0.0135 -0.0510 -0.0320
12204W        W29051   2.822   7.640   1.671  0.0008 -0.2494  0.2533
12205W        W29052   9.764  13.630  12.641  0.0740  0.1355  0.4076
12206W        W29053  16.812  13.543   4.929  0.1373  0.2363  0.0761
12207W        W29054   1.067   9.097  12.936 -0.0249  0.0571 -0.2384
12208W        W29055   7.573  16.590  13.358  0.1243 -0.2450  0.1784
12209W        W29056  13.875   7.178   1.341 -0.0986 -0.4050 -0.1864
12210W        W29057   7.009   2.781  11.383 -0.1912 -0.3355  0.1187
12211W        W29058   5.378   2.212   0.769  0.1086  0.0456  0.1242
12212W        W29059  16.558  15.815  15.437  0.0183  0.1783  0.0042
12213W        W29060  18.741   0.990   1.738 -0.0060  0.2601  0.0297
12214W        W29061   1.475  18.460   1.689  0.0061 -0.1192 -0.0281
12215W        W29062   2.922  16.973  11.567 -0.0721 -0.1701  0.0369
12216W        W29063   2.091   7.474   2.727  0.1640 -0.0128  0.1613
12217W        W29064   4.521  17.009   1.882 -0.1050  0.2803  0.1708
12218W        W29065  12.736   0.064   5.218  0.1555  0.0074  0.0060
12219W        W29066   6.231  10.516  11.118 -0.1290 -0.0906 -0.2245
12220W        W29067   0.963  16.324  11.002  0.1373  0.0642 -0.4866
12221W        W29068  15.463   4.689  14.186 -0.1041  0.4050 -0.1390
12222W        W29069   9.357   9.737  10.521 -0.1659  0.0223  0.0116
12223W        W29070  18.855  15.954  15.622 -0.3399 -0.3227  0.1134
12224W        W29071  11.105   3.070   2.243 -0.3187  0.2787 -0.2365
12225W        W29072   6.374  13.497   4.119  0.0569 -0.1974  0.0595
12226W        W29073  17.426  17.748  15.393 -0.1094 -0.3944  0.0557
12227W        W29074  11.627   1.430   3.612 -0.0368 -0.2367 -0.2000
12228W        W29075   8.617   5.897  12.752 -0.0821  0.3411 -0.0077
12229W        W29076   9.444   8.520   4.595  0.3383  0.0393 -0.0230
12230W        W29077  11.497   6.916   3.711 -0.1172  0.0080  0.2047
12231W        W29078  10.834  15.112  12.007  0.1741  0.2297 -0.1350
12232W        W29079  18.852  14.513  12.652  0.0131  0.0605  0.0130
12233W        W29080  12.097   8.930  12.686 -0.0856  0.1598  0.0555
12234W        W29081   5.612  10.194  14.097 -0.2016 -0.0468 -0.3701
12235W        W29082   3.536   0.808   1.922 -0.1566  0.1244  0.3666
12236W        W29083   0.626   8.789  14.973 -0.2027  0.1094  0.0555
12237W        W29084   5.551   6.433  14.250 -0.1252 -0.2355 -0.1475
12238W        W29085  12.060  12.972   0.015 -0.0459 -0.1168  0.2367
12239W        W29086   7.355  10.975   1.146 -0.2104  0.0853 -0.1087
12240W        W29087  11.598  14.544   0.473 -0.0942 -0.0210  0.0373
12241W        W29088  12.257  15.476  14.503  0.1254 -0.2033  0.1767
12242W        W29089   8.352  14.360   1.165 -0.1515  0.0591  0.3249
12243W        W29090  17.452   0.178   0.786 -0.0452 -0.2015 -0.0436
12244W        W29091  10.790   7.124  11.536  0.2962  0.1041 -0.1302
12245W        W29092  10.725  17.520  14.356  0.0529 -0.0388  0.1140
12246W        W29093   5.631   7.748  15.696  0.0659 -0.2432  0.0861
12247W        W29094  16.239   4.138  14.503 -0.1204  0.0422 -0.1219
12248W        W29095   3.348   8.095   3.350  0.0651  0.3961 -0.3044
12249W        W29096  16.980  13.874   1.621 -0.3474  0.1402 -0.1317
12250W        W29097   0.557  11.323  15.470  0.1472  0.0772 -0.2973
12251W        W29098  14.162   5.399   3.396 -0.0131  0.0316 -0.1722
12252W        W29099   1.032  16.700   1.898 -0.0735 -0.1155  0.3584
12253W        W29100  14.399   7.016  13.719 -0.0901  0.3581 -0.3087
12254W        W29101   6.014  18.309  10.912  0.1287 -0.4197  0.1133
12255W        W29102   9.406   8.130  14.039 -0.1816  0.5052  0.1899
12256W        W29103   6.326   5.215   2.327 -0.0943 -0.0201  0.2250
12257W        W29104   8.080  17.755   4.386  0.0855  0.0570  0.0299
12258W        W29105  14.483  14.576   0.219 -0.1281 -0.0494 -0.0636
12259W        W29106   6.010   7.781   2.667 -0.5064  0.1627  0.0773
12260W        W29107   9.108   6.101  14.849 -0.1688 -0.0248 -0.1617
12261W        W29108  16.399   0.177  11.156 -0.1010  0.0625 -0.0535
12262W        W29109  14.374   3.252  14.623  0.1820 -0.2620  0.1717
12263W        W29110  13.158   4.887  12.468  0.0957  0.1080 -0.0108
12264W        W29111   2.662  15.619  13.110 -0.1291  0.1167 -0.2533
12265W        W29112   7.427  15.178  13.112 -0.1335 -0.0030 -0.2177
12266W        W29113   1.727   5.362  12.929 -0.0636 -0.2225 -0.1885
12267W        W29114  13.493  14.270   3.355  0.1546  0.0571  0.1349
12268W        W29115   4.190  16.907  11.672 -0.1669  0.0731  0.1302
12269W        W29116   0.368   3.712  11.259 -0.4860  0.0557  0.1610
12270W        W29117   6.114  16.778   3.533 -0.2938  0.0581  0.1695
12271W        W29118  16.756   6.812  14.068 -0.2084 -0.0877  0.2703
12272W        W29119  16.100  15.493  13.505  0.0374 -0.1808  0.3016
12273W        W29120   5.293  16.856   2.333 -0.0832 -0.0262 -0.0423
12274W        W29121  14.371   1.374   5.835  0.0607  0.1147 -0.2066
12275W        W29122   8.591  15.180  10.130 -0.1352 -0.2480 -0.1503
12276W        W29123  18.591   1.907  14.574  0.1826  0.1930 -0.4343
12277W        W29124  12.149   1.345  13.274  0.0873  0.1234 -0.1736
12278W        W29125   5.181   3.138  14.136 -0.0150  0.1419  0.1625
12279W        W29126   9.610   1.281   2.558 -0.2975 -0.3140  0.1268
12280W        W29127  17.904  17.304  11.328 -0.1015  0.1202 -0.0449
12281W        W29128   1.358   7.354   1.751 -0.0100  0.1729 -0.3175
12282W        W29129  12.828  11.069   1.301  0.3054 -0.1519 -0.0881
12283W        W29130  13.267  13.606  11.998  0.1814 -0.2810  0.2150
12284W        W29131   5.143  16.439  15.006  0.1175 -0.2912  0.3423
12285W        W29132  15.618  15.670   0.169  0.0160  0.0099 -0.2747
12286W        W29133   1.638  13.807  15.356 -0.2429 -0.0048  0.2968
12287W        W29134  11.995   7.680  11.146 -0.1709 -0.0360 -0.2343
12288W        W29135   7.044   1.105   5.019 -0.1501 -0.0210  0.1329
12289W        W29136   3.834   7.451  14.854  0.0687 -0.1651  0.0535
12290W        W29137   9.414  14.751   2.289 -0.0473  0.2198 -0.2255
12291W        W29138  14.001  13.189  13.866  0.2869  0.2477 -0.1766
12292W        W29139   2.320   8.176   5.531 -0.4917  0.0851 -0.2139
12293W        W29140   2.969  13.788  10.571  0.0924  0.0292 -0.2036
12294W        W29141   2.926   7.928   4.140  0.1319  0.0018  0.2488
12295W        W29142  12.759  15.831  11.463  0.1685 -0.0579 -0.1198
12296W        W29143   4.220   9.075  10.824 -0.1517 -0.2479  0.0349
12297W        W29144   7.596  12.730   1.013  0.3324 -0.4401  0.0321
12298W        W29145   8.134  11.497   0.952 -0.2538 -0.2488  0.0137
12299W        W29146  11.618  16.838   4.383 -0.2123  0.1696  0.0488
12300W        W29147   8.813  11.134  12.888 -0.1405  0.0620 -0.1107
12301W        W29148  15.129  14.331   4.237 -0.3730 -0.3140  0.0559
12302W        W29149   5.831  17.328   5.389 -0.2283  0.0006  0.0896
12303W        W29150   8.194   7.839   0.067 -0.0768  0.0378 -0.0979
12304W        W29151  12.767   0.421  12.866 -0.2178 -0.3310  0.1045
12305W        W29152  17.645   2.472   1.116 -0.1033  0.2122 -0.2224
12306W        W29153   6.981   9.159  13.726  0.0625 -0.1539  0.0505
12307W        W29154   8.047  15.034   3.608 -0.0686 -0.0685  0.1374
12308W        W29155  13.238   1.941   3.396  0.1309  0.2446  0.1566
12309W        W29156  12.354   3.209   4.634  0.0242 -0.1985 -0.4542
12310W        W29157  10.829   9.706   4.772  0.0089 -0.1194  0.4034
12311W        W29158  13.508  11.090   6.120 -0.0355  0.0883 -0.0208
12312W        W29159   4.949  17.760   2.845  0.0474 -0.0983  0.1704
12313W        W29160   0.745   4.142   1.291 -0.3044 -0.4416  0.2342
12314W        W29161   8.386   9.282   1.575  0.1700 -0.0883 -0.1252
12315W        W29162   8.847   8.365   1.273  0.2822  0.2691  0.3157
12316W        W29163  15.813   2.909  15.774  0.2037  0.1206 -0.1540
12317W        W29164   8.027   5.621   3.555 -0.0894  0.0332 -0.0200
12318W        W29165  11.428   1.649  14.160  0.0540  0.3351  0.3365
12319W        W29166   4.798  14.838  11.595 -0.0292 -0.1061 -0.3223
12320W        W29167   4.018   4.369   0.081  0.0500 -0.2181 -0.1796
12321W        W29168   8.930  12.419  10.217  0.0970  0.0999  0.1033
12322W        W29169   7.394   0.754   4.063 -0.2556  0.0799  0.2064
12323W        W29170  14.179   1.590   1.933 -0.1282 -0.4160 -0.0584
12324W        W29171  16.887  15.836   5.154  0.0023 -0.2797 -0.1389
12325W        W29172   9.120   3.888   4.670  0.0438  0.0847 -0.1682
12326W        W29173  10.884   9.707  12.103 -0.1131 -0.2355  0.0461
12327W        W29174  16.403  17.564   1.540  0.4498  0.1044 -0.4538
12328W        W29175  11.433   2.393   1.035 -0.1841  0.3231  0.0776
12329W        W29176  18.530   7.362  14.802  0.3675  0.1893 -0.2033
12330W        W29177   3.383   6.974  12.887  0.3603  0.0868  0.3598
12331W        W29178   6.429   4.530  14.519 -0.0247 -0.1390  0.4388
12332W        W29179  15.401   2.475   6.204  0.0048  0.0033  0.2346
12333W        W29180  16.245  10.802  14.358  0.2569 -0.3026  0.0087
12334W        W29181  16.938  12.703   4.738  0.2851  0.0052 -0.2345
12335W        W29182  15.097  16.181   0.040 -0.0248 -0.0751 -0.0425
12336W        W29183   1.627   4.241   4.879 -0.0087  0.0917 -0.0085
12337W        W29184   0.632   0.980  14.174  0.1743 -0.1538 -0.0791
12338W        W29185   1.212  18.336  13.049 -0.0503 -0.1974 -0.0212
12339W        W29186  17.183  15.271  13.707 -0.1782  0.0027 -0.0102
12340W        W29187   7.354  18.452   3.124  0.0643  0.1273  0.1269
12341W        W29188   4.521  15.460  13.540  0.2063  0.1201  0.0431
12342W        W29189   2.790   5.835  12.153 -0.0423  0.0046 -0.3384
12343W        W29190   5.728   9.042   1.086  0.0886 -0.2690 -0.0431
12344W        W29191  12.452   4.392  14.854  0.0288 -0.0356  0.1030
12345W        W29192   1.039  10.465   4.743  0.0439 -0.1217 -0.1260
12346W        W29193   7.778   5.849   3.167 -0.1782  0.1259  0.0341
12347W        W29194   5.605   9.878   2.379 -0.2421 -0.2109  0.0877
12348W        W29195   2.056   3.361  14.376 -0.2734  0.0808 -0.2726
12349W        W29196   4.600  11.021  13.016  0.2905 -0.0868 -0.1202
12350W        W29197  14.726   0.969  13.870 -0.2203  0.1168 -0.1180
12351W        W29198  17.944  11.631   2.043  0.1617 -0.0764 -0.0748
12352W        W29199  10.865   1.878  14.807 -0.1905  0.0702  0.0980
12353W        W29200  12.511   6.259   3.711 -0.1210 -0.1625  0.0864
12354W        W29201  11.270   5.360   0.972  0.2760  0.2309  0.0892
12355W        W29202  16.215  15.695   2.802  0.3604  0.1192  0.3090
12356W        W29203  14.325   3.451  13.209  0.6170  0.1954 -0.0066
12357W        W29204  16.902  11.205   6.062 -0.3574  0.2143  0.4270
12358W        W29205  17.708  17.004  13.786  0.1230 -0.1577 -0.0230
12359W        W29206   9.786  10.993  10.479 -0.0209 -0.1253 -0.0078
12360W        W29207  17.405  11.190  14.490  0.3313 -0.1489 -0.0599
12361W        W29208   0.352  11.912   1.586  0.0522  0.3832  0.1918
12362W        W29209  12.541   5.225  12.783  0.0846 -0.0946 -0.2699
12363W        W29210   9.426   6.069  13.152  0.2572  0.1722  0.0370
12364W        W29211   6.117   5.567   0.510 -0.0100  0.0025  0.2035
12365W        W29212   2.107   3.036   0.262 -0.1868  0.3585 -0.2030
12366W        W29213   1.242   2.451  11.233  0.0014  0.0271 -0.1775
12367W        W29214   2.864   2.323   2.356  0.5470  0.1153  0.2779
12368W        W29215   1.264  12.757   2.521  0.0373  0.1167 -0.1983
12369W        W29216   3.558   8.887   2.971 -0.2143 -0.0039 -0.0188
12370W        W29217  13.071   3.464  13.291 -0.2038  0.3536  0.0207
12371W        W29218   9.476   5.149   3.452 -0.0933  0.2453  0.0548
12372W        W29219  12.131  11.136   3.783  0.0014 -0.1937 -0.0578
12373W        W29220  11.243   8.335  10.764 -0.0455  0.0937 -0.0148
12374W        W29221  13.962  14.513  13.117 -0.3475  0.1087 -0.2731
12375W        W29222  10.627  17.408   2.595 -0.0449 -0.2558  0.0486
12376W        W29223   4.409  18.796  13.707  0.3740 -0.4747  0.0095
12377W        W29224  16.834   4.259   2.627  0.1126  0.0086 -0.1339
12378W        W29225  15.931   7.910   4.983 -0.4301  0.2007  0.0545
12379W        W29226   2.074   6.431   1.004 -0.0426 -0.0025 -0.1073
12380W        W29227   0.121   9.769   4.035  0.2509  0.0711  0.0007
12381W        W29228   2.054   8.995   2.379  0.1058 -0.0853  0.0182
12382W        W29229  14.951   3.405  13.953 -0.0960 -0.0388  0.1720
12383W        W29230  18.723   5.564   2.857 -0.0815 -0.1399 -0.0278
12384W        W29231  18.522   2.092  11.749  0.2010  0.3018  0.3159
12385W        W29232   9.944  16.062   2.553 -0.1116 -0.0339  0.3114
12386W        W29233  12.043   7.984   1.470 -0.0930  0.1526 -0.1060
12387W        W29234  15.217   2.740  13.201  0.0363 -0.0017 -0.0920
12388W        W29235   7.992   4.733  13.589 -0.0003 -0.1424 -0.0828
12389W        W29236  14.385  14.014  12.078 -0.2038 -0.3390  0.1176
12390W        W29237  16.062   1.289  14.800  0.2067  0.1159  0.0022
12391W        W29238  17.285   6.359   3.080  0.1799 -0.2048  0.1140
12392W        W29239  11.966   2.002   1.592 -0.0381 -0.1489  0.0221
12393W        W29240  15.151  10.282  14.007 -0.3591 -0.1350  0.0217
12394W        W29241  15.803   3.231   2.296  0.0682  0.2170 -0.3173
12395W        W29242  12.212  11.475  13.993 -0.0036 -0.0700  0.0133
12396W        W29243   2.383   4.545   2.208  0.2255 -0.1797  0.0587
12397W        W29244  18.761  11.421  12.170  0.0625  0.1240 -0.2647
12398W        W29245  11.381   4.692  11.760  0.2070  0.1448  0.0657
12399W        W29246  16.372   4.757   1.114  0.2069 -0.2285 -0.1322
12400W        W29247   1.205   9.315  11.458 -0.2276 -0.1008 -0.0117
12401W        W29248   4.279  16.165   5.167 -0.1604 -0.1096 -0.3238
12402W        W29249  10.053   1.120  10.678 -0.2153 -0.2049  0.0859
12403W        W29250  12.463  17.852  11.962 -0.1198  0.0572  0.1306
12404W        W29251   1.481   4.313  13.304 -0.1835  0.0922 -0.1085
12405W        W29252   3.508  18.517   5.059 -0.1366 -0.1745  0.1588
12406W        W29253  11.688   3.361   5.304  0.1395  0.0182 -0.4851
12407W        W29254   3.608  15.224   3.448 -0.0657 -0.1431 -0.3319
12408W        W29255  11.384   4.784   3.144  0.2317 -0.1320  0.2595
12409W        W29256  13.579  18.210  14.135 -0.0548 -0.1637  0.4052
12410W        W29257  10.893  15.217   5.640  0.2852  0.0722  0.1091
12411W        W29258  13.058   0.166  14.175 -0.0400  0.3657  0.0787
12412W        W29259  17.642  10.133   4.724 -0.1409  0.2617  0.2351
12413W        W29260   0.963  11.848  11.592  0.0899  0.2433  0.0657
12414W        W29261   6.477   6.131  15.627  0.0224 -0.0957 -0.1630
12415W        W29262  15.952   1.093   3.568  0.2825  0.2455  0.0632
12416W        W29263   3.700  13.602   2.798 -0.0003 -0.0247 -0.0013
12417W        W29264   1.300  16.703  12.718  0.5268 -0.1993  0.2893
12418W        W29265   7.580   9.937   2.983 -0.0142 -0.2842  0.0715
12419W        W29266  17.652   5.154   5.618 -0.0657 -0.1181 -0.2311
12420W        W29267   5.242  14.740  13.775  0.4762 -0.2448  0.1632
12421W        W29268   8.593  14.936   5.093  0.1607  0.1498 -0.0420
12422W        W29269   7.269  15.779   0.707 -0.0805 -0.2081  0.1040
12423W        W29270   2.839  12.460  12.438  0.3996 -0.1102  0.0880
12424W        W29271   2.071   7.313   3.329  0.3717 -0.2139 -0.0074
12425W        W29272  13.198  10.682  12.707 -0.1751  0.1263  0.1798
12426W        W29273   0.813   0.665   0.171  0.3402 -0.0289  0.0827
12427W        W29274   2.914  14.561  15.659 -0.1465  0.0344 -0.0584
12428W        W29275  17.782   6.420  11.561 -0.2497  0.1314 -0.3006
12429W        W29276   8.309  13.096   4.797  0.1238 -0.0842 -0.2742
12430W        W29277  14.011   7.232   4.798 -0.1112 -0.0707  0.0342
12431W        W29278  16.405  10.906   0.854 -0.2047  0.4139 -0.2015
12432W        W29279   9.837   6.729   4.608 -0.1340  0.2272 -0.1852
12433W        W29280  11.019   4.223  14.272 -0.1777 -0.1515 -0.0540
12434W        W29281  10.825  10.781   3.249  0.1204  0.0797 -0.0064
12435W        W29282  16.549   4.644  11.348 -0.0459 -0.0981 -0.0175
12436W        W29283   1.379  18.214   4.893 -0.2108  0.0458  0.3756
12437W        W29284   0.837  17.669   3.236  0.2191  0.1552  0.0403
12438W        W29285  15.977  10.389   1.554  0.3684 -0.0158  0.0743
12439W        W29286   4.506   1.049   0.390  0.1560 -0.0777  0.2147
12440W        W29287   6.529   9.524   3.084  0.0713  0.1867 -0.1015
12441W        W29288   8.029  12.297  12.295 -0.1254 -0.1459  0.1201
12442W        W29289   6.470  15.430  15.522 -0.0758 -0.2106  0.0860
12443W        W29290  10.286   8.350  11.361  0.2078  0.0025  0.1429
12444W        W29291  10.544   1.782  14.332  0.0128  0.4537  0.2050
12445W        W29292   3.599  15.028  15.643  0.0812 -0.1928 -0.0897
12446W        W29293  16.044   2.505  13.750 -0.0682 -0.1168  0.0407
12447W        W29294   4.623   8.266   0.167  0.1339  0.0889  0.1151
12448W        W29295   4.398  14.274  13.459 -0.1980  0.1831  0.0604
12449W        W29296   5.731  12.079   1.368  0.0031  0.0718  0.0494
12450W        W29297  12.895  14.250   1.701 -0.1079  0.0860  0.1420
12451W        W29298   8.058   9.116   2.479 -0.1412 -0.1571  0.3224
12452W        W29299  11.517  14.570   1.494  0.1205  0.3054  0.2340
12453W        W29300  18.237   0.439   0.537  0.1721 -0.0998 -0.0546
12454W        W29301   9.774  12.018   0.993 -0.2067  0.3002 -0.1217
12455W        W29302   3.666   3.773   0.106  0.2000  0.3163  0.1076
12456W        W29303  17.400   7.539  13.356 -0.0685 -0.0271  0.0427
12457W        W29304  11.846  11.510  15.493 -0.4313 -0.2105 -0.0397
12458W        W29305   7.503   2.014   0.260  0.1059  0.1706  0.0236
12459W        W29306   8.922  17.713  10.672  0.2571 -0.0157 -0.2217
12460W        W29307  14.406  14.383   1.138  0.3182 -0.2045 -0.5691
12461W        W29308  18.312   4.126  11.873  0.2008  0.0121  0.1053
12462W        W29309  15.066  11.676   0.322 -0.1480 -0.2946 -0.0839
12463W        W29310  12.582   1.016   3.520  0.2506  0.0327 -0.0915
12464W        W29311  16.593   6.498   5.120  0.0835  0.2476  0.1122
12465W        W29312  13.345   3.308  15.376 -0.0706  0.4080 -0.0072
12466W        W29313   6.316  13.520   4.619  0.0340 -0.0256  0.2032
12467W        W29314  13.052  10.022   1.560  0.1423  0.2423  0.1060
12468W        W29315   6.621  11.217   4.998 -0.1776 -0.0927 -0.2820
12469W        W29316   8.309   5.619  13.771  0.2966 -0.0349  0.4367
12470W        W29317  16.493  14.614  15.286 -0.0086  0.1096 -0.3231
12471W        W29318  15.474   0.108  14.041 -0.0222 -0.0946  0.0135
12472W        W29319   3.565  16.044   5.388 -0.1602  0.1819 -0.0399
12473W        W29320  17.262  12.885   4.390 -0.0996 -0.1427 -0.2755
12474W        W29321   4.905  12.270  14.192  0.0071 -0.1749  0.2374
12475W        W29322  12.538   9.202  12.590 -0.1403 -0.1953  0.1854
12476W        W29323   7.747   5.333   4.014  0.0948 -0.1648  0.0702
12477W        W29324  13.568  13.630   0.601  0.0805  0.2249 -0.0719
12478W        W29325   5.532  15.956   1.538 -0.0564  0.0817  0.2826
12479W        W29326   0.816  18.484   4.039  0.2849 -0.0764  0.0996
12480W        W29327  18.764  11.694  14.645  0.1025 -0.0872 -0.3362
12481W        W29328  11.755   4.858  14.346 -0.1610 -0.0740 -0.0994
12482W        W29329   1.262   2.551  15.266  0.3565 -0.0585  0.2316
12483W        W29330  10.321  13.917   2.248 -0.0362  0.0646 -0.0182
12484W        W29331   2.330   2.785  11.050 -0.1802 -0.2552  0.1081
12485W        W29332   3.026   9.600  12.941  0.5096  0.0166 -0.0207
12486W        W29333  14.105   0.015   4.314  0.0285 -0.1895 -0.0663
12487W        W29334  12.710  10.132   3.676 -0.0416 -0.0593  0.0497
12488W        W29335  10.820  13.066   4.309  0.4527  0.2819  0.1335
12489W        W29336  14.774   1.064   0.840  0.0317  0.1903 -0.1265
12490W        W29337  16.177  17.605   3.596  0.1045  0.0275  0.0096
12491W        W29338  16.603  15.819  14.689  0.0029 -0.1048 -0.1785
12492W        W29339   6.472   5.623   2.763  0.3146  0.1201  0.1165
12493W        W29340   4.069  16.978   9.699  0.2349  0.1721  0.1102
12494W        W29341   4.806  17.831  10.512 -0.0738  0.0666 -0.2020
12495W        W29342   1.968   1.535  15.743  0.2058  0.1239  0.0383
12496W        W29343  14.401  11.377  14.005  0.1290 -0.2854 -0.0999
12497W        W29344  17.080  15.257   4.465  0.1321  0.0286  0.0087
12498W        W29345   1.525   8.483  14.211  0.4529  0.2029  0.2344
12499W        W29346  11.990   7.996  13.152 -0.0154  0.2351  0.1989
12500W        W29347  18.350  16.789   6.001 -0.0448  0.0837 -0.1493
12501W        W29348  18.177  14.406   3.130  0.1766  0.1822 -0.0360
12502W        W29349  17.533   1.594  12.622  0.1878  0.1430 -0.0160
12503W        W29350  10.290   5.818  13.304 -0.0294  0.2941  0.3392
12504W        W29351  13.161  14.322   3.705  0.2243 -0.1407 -0.1436
12505W        W29352  12.552   7.805  13.137  0.0449 -0.2469  0.1424
12506W        W29353  10.005   9.217  13.855 -0.3747 -0.1563  0.1652
12507W        W29354   4.653  11.884  13.977  0.0006 -0.0953 -0.0032
12508W        W29355   6.541  11.952   0.534  0.0183  0.0796 -0.1938
12509W        W29356   6.799  18.518   5.260  0.2656 -0.0060  0.1131
12510W        W29357   9.129  18.655   2.900 -0.1178 -0.0255  0.1453
12511W        W29358  11.952   7.919   1.957  0.2449  0.3098  0.1023
12512W        W29359   2.132   0.866  14.303 -0.3905  0.1768 -0.1626
12513W        W29360  16.878   4.176  14.511  0.1636  0.4793 -0.2649
12514W        W29361   6.297  11.835  14.024 -0.2753  0.4574 -0.1692
12515W        W29362  13.940  15.670  12.064  0.0574  0.1726  0.1688
12516W        W29363  16.206   2.582  12.926 -0.3302 -0.1533  0.1069
12517W        W29364   5.800  14.330  12.235 -0.0028  0.0927 -0.1307
12518W        W29365  13.435  13.925   1.004  0.3857  0.0507 -0.1664
12519W        W29366   8.248   7.177  12.199 -0.1939  0.2064  0.2839
12520W        W29367   0.315   9.742   1.629  0.1265  0.0673  0.0896
12521W        W29368  12.762  14.163   0.854  0.2195 -0.2599  0.1111
12522W        W29369  13.477  11.529   2.721  0.1704  0.1704  0.0584
12523W        W29370  14.789   8.375   5.141 -0.1285  0.2855 -0.0568
12524W        W29371   4.321  14.407  12.107  0.4860  0.1067 -0.0460
12525W        W29372  13.770   1.950   0.620 -0.2198  0.2218 -0.2816
12526W        W29373  13.990  15.538   2.045  0.1004 -0.2064 -0.1268
12527W        W29374   8.653   4.953   4.320  0.0222  0.0503 -0.2856
12528W        W29375  10.166  18.426  15.372 -0.0483 -0.1907  0.1159
12529W        W29376   7.849   2.276  11.305 -0.1409 -0.2977 -0.1751
12530W        W29377  16.330   3.697   1.459  0.2266  0.2175 -0.4053
12531W        W29378  16.567   7.780   0.758  0.1988  0.2127  0.0652
12532W        W29379  15.751  14.493   4.325  0.3015  0.3355 -0.0346
12533W        W29380  17.977   9.199   1.788 -0.2180 -0.2769 -0.0497
12534W        W29381   3.017   1.901   1.407  0.1399 -0.0717  0.1111
12535W        W29382  15.854  12.290  12.122 -0.1565 -0.2714 -0.0095
12536W        W29383   5.297   9.291  13.851 -0.1438 -0.1305 -0.1970
12537W        W29384   9.429   7.081   5.034  0.0107 -0.0134 -0.1064
12538W        W29385   3.464   4.676   4.351 -0.2545 -0.0506 -0.0037
12539W        W29386  16.756   5.247   4.772  0.0283 -0.1131 -0.1200
12540W        W29387  13.294  16.316  15.573  0.1354 -0.0595  0.3655
12541W        W29388  18.127   6.999   2.509 -0.2834  0.1409  0.0055
12542W        W29389   5.951  16.489  11.101 -0.1652 -0.1972  0.0187
12543W        W29390   9.581   9.186   4.785 -0.2167 -0.0636 -0.3425
12544W        W29391  14.559   3.495   4.741 -0.0050 -0.3609 -0.0664
12545W        W29392   3.205  12.906   0.134  0.0000  0.1405  0.2434
12546W        W29393  17.168  12.354   5.188  0.0761 -0.2842 -0.2544
12547W        W29394   1.327   1.373   1.563 -0.2372  0.0754  0.4557
12548W        W29395  15.144  16.431   0.871  0.3540 -0.0772 -0.1910
12549W        W29396  18.833   0.410   2.142 -0.0671 -0.0203 -0.1297
12550W        W29397   7.832  14.557   3.832  0.0346 -0.1752  0.2898
12551W        W29398   6.156   6.559  13.664  0.1512  0.0051 -0.0955
12552W        W29399  11.164   1.168  10.869 -0.2046  0.2175 -0.1830
12553W        W29400   7.474   0.620  11.107  0.0574  0.3686 -0.1484
12554W        W29401   2.644  17.618  12.644  0.0943  0.1574 -0.2059
12555W        W29402   2.720  16.982  12.342  0.2911 -0.0295 -0.2775
12556W        W29403  12.092   5.458  12.721 -0.2191 -0.1088 -0.1090
12557W        W29404   8.870  16.135   5.019 -0.0643  0.2624  0.0675
12558W        W29405  17.413  15.747  14.969  0.1927 -0.2494 -0.0708
12559W        W29406  16.603   6.862   5.845  0.0938  0.2447 -0.4164
12560W        W29407   6.277   9.200   2.658  0.1645 -0.1788  0.1609
12561W        W29408  18.789  10.164   1.823  0.1191  0.1434 -0.1956
12562W        W29409  17.800  15.721  12.947 -0.1481  0.1901 -0.1330
12563W        W29410   4.713  15.196  13.890  0.0767  0.2386  0.0897
12564W        W29411   0.351  16.083   1.404 -0.1145  0.2411  0.2589
12565W        W29412   7.609  10.744   4.167 -0.0385 -0.2739 -0.1819
12566W        W29413   2.455   4.253  13.331 -0.1921 -0.1929 -0.2301
12567W        W29414   1.743   5.394  14.281  0.0298  0.1369 -0.3033
12568W        W29415   9.690  11.847  14.354  0.0705 -0.0030  0.2314
12569W        W29416   4.911   6.233  13.121  0.2225  0.1081 -0.0073
12570W        W29417   8.242   5.298   2.257 -0.1416 -0.0857  0.0473
12571W        W29418  14.463  15.740   1.664  0.0419  0.2527  0.0042
12572W        W29419   0.904   7.809   3.267  0.0199 -0.2336  0.1603
12573W        W29420   3.704  12.211  14.094 -0.1209 -0.3182  0.0306
12574W        W29421   9.363   6.761  11.494 -0.0036 -0.1093 -0.3102
12575W        W29422   8.294  18.396   5.521 -0.1255 -0.3395  0.2048
12576W        W29423  18.306  12.328  13.892  0.1797 -0.0034  0.1126
12577W        W29424  15.895   1.464   1.952 -0.3179 -0.0506  0.1092
12578W        W29425  17.050   1.077  12.395 -0.0104 -0.0556  0.0177
12579W        W29426  13.316   9.275   1.107 -0.0272 -0.2416  0.1830
12580W        W29427  10.801   3.163   0.476 -0.1191  0.2178  0.2302
12581W        W29428  18.828   1.747   2.715  0.0289  0.0272 -0.1641
12582W        W29429  12.377  15.771  11.826  0.0571 -0.1338 -0.3603
12583W        W29430  16.473  13.379   3.476 -0.3868  0.2862  0.4602
12584W        W29431   3.175  11.823   5.022 -0.2063 -0.2452  0.0786
12585W        W29432  12.232  10.288   3.879  0.1608  0.2948 -0.1952
12586W        W29433  11.349   0.469   2.810 -0.0612 -0.1216 -0.2681
12587W        W29434  11.307   3.277  10.358  0.1973  0.1795 -0.1728
12588W        W29435  10.606  15.676   4.736  0.1474 -0.3417  0.3191
12589W        W29436  11.211   4.919  14.174  0.1255 -0.2111 -0.0494
12590W        W29437   9.092  15.865   1.538  0.0142 -0.0787  0.2572
12591W        W29438   8.386  14.413   4.297  0.0262 -0.0854 -0.0157
12592W        W29439  11.547  17.992  10.322  0.1493  0.1516  0.4933
12593W        W29440  15.892  13.702   4.414  0.2357  0.1737 -0.2962
12594W        W29441   9.598   5.623   0.619  0.0792  0.2454  0.1184
12595W        W29442   0.145   5.189   1.147  0.0271  0.0910  0.1460
12596W        W29443  10.380  12.737  11.320 -0.1169 -0.0020 -0.0888
12597W        W29444  13.676  15.411  15.085 -0.1897  0.1815 -0.1699
12598W        W29445   4.753  13.267  12.650  0.1656 -0.0703 -0.0317
12599W        W29446  10.148   4.294   2.728 -0.3411 -0.2231 -0.0533
12600W        W29447   3.982   4.710  15.097 -0.1786  0.2881  0.0316
12601W        W29448  16.040   5.400   3.057  0.2705  0.1884  0.1048
12602W        W29449   0.305   3.949   2.266 -0.4671 -0.3356  0.0326
12603W        W29450  16.023   9.055   4.302  0.1128  0.5121 -0.1576
12604W        W29451   0.554  12.486   2.305  0.1776 -0.0797  0.1076
12605W        W29452   2.126  18.423  13.720 -0.0253 -0.1831 -0.0399
12606W        W29453  13.075  10.229  11.075 -0.3626  0.2302 -0.1726
12607W        W29454  17.501   8.155   2.374 -0.2306 -0.1169 -0.1964
12608W        W29455  10.609  16.053   0.053  0.4434  0.1270 -0.1692
12609W        W29456   9.018   1.347  14.510  0.0570  0.2566  0.3139
12610W        W29457   1.761  11.836   0.892 -0.1547 -0.1445  0.0945
12611W        W29458  15.882  15.561   1.404 -0.3694 -0.0303  0.1908
12612W        W29459   8.016   9.970  12.609  0.5018 -0.0912 -0.1756
12613W        W29460  13.517  16.195  14.068 -0.3208 -0.2109 -0.2083
12614W        W29461  11.476   5.247  12.269  0.1026 -0.1113  0.1588
12615W        W29462  13.999  18.267   2.243  0.1485  0.0239 -0.1709
12616W        W29463  13.733  10.784  10.175  0.0553 -0.1409  0.4035
12617W        W29464   3.218  10.633   1.279  0.0055  0.0155 -0.2701
12618W        W29465   0.923  11.328   2.599 -0.0729  0.0578 -0.0166
12619W        W29466  17.226   9.375   0.513  0.0715 -0.1027 -0.1007
12620W        W29467   4.003   4.258  14.130 -0.0493 -0.3338 -0.2451
12621W        W29468  11.768   2.444   1.503  0.0600  0.0537  0.2826
12622W        W29469  15.034  12.168  12.665  0.0045 -0.1152 -0.0175
12623W        W29470   6.179   7.114  15.103  0.0195 -0.1431  0.1123
12624W        W29471   8.251  10.024   4.066 -0.0668 -0.1011 -0.1657
12625W        W29472   1.234   5.773   0.619  0.0721 -0.1416 -0.2447
12626W        W29473  13.800  17.290  14.665  0.3375 -0.0379 -0.1697
12627W        W29474  12.008   1.863   0.532  0.1272  0.1028 -0.0340
12628W        W29475   1.328  13.605  14.639 -0.1129  0.0090  0.1226
12629W        W29476   1.272  15.643   1.647 -0.3493 -0.1049  0.0994
12630W        W29477   9.613   3.551   0.313  0.0576  0.0716  0.0445
12631W        W29478   4.193  11.004  14.281 -0.2454 -0.0037  0.0906
12632W        W29479  12.585  17.547  12.767 -0.2300  0.0212  0.0090
12633W        W29480   7.818   9.803   1.980 -0.2309 -0.5693  0.1289
12634W        W29481  13.278   8.527   5.062  0.1400  0.1289 -0.3763
12635W        W29482   3.720  14.758   0.253 -0.1262 -0.1920  0.0465
12636W        W29483  13.816   5.889   4.349 -0.2559  0.1892 -0.2451
12637W        W29484  13.077  14.580  10.966 -0.0055  0.1329 -0.1947
12638W        W29485   3.251   7.449  13.128  0.0993 -0.1938 -0.1028
12639W        W29486  12.057   8.790   0.587 -0.1053 -0.0703 -0.2066
12640W        W29487   2.908  16.757  12.840 -0.1540  0.1222  0.0632
12641W        W29488  16.150   1.191   5.343 -0.3101  0.1296 -0.1621
12642W        W29489   2.045   9.180   1.596 -0.0352  0.0232 -0.1159
12643W        W29490  16.735   3.398  12.871  0.0752 -0.0834  0.0723
12644W        W29491  15.469  17.743   5.036  0.0826 -0.2178  0.1085
12645W        W29492   8.457   8.291  11.496 -0.2078  0.0330  0.4273
12646W        W29493   3.853   1.362  13.771 -0.1149 -0.0248 -0.2739
12647W        W29494   7.378  10.131   1.484  0.1290 -0.1246 -0.3549
12648W        W29495   8.751  18.627   0.870  0.4200 -0.1667 -0.0277
12649W        W29496  13.305   9.520  12.770  0.0599 -0.1843  0.0612
12650W        W29497  18.481   8.215   1.821  0.0259  0.0592  0.1439
12651W        W29498  17.829  11.430   0.330 -0.0204 -0.1379  0.1672
12652W        W29499  11.504  11.858  15.484  0.3960  0.0363  0.0107
12653W        W29500   2.382   8.240  14.587 -0.0221 -0.0760 -0.0180
12654W        W29501  15.000  15.089   0.523 -0.2349  0.2680  0.3316
12655W        W29502   6.097  14.760   0.310  0.0499  0.0682  0.1851
12656W        W29503   7.220  11.591  10.924 -0.0081  0.1968 -0.1281
12657W        W29504  11.904  14.472  10.773 -0.3256  0.0658 -0.2986
12658W        W29505   0.859  10.817  14.123 -0.2510  0.1697  0.1245
12659W        W29506  12.012  10.041  12.692 -0.2441  0.0028 -0.0978
12660W        W29507  11.008  18.165  11.831  0.0372  0.1272 -0.0718
12661W        W29508  17.709   5.332   3.613  0.0341  0.0269 -0.0558
12662W        W29509   8.934   6.242  10.006  0.2395  0.1256 -0.1407
12663W        W29510   8.852  16.675   0.490  0.2253 -0.2979 -0.0828
12664W        W29511   6.305   9.274  14.981  0.1032  0.1331  0.0091
12665W        W29512   8.935  13.783  15.145 -0.6209 -0.1385  0.0131
12666W        W29513   7.110   5.237   3.728 -0.2830  0.1463  0.1866
12667W        W29514  14.053   9.713  12.845 -0.3118  0.1469  0.4799
12668W        W29515  11.248   4.816   1.320 -0.3851  0.1304 -0.0853
12669W        W29516  14.056   6.681  13.873  0.2399 -0.2671 -0.1735
12670W        W29517  15.880   0.001   2.445 -0.2595 -0.0116 -0.1845
12671W        W29518  17.196  15.945   0.084 -0.0903 -0.3543 -0.0817
12672W        W29519   8.367  13.096  14.282 -0.2209  0.0579 -0.0679
12673W        W29520  13.567   7.916   0.598 -0.0838  0.3177 -0.0402
12674W        W29521   6.284  11.115   0.685  0.1929 -0.2028  0.1521
12675W        W29522  18.356  17.832  15.498 -0.0076 -0.2321  0.0749
12676W        W29523  11.514   0.094   3.093  0.3386 -0.0296 -0.2424
12677W        W29524  17.276   8.222   0.072 -0.0094 -0.4379 -0.3698
12678W        W29525   3.795  11.029   4.427 -0.0968  0.0377 -0.2578
12679W        W29526   0.199  15.014   0.743 -0.2713  0.0280  0.3135
12680W        W29527   3.052  18.829   3.271 -0.0639 -0.0674  0.0943
12681W        W29528  11.468  11.761   4.897  0.0578 -0.1822 -0.0495
12682W        W29529   0.942  17.538  14.162  0.2087 -0.2130 -0.0093
12683W        W29530  18.820   5.043   1.600 -0.2963 -0.0702 -0.1452
12684W        W29531   8.075   7.631  12.394  0.2126  0.3307 -0.1803
12685W        W29532   4.717   8.760  15.131  0.0093  0.0075  0.1875
12686W        W29533   9.078   5.163  15.376 -0.0459  0.0714 -0.3288
12687W        W29534  12.195   2.114   5.678 -0.1556  0.3166 -0.0951
12688W        W29535  17.268   1.143  12.876  0.2501 -0.1374  0.3522
12689W        W29536   9.169  14.347   3.167  0.1807  0.0466 -0.1136
12690W        W29537   2.174   7.794  11.699  0.1272  0.0613 -0.2110
12691W        W29538  17.310   5.678   4.049  0.0285 -0.1887  0.3486
12692W        W29539  14.506  10.965   0.274 -0.0553 -0.2933 -0.1366
12693W        W29540  10.793  16.818   3.311 -0.1641  0.1698 -0.0574
12694W        W29541   3.576  12.756  11.225  0.1086  0.0825 -0.2849
12695W        W29542  16.521   1.310  11.576 -0.0200  0.3300  0.1331
12696W        W29543  15.333   3.969   5.177  0.1193 -0.0373  0.1759
12697W        W29544  10.233   3.409   4.341  0.3504 -0.0221  0.0856
12698W        W29545  16.316  13.373  14.664  0.0243 -0.0883 -0.3524
12699W        W29546  13.435  11.467   4.888  0.0633  0.1760 -0.2779
12700W        W29547  16.930  10.520  14.886  0.0159  0.2473 -0.1835
12701W        W29548   2.153   1.191  13.510  0.0765  0.0254 -0.2362
12702W        W29549   8.211  18.761  15.430  0.2177  0.2826  0.0682
12703W        W29550  11.048  12.549   3.026  0.2833 -0.0201 -0.0082
12704W        W29551   2.110   6.843   0.697 -0.1717  0.0362 -0.2202
12705W        W29552  13.620   0.026  15.077  0.0634 -0.2026  0.0287
12706W        W29553   1.852   7.596  11.358 -0.1002  0.1991 -0.1366
12707W        W29554   6.047  13.660   5.504  0.1714  0.3159  0.0560
12708W        W29555  10.490  17.365  12.174 -0.1016 -0.1606  0.2418
12709W        W29556   2.362   2.498  11.896 -0.1990 -0.0560  0.1505
12710W        W29557  11.766  15.711  14.436  0.0016 -0.1313  0.0831
12711W        W29558  16.719  13.840  15.301 -0.1675  0.0559  0.0467
12712W        W29559  12.994   7.476   5.392  0.2214  0.1151  0.0477
12713W        W29560   7.550  16.423   3.976  0.1062 -0.1517 -0.1291
12714W        W29561   7.689   1.057  11.053  0.1296  0.0825 -0.0967
12715W        W29562   8.503   5.092   1.144 -0.0826  0.1303 -0.0697
12716W        W29563   5.863   9.902  14.398 -0.1219  0.0796 -0.2334
12717W        W29564  10.927  15.127   2.705 -0.1172  0.1527 -0.0650
12718W        W29565   7.026   6.105  13.948 -0.1160  0.1566  0.0909
12719W        W29566   0.144   9.215   3.360 -0.4040 -0.2064  0.1856
12720W        W29567   6.529   2.637   4.650  0.0886  0.1628  0.2363
12721W        W29568  10.355  12.501  13.726  0.2092  0.2372 -0.4212
12722W        W29569   1.023  17.211  14.715 -0.0512  0.0448  0.1407
12723W        W29570  17.601   8.883  14.811  0.1956 -0.2494 -0.3827
12724W        W29571   0.408  12.765  11.166 -0.4538 -0.0056  0.1727
12725W        W29572   4.567  18.632  12.207  0.0732  0.2720 -0.0122
12726W        W29573   5.751  13.476  11.960  0.0154  0.2123  0.1586
12727W        W29574   0.987   3.150   2.238 -0.0613  0.0360 -0.0626
12728W        W29575   7.064  11.407   4.839 -0.0140  0.1343  0.1055
12729W        W29576   6.121  11.170   5.453 -0.1437  0.3237 -0.3854
12730W        W29577   1.535  16.345  13.162 -0.1357 -0.3239 -0.0799
12731W        W29578  13.153   0.951   0.542 -0.0222  0.1836 -0.1381
12732W        W29579   3.531  17.573  12.951 -0.0381 -0.1090 -0.1372
12733W        W29580   4.507  13.369  13.100  0.2516  0.0451  0.1510
12734W        W29581   7.655   6.470   2.657 -0.0005  0.2734  0.1353
12735W        W29582   7.597  15.445   2.264  0.1354  0.0043  0.0911
12736W        W29583   9.983  16.945  11.036 -0.3155  0.0360 -0.1041
12737W        W29584  11.012  11.365   2.850  0.0271 -0.3638 -0.2314
12738W        W29585  12.695  16.621  12.863 -0.0239 -0.0076 -0.0234
12739W        W29586   8.571   2.346   3.360 -0.1547  0.1947 -0.0989
12740W        W29587  10.707   4.709  14.150  0.3775 -0.0455  0.2603
12741W        W29588   2.930   5.751  13.117 -0.1082  0.0129  0.1679
12742W        W29589   9.740   7.901   0.994  0.1028 -0.0102 -0.1461
12743W        W29590   9.506   8.598   2.837  0.2318  0.0296  0.2634
12744W        W29591  11.787  15.508  15.208  0.1633 -0.1072  0.0034
12745W        W29592   8.956  10.668   4.376  0.2063 -0.0315  0.2408
12746W        W29593  16.794   9.537  14.505 -0.0156  0.0231 -0.5592
12747W        W29594   5.138   1.030   2.318 -0.2217 -0.2733  0.3101
12748W        W29595  12.968  13.130   4.468 -0.0877  0.1684 -0.0946
12749W        W29596   1.239   8.772  15.267  0.0092  0.0319 -0.0610
12750W        W29597  10.606  17.009  12.707 -0.1385  0.2506  0.3533
12751W        W29598   5.547   8.250  11.249 -0.1681 -0.2560  0.4019
12752W        W29599   3.349  13.911   3.009  0.0015 -0.2901 -0.1416
12753W        W29600   4.549  11.181   0.415 -0.0773 -0.1682 -0.1018
12754W        W29601   6.941  17.928  13.976 -0.1468  0.0919 -0.2103
12755W        W29602   2.736  11.907   3.693 -0.0846  0.1370 -0.1289
12756W        W29603   0.660   3.241  11.229  0.0754  0.4672  0.2002
12757W        W29604   1.923   5.925   5.583  0.2203  0.1091  0.2569
12758W        W29605  16.690  13.332   3.929 -0.0960 -0.1438  0.2153
12759W        W29606  18.490  12.610   1.089 -0.2451 -0.1444 -0.1055
12760W        W29607   1.360   2.007  14.662 -0.2295  0.0433 -0.1054
12761W        W29608  14.257   4.161   3.153  0.0166  0.0724 -0.2432
12762W        W29609   5.926  17.824  14.240 -0.2171  0.2146  0.0533
12763W        W29610  14.754  10.700  15.245  0.1790  0.1324  0.0310
12764W        W29611  14.025   2.911   0.765 -0.0231 -0.0991  0.1651
12765W        W29612   5.699  15.372   1.468 -0.0073 -0.2987  0.1029
12766W        W29613   9.699   2.933  14.728  0.0178 -0.1996 -0.1176
12767W        W29614   9.194  15.601   4.050  0.1522 -0.1363  0.0447
12768W        W29615   6.755   4.581   4.167 -0.0084 -0.1865  0.2429
12769W        W29616  10.044  13.811  14.312  0.0005  0.1671 -0.0230
12770W        W29617  15.556   7.665  12.902 -0.1699 -0.0336 -0.2549
12771W        W29618   4.788  17.613  12.549 -0.2502  0.1369 -0.0556
12772W        W29619   7.304   6.587   3.681 -0.0078 -0.2085  0.2329
12773W        W29620   6.507   1.904  15.293 -0.2387 -0.0977  0.3335
12774W        W29621  15.802  13.327   5.196  0.0632 -0.0148 -0.0046
12775W        W29622  10.471  16.109   1.107  0.0740 -0.1443 -0.1269
12776W        W29623  11.564  17.817  14.238  0.0117 -0.2300 -0.1484
12777W        W29624  10.370   6.367  14.679 -0.1461  0.0577 -0.3328
12778W        W29625  13.490  14.328  11.211  0.1575  0.1608  0.3743
12779W        W29626  16.743  17.121   1.801  0.0704 -0.3034  0.0349
12780W        W29627   0.512   8.282  14.887 -0.0016 -0.0021  0.0749
12781W        W29628   8.264  13.991   5.500 -0.0443 -0.2698 -0.0267
12782W        W29629   3.283   0.505  12.736  0.1333  0.0967 -0.1473
12783W        W29630   0.326  10.679  14.386 -0.1737 -0.0696  0.1016
12784W        W29631   1.077   8.131   1.987  0.0088 -0.2717 -0.1958
12785W        W29632   1.641   9.426   1.375  0.1142 -0.0457  0.1231
12786W        W29633   1.250   7.188  12.419  0.4829 -0.2130 -0.2118
12787W        W29634   3.815  16.897   5.613 -0.1273  0.1007 -0.0698
12788W        W29635   5.254  13.132  11.949  0.1127  0.0326 -0.0985
12789W        W29636  15.500   3.567   3.106  0.0312 -0.4446  0.2575
12790W        W29637  11.761  18.337  10.875  0.0938 -0.3780 -0.0983
12791W        W29638   2.198   4.751  14.558  0.0439  0.0729 -0.3369
12792W        W29639  13.603  16.546   4.100 -0.0633 -0.5553  0.1357
12793W        W29640   7.980  17.621  11.787  0.2287 -0.0571 -0.1452
12794W        W29641  15.258   0.817  11.118 -0.1673 -0.2398  0.0549
12795W        W29642   9.383   8.273   5.076  0.0576 -0.1515  0.0293
12796W        W29643   4.962  10.971   4.751  0.2915 -0.2904  0.0160
12797W        W29644  15.631  12.471  15.297 -0.5156 -0.0472 -0.4597
12798W        W29645   6.908  13.929   5.129 -0.2504 -0.0650  0.0085
12799W        W29646   4.162   8.728  13.938  0.0609  0.1704  0.0243
12800W        W29647   7.955  12.949   4.425 -0.1085 -0.1177  0.3900
12801W        W29648   4.726  11.237  12.580 -0.0493  0.0588  0.1478
12802W        W29649  10.438   4.017   4.021  0.0201 -0.0893 -0.1715
12803W        W29650  14.849  17.052   2.637 -0.2000  0.1493  0.1829
12804W        W29651   4.619  18.576   2.401  0.0816 -0.1502  0.0036
12805W        W29652  15.961   0.814  12.471  0.0921 -0.4810  0.1816
12806W        W29653  11.747  18.477  12.442  0.0253  0.3593 -0.0944
12807W        W29654  13.293   7.264  15.001  0.0728  0.0280  0.2569
12808W        W29655   7.975   5.784   2.232  0.4317 -0.2712 -0.1270
12809W        W29656  17.744  12.020  13.092  0.2598 -0.0302  0.2347
12810W        W29657  13.765   7.261  14.169 -0.0818  0.0311  0.0591
12811W        W29658   7.833   8.435  15.000 -0.0475 -0.1834  0.0504
12812W        W29659   3.926  11.267   0.833 -0.1665 -0.3886  0.2439
12813W        W29660   6.537   7.356  13.162  0.1673 -0.3398 -0.0588
12814W        W29661   2.857   8.149  14.340  0.1475  0.2883  0.1607
12815W        W29662   4.085  10.844   3.251 -0.2023 -0.3333 -0.3107
12816W        W29663  13.216   0.544   0.862  0.0310 -0.0039 -0.0352
12817W        W29664   2.574  17.914  13.026  0.1320 -0.1464 -0.1038
12818W        W29665   5.198  16.077  13.053  0.3472  0.0779  0.0316
12819W        W29666  18.661  18.466  14.052 -0.0858  0.4254 -0.1760
12820W        W29667  18.203  10.903  15.132  0.0112  0.0732  0.0200
12821W        W29668  10.685  14.537   3.908  0.1387  0.2189 -0.0395
12822W        W29669  14.742  16.829  11.053 -0.1695  0.1994 -0.1124
12823W        W29670   1.223  10.103  15.753  0.0648  0.2746  0.1214
12824W        W29671   7.455   9.469   3.179 -0.1748  0.3106  0.0805
12825W        W29672  10.803  18.157   1.920  0.0724  0.2999  0.2415
12826W        W29673   9.796   5.755   2.794 -0.1732  0.4267  0.0719
12827W        W29674   9.788   1.815   2.344  0.1914 -0.3002  0.4634
12828W        W29675   8.342  10.139  14.932  0.2475  0.0694 -0.0050
12829W        W29676  10.535   8.285  12.838 -0.2935 -0.0751 -0.0436
12830W        W29677   4.291  10.525   1.457 -0.2375 -0.0858 -0.0057
12831W        W29678   0.291   9.220  12.518 -0.2440  0.2374 -0.0085
12832W        W29679  16.779   7.233   6.485 -0.1988 -0.0259 -0.0099
12833W        W29680   3.741  17.827   0.959  0.1680 -0.0275 -0.0227
12834W        W29681  14.009  16.475  10.734  0.1434 -0.0902  0.2284
12835W        W29682   6.957  13.988   3.252  0.1139  0.2554 -0.1015
12836W        W29683   2.299  14.011   1.996 -0.0124 -0.2973  0.0334
12837W        W29684   8.196   0.510   2.173  0.0829 -0.0272 -0.2535
12838W        W29685   9.162  11.390  10.536 -0.0059 -0.0616  0.1206
12839W        W29686   2.499   1.444  14.244 -0.0181 -0.1078  0.1066
12840W        W29687   0.601  15.676  14.242 -0.1284 -0.0802 -0.2392
12841W        W29688  11.931   4.890  12.215  0.0879  0.2700 -0.0799
12842W        W29689   9.148   4.531  13.027  0.0673  0.2518 -0.0490
12843W        W29690  10.335   4.447   0.922  0.4306 -0.3851  0.0758
12844W        W29691   2.766   8.539   2.633  0.0920 -0.0661 -0.1239
12845W        W29692  16.176  18.515   2.692 -0.1581 -0.1259 -0.2261
12846W        W29693   8.392  11.850  13.540 -0.0469  0.0589 -0.0671
12847W        W29694  11.953  12.109  15.370  0.0795  0.1664  0.0842
12848W        W29695  12.349   8.387  12.508 -0.1859 -0.0242 -0.3095
12849W        W29696   5.209   8.099  14.839 -0.1427  0.0339  0.3163
12850W        W29697  12.519   7.978  14.063  0.0653  0.0630 -0.1025
12851W        W29698   6.732  11.255   2.437  0.1938 -0.2236 -0.2160
12852W        W29699   3.805   1.948  12.465 -0.3325 -0.0635  0.0846
12853W        W29700   2.841  15.232   0.277 -0.0139 -0.1554  0.0278
12854W        W29701   5.880  14.207   1.744 -0.0516 -0.0430  0.0634
12855W        W29702  13.041   6.644   1.658 -0.0923 -0.1029  0.2509
12856W        W29703  16.418   8.809   5.032  0.0072  0.1581  0.3379
12857W        W29704   0.377   6.431  13.386  0.0452 -0.0979 -0.2075
12858W        W29705  13.332   2.290   3.702 -0.3959  0.0197 -0.3011
12859W        W29706  18.639   6.655   1.117 -0.0132 -0.1710 -0.2313
12860W        W29707  12.122   0.671  15.611 -0.0330 -0.0962  0.0044
12861W        W29708  17.577  17.126   4.882 -0.0327 -0.0964  0.1393
12862W        W29709   3.584  13.830  14.973 -0.0116 -0.0695  0.0620
12863W        W29710   4.301  18.607  13.168 -0.0926  0.2488 -0.0020
12864W        W29711  14.104  13.148  12.608  0.0821  0.2058  0.0715
12865W        W29712   6.512   2.791  11.896  0.2305 -0.2279 -0.1975
12866W        W29713   9.194  16.005   2.953 -0.1724 -0.0011  0.1055
12867W        W29714  10.143   1.167  12.871 -0.2382  0.0328  0.0605
12868W        W29715   4.251   4.025   1.454  0.1740 -0.3836 -0.1550
12869W        W29716  15.854  15.924   0.608 -0.4539  0.0671  0.0314
12870W        W29717   3.980  12.005   0.356  0.1213 -0.3087 -0.0293
12871W        W29718   8.179  10.840  13.431 -0.4544  0.0900 -0.0300
12872W        W29719   6.618   0.242  14.091 -0.0384 -0.1756  0.0372
12873W        W29720   8.494   4.630  13.697 -0.2837  0.0948  0.2298
12874W        W29721  16.489   8.991  12.978  0.0002 -0.0191  0.1745
12875W        W29722  18.298  13.137  14.599 -0.0993  0.2506  0.0208
12876W        W29723   6.960   3.544   3.712 -0.1505 -0.1212 -0.2525
12877W        W29724   7.499  16.073  12.516 -0.0161 -0.0259 -0.5218
12878W        W29725   7.780   1.413   2.534  0.1097  0.0667  0.1797
12879W        W29726   2.401   7.350   4.541 -0.1472 -0.2372 -0.1927
12880W        W29727   5.170   2.904  15.275 -0.0442 -0.2332 -0.2100
12881W        W29728   8.034   4.922   0.977  0.1044 -0.0619 -0.1395
12882W        W29729   2.664  10.298  13.434 -0.1122  0.0246 -0.0838
12883W        W29730   5.009   4.594   1.050  0.2004 -0.0751 -0.0032
12884W        W29731   9.369  13.213   2.401 -0.1363 -0.1874  0.0667
12885W        W29732  17.774   9.875  14.711  0.0293  0.2591 -0.0039
12886W        W29733  16.264   2.282   0.023  0.3163  0.3548  0.0699
12887W        W29734  16.692  11.121   3.326 -0.1759 -0.0455  0.1363
12888W        W29735   3.930  10.457   2.450  0.0805 -0.0236 -0.1437
12889W        W29736  14.151   1.257   2.279 -0.0011  0.1914  0.3394
12890W        W29737   4.706  16.842  10.971  0.1767  0.2055  0.0690
12891W        W29738  18.212  12.867  12.296 -0.1141 -0.1459  0.0473
12892W        W29739   2.548  17.296   1.936 -0.1679 -0.0843  0.1045
12893W        W29740   0.931   4.956  15.528 -0.0245  0.0495 -0.1636
12894W        W29741  18.762   8.084   5.239  0.0788  0.1415  0.0650
12895W        W29742   3.347  14.524  13.833 -0.1397  0.1517  0.1490
12896W        W29743  10.123   6.638  11.754  0.0986 -0.1321  0.1339
12897W        W29744   4.905   0.971   1.166  0.1294 -0.1052  0.3037
12898W        W29745   1.231   9.745   3.552 -0.3450  0.0610 -0.2668
12899W        W29746  11.997  16.530  11.710 -0.0463 -0.4430 -0.0467
12900W        W29747  17.229   5.054  15.388  0.0847  0.1651  0.0298
12901W        W29748  10.599   8.141   0.278 -0.0300 -0.2922  0.1324
12902W        W29749   4.201  14.823   2.942  0.0542 -0.2267 -0.1815
12903W        W29750  14.774   4.867   5.112 -0.2485  0.0210 -0.1450
12904W        W29751   0.774  15.529   0.342 -0.0352  0.0095 -0.0326
12905W        W29752   3.402   6.370   0.947 -0.2809  0.1537  0.0528
12906W        W29753  10.230  10.980   1.166 -0.0019  0.0776  0.3321
12907W        W29754   8.387   9.850   3.082  0.1210  0.0466  0.0626
12908W        W29755   6.700   3.724  11.314  0.2934 -0.2288  0.0264
12909W        W29756   4.004  15.732   0.704 -0.2746 -0.0155  0.3247
12910W        W29757  12.464  12.821  12.934 -0.0348  0.1018 -0.2749
12911W        W29758  11.632   1.016   1.478 -0.2392 -0.0027 -0.1141
12912W        W29759   4.760   2.668  11.196  0.2694 -0.0857 -0.2108
12913W        W29760   2.882   1.816   2.451  0.0863  0.1614 -0.5244
12914W        W29761   9.506   8.931  10.950 -0.1127  0.0378 -0.0900
12915W        W29762   8.971  12.475   0.829 -0.0467 -0.1217  0.1417
12916W        W29763  16.320  12.683  11.293 -0.0632 -0.0582  0.2720
12917W        W29764  10.580   4.408  12.834  0.0114 -0.1868 -0.2811
12918W        W29765   3.820   6.034   2.590  0.0392  0.1502  0.0420
12919W        W29766   8.176  15.349   4.502 -0.0661  0.0541  0.0168
12920W        W29767   3.086  16.069  14.982 -0.0708 -0.1830  0.0980
12921W        W29768  13.950   4.972  13.078 -0.0847  0.3182  0.1884
12922W        W29769  10.518  14.689   1.392 -0.3600  0.3626 -0.0631
12923W        W29770   3.463  11.500   0.966 -0.0225 -0.2568  0.1491
12924W        W29771  14.298   0.776   2.203  0.0393  0.0588 -0.1327
12925W        W29772  14.875   9.369   5.365  0.0937  0.3564  0.2782
12926W        W29773  10.075  12.457  12.113 -0.2951 -0.1668  0.2595
12927W        W29774  14.813   4.938  15.576  0.0409  0.0702 -0.1214
12928W        W29775   9.400   4.408  11.913 -0.2040 -0.1748 -0.4918
12929W        W29776  13.566   6.430   1.684 -0.3396  0.2672 -0.2271
12930W        W29777  11.198   1.125   2.262 -0.2912  0.0544 -0.0745
12931W        W29778  18.769  17.139   3.784  0.3566 -0.1084 -0.2243
12932W        W29779  16.416   7.807   5.106 -0.0933  0.1252 -0.0127
12933W        W29780   3.364   6.489  11.638  0.1036 -0.0179  0.2426
12934W        W29781   7.381  16.259   2.425 -0.1926  0.2203 -0.0515
12935W        W29782   7.364   9.547  11.985 -0.0612 -0.0869 -0.1651
12936W        W29783   8.371  14.224  12.105  0.0606  0.2098 -0.0832
12937W        W29784   8.021  16.488   0.114 -0.1406  0.0144 -0.0829
12938W        W29785  14.937   9.296   2.320  0.3790 -0.3067  0.2787
12939W        W29786   5.408  16.199   0.094  0.3025  0.3859  0.3108
12940W        W29787  13.400  14.825   1.024 -0.2284  0.0990  0.0153
12941W        W29788   0.918  15.006   2.288  0.0742  0.1740  0.0908
12942W        W29789   3.139  14.836  12.596  0.1963 -0.2058 -0.2049
12943W        W29790  18.225   0.185  15.212 -0.0535 -0.0582 -0.1395
12944W        W29791  10.648  10.746  15.461  0.0383 -0.0691  0.4528
12945W        W29792  14.292   3.309   4.318 -0.3919  0.1359 -0.0083
12946W        W29793  14.695  16.090   3.694  0.1351  0.3426 -0.2447
12947W        W29794   0.324  13.039   2.454  0.0697 -0.1591 -0.0442
12948W        W29795  11.449  15.171  15.328  0.0105  0.1617  0.1612
12949W        W29796   4.126   5.137   2.108  0.1370  0.1820 -0.2554
12950W        W29797   1.033  15.475   4.377 -0.0694  0.0146  0.1048
12951W        W29798   7.440   0.473   1.560  0.1152  0.1391  0.3411
12952W        W29799   5.072  11.996   2.004 -0.2360 -0.1976 -0.0240
12953W        W29800  17.561   6.568  11.149 -0.0782 -0.0295 -0.0432
12954W        W29801   4.065   3.705   5.840 -0.0354  0.0757 -0.0087
12955W        W29802  13.594   9.716  10.806  0.4492 -0.0982  0.0053
12956W        W29803   6.181   9.182   4.606  0.1473 -0.0718 -0.2959
12957W        W29804   3.030   8.344   0.314 -0.1328  0.0556  0.0207
12958W        W29805  14.284   7.980  14.515  0.0844 -0.2227  0.0439
12959W        W29806  18.144   4.785  11.431 -0.2466 -0.1245 -0.3137
12960W        W29807  11.122  16.656   4.657 -0.1611  0.0453 -0.0108
12961W        W29808  15.111   9.686  12.781 -0.0964  0.2101 -0.0916
12962W        W29809  12.510   3.501   3.612 -0.1023  0.0970 -0.0936
12963W        W29810   3.170   0.025   2.254  0.0925  0.2766 -0.3498
12964W        W29811  16.700   2.376   3.117  0.2388 -0.0456  0.0113
12965W        W29812  11.083   3.040   0.010  0.0596 -0.1504  0.1345
12966W        W29813   0.508   3.103  11.674 -0.2171  0.1963 -0.2832
12967W        W29814  18.459   6.655   2.359  0.2969 -0.0990  0.1060
12968W        W29815  11.537  17.288  13.294  0.3604  0.4533  0.0836
12969W        W29816  12.440  17.165   4.065 -0.0852  0.1930 -0.0531
12970W        W29817   8.023   9.205   4.354 -0.2992  0.1683  0.0764
12971W        W29818   1.522   5.887   0.206  0.0531 -0.1746 -0.0579
12972W        W29819   7.134   2.811   0.196  0.3447 -0.0466  0.0300
12973W        W29820   2.209   0.555  11.806 -0.0710 -0.3000 -0.1961
12974W        W29821   8.582  16.626   3.710 -0.1650  0.1183  0.1308
12975W        W29822   7.405   0.543   2.429 -0.2746 -0.2915 -0.1728
12976W        W29823   5.852   2.650   4.003  0.0979  0.0847  0.0283
12977W        W29824  16.422  18.610  10.382  0.2504  0.1221  0.1267
12978W        W29825  13.597   1.118  15.047  0.0165  0.4103  0.2651
12979W        W29826   2.906  14.430  13.569  0.0966 -0.3584  0.0491
12980W        W29827   2.949  17.843  13.893  0.0670 -0.0328 -0.1689
12981W        W29828  11.018  16.050  15.059  0.1020 -0.1311 -0.0386
12982W        W29829   8.877  15.063   3.958  0.1394  0.1061 -0.0226
12983W        W29830  15.219  12.596  12.621 -0.0893  0.0365 -0.1040
12984W        W29831  12.240   5.517  11.799 -0.1034  0.0768 -0.1666
12985W        W29832   0.460   7.784   2.013  0.1811  0.1716 -0.2410
12986W        W29833   5.629  14.546   0.594 -0.0010 -0.1957  0.1300
12987W        W29834  13.173  16.313  12.651  0.2327  0.1446 -0.0664
12988W        W29835   3.341   7.361   4.600  0.2386  0.1780 -0.3383
12989W        W29836   0.447   0.235   2.921  0.0617  0.3975 -0.0964
12990W        W29837  10.376   6.713  12.910 -0.3408 -0.0854 -0.3176
12991W        W29838  12.394  16.667  13.684 -0.0378 -0.0780 -0.2711
12992W        W29839   1.628   7.884  15.523  0.0542 -0.1976  0.1740
12993W        W29840  18.721   1.056  11.110 -0.1238 -0.0821 -0.2381
12994W        W29841   9.205   9.239   3.623  0.0665 -0.0538  0.1327
12995W        W29842   0.271   1.137   5.507 -0.1940  0.0078  0.2272
12996W        W29843  12.646   7.035   3.067  0.1492 -0.0909  0.1367
12997W        W29844  10.029   6.854   2.360 -0.0943 -0.4118 -0.5197
12998W        W29845   5.691   8.463   4.424 -0.2013 -0.0309  0.2493
12999W        W29846   1.427   9.341  14.548 -0.0207  0.0655  0.0729
13000W        W29847   9.089   9.722   0.078 -0.0498 -0.0315  0.0092
13001W        W29848  10.605   2.026   1.273 -0.0297  0.4626  0.0728
13002W        W29849   3.799  16.468  11.923 -0.0509  0.1867  0.3446
13003W        W29850   0.378   8.314   5.065  0.0223  0.0108  0.1434
13004W        W29851  18.825   9.069   4.745  0.3933 -0.1454  0.1361
13005W        W29852   9.670  13.570   1.299  0.0349 -0.0366 -0.2925
13006W        W29853  15.528   6.838  13.701  0.2165  0.2680  0.0303
13007W        W29854  14.611   1.931   4.217 -0.0993 -0.0484  0.0125
13008W        W29855   7.607  14.032  12.003  0.1316  0.3496 -0.0038
13009W        W29856  12.286  16.128   0.590 -0.0919 -0.3184 -0.3067
13010W        W29857   5.030  14.568  10.712  0.2784 -0.1750  0.0820
13011W        W29858   1.952   1.391   0.675 -0.0996  0.2203 -0.0027
13012W        W29859   0.483  10.196  14.141  0.1053 -0.0882 -0.0332
13013W        W29860  10.943  15.677   3.236  0.2978  0.1351 -0.0711
13014W        W29861  18.106  16.789  13.440  0.1708 -0.2249 -0.1353
13015W        W29862   4.052   3.821  15.055  0.2451  0.1241 -0.0314
13016W        W29863   6.641   7.049   5.529 -0.1796 -0.1207 -0.1425
13017W        W29864   9.736   5.810  12.905 -0.0350  0.1408  0.0522
13018W        W29865   3.063  13.688  14.113  0.2019 -0.2015 -0.1584
13019W        W29866  14.032  18.262   5.911  0.2695 -0.0927 -0.1335
13020W        W29867  13.904   4.040  11.307 -0.0003 -0.0037 -0.0199
13021W        W29868   3.077   6.229  14.511  0.4287 -0.1032  0.1451
13022W        W29869  14.033   2.163  11.183  0.0889 -0.1485  0.3267
13023W        W29870  18.300   7.492   4.022  0.2550  0.1500 -0.1405
13024W        W29871  18.852  13.442   5.003  0.3392  0.1031  0.1729
13025W        W29872   2.312  11.565   4.383  0.0092 -0.0270 -0.2034
13026W        W29873   8.130  10.684  12.290  0.1383 -0.0722 -0.0613
13027W        W29874  18.618   1.431  15.675 -0.0748 -0.0269 -0.2822
13028W        W29875  10.337  14.657  12.018 -0.2984  0.0321 -0.1354
13029W        W29876  10.366   7.382  14.994 -0.0247 -0.1509  0.0391
13030W        W29877  13.043   8.640  11.351  0.3174 -0.2060 -0.0983
13031W        W29878  15.559   2.419   0.807  0.1196 -0.0716  0.4173
13032W        W29879   7.739  17.271  12.632 -0.0198  0.0036  0.1026
13033W        W29880  10.277  14.053   2.794 -0.0249 -0.1987  0.0266
13034W        W29881  10.024   8.686  14.021 -0.0365  0.2337 -0.1490
13035W        W29882  16.053  17.647   2.292  0.0006  0.1512 -0.0483
13036W        W29883  15.672   0.186   5.344  0.1541  0.0729 -0.3681
13037W        W29884  14.197  12.554  12.628  0.2425  0.1758  0.0312
13038W        W29885   2.707   2.362  12.833  0.2471 -0.0883 -0.3063
13039W        W29886  15.193   0.136   3.443 -0.2398  0.1941  0.0422
13040W        W29887   6.036   0.491  14.815 -0.1553 -0.1418  0.0744
13041W        W29888   8.082   1.745   2.096 -0.2908  0.2013 -0.1353
13042W        W29889   4.160   2.959  12.450  0.0901  0.2012  0.0661
13043W        W29890  18.789   1.816  12.679 -0.0184 -0.1772 -0.1901
13044W        W29891   7.179  13.514  15.179  0.0198  0.2066  0.0302
13045W        W29892  11.367   9.531   4.017 -0.0687  0.0386 -0.1403
13046W        W29893   9.034   4.115  12.098  0.1014  0.0736 -0.0063
13047W        W29894   5.899   3.113   2.828  0.2289  0.1938  0.0823
13048W        W29895  13.596  13.693  10.591  0.0599 -0.2985  0.0879
13049W        W29896   2.758   9.353   3.016  0.0653  0.2079  0.2758
13050W        W29897  18.090  16.960   0.539 -0.2390  0.1426 -0.4183
13051W        W29898  10.184  10.104   2.187 -0.0250  0.2308 -0.0149
13052W        W29899   7.288  10.675   0.697 -0.1607 -0.2980 -0.1890
13053W        W29900   6.173  10.090  13.239 -0.2874  0.2670 -0.1305
13054W        W29901   9.331  16.681   0.175 -0.2224  0.1328 -0.0730
13055W        W29902  16.304   9.063  15.280 -0.0257  0.0953 -0.1058
13056W        W29903   1.120   6.125   2.630  0.0238  0.0416 -0.1111
13057W        W29904   8.029   9.306  11.791  0.0133  0.1832  0.2722
13058W        W29905  17.096  18.051  14.005  0.0296  0.1143  0.0807
13059W        W29906  12.387  10.503  12.422 -0.2246 -0.2333 -0.1557
13060W        W29907   0.703   1.371  15.727  0.4786  0.1389  0.1662
13061W        W29908   9.999   5.423   4.642 -0.0863  0.4193  0.1731
13062W        W29909   7.516   8.304  11.142  0.0133 -0.0289  0.1697
13063W        W29910   2.087  15.026  11.363 -0.1542 -0.0636 -0.1922
13064W        W29911  17.936  10.907   4.546 -0.5086 -0.0499 -0.1653
13065W        W29912  11.113   6.120   3.475 -0.1219  0.2766 -0.4001
13066W        W29913  12.903   1.088   4.311 -0.1373 -0.1822 -0.2000
13067W        W29914  12.312  12.135  13.378  0.1234 -0.0923 -0.2647
13068W        W29915  16.082   4.006  11.834  0.0664  0.3701  0.1914
13069W        W29916  14.843  12.880   4.505  0.2500  0.0935 -0.1979
13070W        W29917  10.103   6.131   3.636 -0.1252 -0.0413 -0.0793
13071W        W29918  16.157  18.415   0.358  0.1116 -0.1441 -0.0158
13072W        W29919  17.793   7.230  13.846 -0.2748  0.1494  0.0501
13073W        W29920  10.304   6.179  11.831  0.3226  0.0038  0.2963
13074W        W29921   2.795   1.463  11.486  0.1762 -0.1953  0.0215
13075W        W29922   8.872   2.992   3.490  0.0772 -0.0886 -0.0883
13076W        W29923   4.323   0.710  15.187  0.1539 -0.3185 -0.0731
13077W        W29924  15.009   2.867  15.505  0.2136  0.2016  0.2023
13078W        W29925   7.585   1.469   0.208 -0.0784 -0.1334 -0.0189
13079W        W29926  16.518   3.395  14.870  0.0984  0.0232  0.0130
13080W        W29927   7.792  17.579  14.241 -0.1431 -0.1229 -0.0829
13081W        W29928   6.572   2.659  13.549 -0.1501  0.1046 -0.1605
13082W        W29929   6.348   7.078   5.074  0.1574 -0.1868  0.1481
13083W        W29930   2.879   9.368   4.879  0.1640 -0.1906  0.1140
13084W        W29931  17.759   7.324  13.020 -0.0553  0.0738 -0.1945
13085W        W29932   6.971   5.254  10.815  0.0202  0.1272 -0.0475
13086W        W29933   5.191   5.284  12.765 -0.1743  0.0793  0.2183
13087W        W29934   2.936   8.168   1.624 -0.1136  0.3129 -0.3697
13088W        W29935   3.842  18.195  15.545  0.2026 -0.3084  0.2911
13089W        W29936  16.228   6.375   3.225  0.0773  0.1901  0.2063
13090W        W29937   1.740   1.259  12.433 -0.0491 -0.3259  0.4433
13091W        W29938   2.244  13.675  12.893  0.1096  0.1699  0.3701
13092W        W29939   9.858   7.675   3.616 -0.2740  0.1326 -0.1692
13093W        W29940   5.321  14.247  13.688 -0.2947  0.1665 -0.2205
13094W        W29941  10.784   5.482   2.771 -0.1879  0.2996 -0.0622
13095W        W29942   7.553  17.899  12.680 -0.4361  0.2419  0.2510
13096W        W29943   6.495  12.342   0.209 -0.1495 -0.2023 -0.1909
13097W        W29944   6.236  16.755   3.024  0.1835 -0.3921  0.0886
13098W        W29945  18.075   2.917  14.583  0.2068 -0.2264  0.2937
13099W        W29946  12.793  17.699  13.562  0.0841 -0.0172 -0.2344
13100W        W29947   2.184   4.325  13.753 -0.2268  0.1110 -0.0645
13101W        W29948   7.091   2.028   1.966 -0.1233 -0.3459 -0.1347
13102W        W29949  16.971  11.444   0.923  0.1442  0.0101 -0.0850
13103W        W29950   7.149   6.443   5.579 -0.3418  0.2684 -0.5237
13104W        W29951   1.733  11.625  12.935  0.1971  0.2818  0.2196
13105W        W29952   7.327  18.341  11.827  0.2149 -0.2440  0.0105
13106W        W29953  11.608  16.033  15.074  0.1045 -0.4150  0.1840
13107W        W29954  17.433   8.766   2.988 -0.1583 -0.0675 -0.1906
13108W        W29955  10.261   8.762   2.603 -0.0791 -0.1478 -0.0368
13109W        W29956   8.980  13.998   1.821  0.1982 -0.0561 -0.2972
13110W        W29957   3.527   5.617  14.529  0.1309  0.0759  0.1292
13111W        W29958   0.684   6.206   3.006 -0.1006  0.0050  0.3591
13112W        W29959   8.353   0.782   0.967  0.1558  0.1403  0.1954
13113W        W29960  18.425  13.973   3.053 -0.2541 -0.0373 -0.1349
13114W        W29961   6.370   9.794  15.747  0.1716 -0.2350 -0.2407
13115W        W29962  11.121   7.465  15.478 -0.0586  0.2079 -0.2048
13116W        W29963  15.736   5.410  11.600 -0.1635  0.0191  0.4242
13117W        W29964  10.132   4.050  13.028 -0.0940 -0.2374 -0.0138
13118W        W29965  15.573  18.575   1.689 -0.3100 -0.0680  0.1513
13119W        W29966  12.256   1.440  15.664 -0.0644  0.1492 -0.0373
13120W        W29967   3.399  14.874   5.043  0.2335  0.0495  0.3215
13121W        W29968   2.352   2.601   1.736  0.0874  0.4043  0.0845
13122W        W29969  17.353   9.293  12.122  0.2735 -0.0617  0.0393
13123W        W29970  11.417   3.704  13.659 -0.0751  0.2304  0.0137
13124W        W29971  15.173  10.993  14.992 -0.1141 -0.3373  0.3966
13125W        W29972  11.311   5.854   2.378  0.0531 -0.0756 -0.1129
13126W        W29973   2.881   6.171  13.968  0.2018  0.0257  0.0227
13127W        W29974   1.079  15.702   2.073 -0.0949  0.1218 -0.1076
13128W        W29975   7.446   3.165  14.333 -0.2820 -0.3019 -0.1451
13129W        W29976  15.498   6.537  14.940 -0.1804 -0.2074 -0.0752
13130W        W29977   4.294   9.200   2.350  0.0885 -0.0662  0.4137
13131W        W29978   3.315   1.961  12.548  0.0625  0.2457  0.2000
13132W        W29979   4.345   6.997  13.050 -0.0794  0.1456  0.3373
13133W        W29980   8.071  17.582   3.426  0.1730 -0.0608  0.1538
13134W        W29981  15.362   0.956  15.152 -0.1409  0.2542 -0.2797
13135W        W29982   4.088   0.814  11.621  0.3017 -0.1082  0.1624
13136W        W29983   4.605   4.186   2.722 -0.2367  0.0475 -0.2991
13137W        W29984   3.798  18.702  15.400 -0.0475  0.1381  0.2081
13138W        W29985   8.258  18.447  10.621 -0.1076 -0.2723  0.0550
13139W        W29986  13.765   5.943   0.820  0.0338 -0.2465 -0.0982
13140W        W29987   9.250   0.664   0.762  0.1332 -0.0472  0.1091
13141W        W29988  15.614   1.663   2.803  0.0551 -0.1759 -0.0591
13142W        W29989   3.844   3.021  14.431  0.3441 -0.0467  0.3106
13143W        W29990  14.226   4.890   2.643 -0.1907 -0.0430 -0.0512
13144W        W29991   2.960  12.130   2.795  0.0620  0.1623  0.1264
13145W        W29992   7.410  12.314   1.738 -0.0326 -0.0552  0.0196
13146W        W29993   2.640   4.666   4.579 -0.4331 -0.1486  0.2372
13147W        W29994  15.924   5.640  15.726  0.1385  0.3555  0.0551
13148W        W29995  15.656   4.707  15.552 -0.1190 -0.2311  0.0594
13149W        W29996  10.258  18.093  11.179  0.0394  0.0081 -0.2273
13150W        W29997   3.242  14.262   0.285 -0.0511 -0.2746  0.2684
13151W        W29998  17.043  11.552  12.411 -0.1621  0.0567 -0.2649
13152W        W29999  10.781   9.850  11.309 -0.0911  0.2207  0.0957
13153W        W30000   1.708  12.225   3.194 -0.1120  0.3740  0.1158
13154W        W30001  11.648  12.808  11.027  0.3207  0.0701 -0.0359
13155W        W30002   8.563  10.842  10.398 -0.0759 -0.1537  0.1485
13156W        W30003   8.666  16.775  11.626 -0.3027 -0.1872 -0.2000
13157W        W30004   7.834  17.292  15.507 -0.1885  0.0199  0.1421
13158W        W30005  17.795   6.568  13.498  0.0096  0.2461  0.0821
13159W        W30006  16.266   8.736  11.344  0.0166  0.0944 -0.2973
13160W        W30007  12.382   3.990  14.356 -0.2432 -0.2756 -0.0041
13161W        W30008   5.602   1.232   2.274 -0.1274 -0.0553 -0.0536
13162W        W30009  16.668  10.780   3.733  0.1124 -0.3546  0.4253
13163W        W30010   3.212  12.834  10.612 -0.0947 -0.1910  0.0303
13164W        W30011  18.020  12.081  14.450 -0.1744  0.0323 -0.1194
13165W        W30012   9.987  17.280  11.594  0.0416 -0.2542 -0.2330
13166W        W30013   5.341   8.531   4.140  0.2427 -0.0779  0.1685
13167W        W30014  10.108  12.983  15.552  0.0511 -0.1520  0.0051
13168W        W30015  15.450   0.962   1.218 -0.0229  0.1689 -0.2459
13169W        W30016   2.881   4.419   2.256 -0.0280  0.2876  0.1052
13170W        W30017   6.286   7.081   4.603 -0.1067  0.0574  0.0057
13171W        W30018   0.452  14.167  11.725  0.1489 -0.1984  0.2730
13172W        W30019   4.372   9.682  13.685  0.0016  0.0255 -0.0648
13173W        W30020   8.851  18.795   4.795 -0.0718  0.1613  0.0225
13174W        W30021   5.085  14.422   1.255 -0.1677  0.0901 -0.1211
13175W        W30022   5.153   3.777  12.053  0.3220 -0.1493  0.0711
13176W        W30023   6.921  18.130  14.897 -0.3036  0.3990  0.0503
13177W        W30024   5.460   8.619  15.428  0.0825  0.1077 -0.1061
13178W        W30025  12.871  17.989   5.291  0.0174  0.2661  0.2011
13179W        W30026   8.290   8.275  15.227 -0.1570 -0.0733 -0.0950
13180W        W30027  16.740  12.596   1.502 -0.2404  0.1113  0.1351
13181W        W30028   2.820   3.588   1.207 -0.2853 -0.0638  0.4497
13182W        W30029   1.417   0.635  11.742 -0.1859 -0.0341  0.0151
13183W        W30030   5.262  11.997   1.573 -0.1540 -0.0576  0.0424
13184W        W30031   6.453   3.607   3.434  0.0745  0.0016  0.2128
13185W        W30032   3.464  12.590  11.749  0.4387  0.0892  0.2694
13186W        W30033  15.192  11.744   2.514 -0.0932  0.3283  0.1862
13187W        W30034  12.204   7.872   2.600  0.2042 -0.1575  0.1276
13188W        W30035  13.478   5.954   2.854  0.2101  0.1443  0.2524
13189W        W30036   2.708  10.790  13.048  0.1380 -0.1946  0.1520
13190W        W30037  18.012   3.720  13.580 -0.1981  0.0925  0.1330
13191W        W30038   5.334  12.072  14.511 -0.4053 -0.1950  0.0832
13192W        W30039  10.350   1.013   2.937 -0.2341 -0.4047  0.2018
13193W        W30040   2.945  10.324   4.811 -0.1342 -0.3061  0.2124
13194W        W30041  17.811   6.628   5.347 -0.4031 -0.0572  0.1230
13195W        W30042  14.134   0.539   0.160 -0.2077 -0.0191 -0.0847
13196W        W30043   6.639   6.054   1.166 -0.0182  0.1087  0.3769
13197W        W30044   0.527  14.623  15.471  0.2451  0.0885  0.2918
13198W        W30045   3.274  17.702   2.199 -0.1584  0.2002  0.1265
13199W        W30046   3.280  12.333   1.695 -0.2057  0.0201  0.0098
13200W        W30047  13.581   1.857   3.066  0.1074 -0.2848  0.0310
13201W        W30048  12.405  14.242   5.055 -0.3169  0.0911 -0.0561
13202W        W30049   3.327  16.623  11.963  0.3061  0.0326 -0.2812
13203W        W30050  15.507   8.995  15.265 -0.0270 -0.1535  0.2916
13204W        W30051  10.669   8.141  14.480  0.1475 -0.0463 -0.0755
13205W        W30052   1.476   0.877   3.768 -0.1050  0.1682 -0.0662
13206W        W30053  15.188  18.324  12.984  0.0716  0.1578 -0.0287
13207W        W30054   7.331  12.048  11.769  0.0662  0.1245 -0.3167
13208W        W30055   0.321  12.966  12.068  0.1898 -0.0609 -0.0527
13209W        W30056  18.166   0.332  11.560 -0.2916 -0.0251  0.0939
13210W        W30057  18.754   9.528   5.384  0.1938  0.0865  0.1761
13211W        W30058   6.545   1.386  15.129  0.0850 -0.1311 -0.0417
13212W        W30059   2.231  15.011   5.670  0.3090 -0.1783  0.0546
13213W        W30060   9.783   4.032  12.618  0.3430  0.3717 -0.3016
13214W        W30061  17.905   9.576   5.297 -0.1236  0.1724  0.1159
13215W        W30062   4.291   0.357  14.046 -0.0448  0.1984  0.1802
13216W        W30063   1.050   8.236  11.656 -0.1153  0.0869 -0.0141
13217W        W30064   1.313   9.530   3.071 -0.1033 -0.1197  0.3129
13218W        W30065   5.711   4.274   1.456 -0.1151  0.1003 -0.0707
13219W        W30066  12.249  15.360  13.208  0.0390 -0.1673 -0.5210
13220W        W30067   3.959  13.838   3.210  0.2625 -0.1747  0.2285
13221W        W30068   0.032   8.283  12.418  0.1181  0.1572 -0.0647
13222W        W30069  12.066  12.505   2.975 -0.0837  0.0125  0.1683
13223W        W30070  13.666   3.087   3.240  0.3377  0.6222 -0.0777
13224W        W30071   9.487   0.273  13.815 -0.3514 -0.1372 -0.0124
13225W        W30072   0.067   4.673  15.446  0.2475 -0.3340  0.0114
13226W        W30073   8.954  10.979  15.009  0.0909  0.2055  0.1819
13227W        W30074  12.116  12.794  14.070 -0.0595  0.1095 -0.1372
13228W        W30075   6.761  12.586  13.380 -0.2624 -0.0010 -0.3579
13229W        W30076   7.829   6.724  12.065  0.0081  0.1393  0.2642
13230W        W30077  16.272   5.865  14.377  0.2814  0.1426 -0.2431
13231W        W30078  15.448  10.882   4.357  0.2898 -0.4225 -0.0674
13232W        W30079  12.570  15.807   1.815 -0.1155  0.1978 -0.2489
13233W        W30080  15.094   8.825  12.180 -0.3319 -0.0828 -0.0253
13234W        W30081  12.760  15.163  13.413 -0.1820 -0.1834  0.1813
13235W        W30082   4.320   2.425   4.105 -0.0882  0.2165  0.1424
13236W        W30083  11.427  10.143  15.544 -0.3294  0.0577  0.0826
13237W        W30084   3.127   7.985  13.507 -0.5068 -0.2324 -0.0321
13238W        W30085  15.368  17.372  14.245 -0.0029 -0.0195  0.1227
13239W        W30086   8.859  15.218  11.952 -0.1315  0.0901  0.1877
13240W        W30087  18.053   7.975   5.670 -0.0971 -0.1483  0.0242
13241W        W30088   8.665   8.156   2.719 -0.1500 -0.5253 -0.1371
13242W        W30089  15.472  16.488   4.741  0.1150 -0.0189  0.0054
13243W        W30090  15.650   7.370  13.737 -0.0857  0.1810 -0.0813
13244W        W30091   1.822   7.527   1.991 -0.1842 -0.1954 -0.0403
13245W        W30092   0.963  18.015  12.763  0.1453 -0.3012  0.2523
13246W        W30093  10.232   8.222   3.576 -0.2101  0.2395  0.1474
13247W        W30094  14.021  14.987   5.012  0.0048 -0.0365  0.3048
13248W        W30095  18.544  12.802  13.926 -0.0230 -0.2189  0.0216
13249W        W30096  15.653   5.902   4.515 -0.0353  0.0103 -0.0648
13250W        W30097  12.478   1.291   4.672  0.0156  0.2344 -0.1603
13251W        W30098   8.779  16.886   1.662  0.3510 -0.2109  0.2936
13252W        W30099  10.589   7.614  12.758  0.2115  0.1181  0.1693
13253W        W30100  14.013  12.193  11.741  0.0517  0.2355  0.0329
13254W        W30101   8.229   1.293   0.901 -0.0030 -0.1680 -0.0231
13255W        W30102  14.704   1.364   0.009  0.4972  0.2184 -0.1216
13256W        W30103  15.940   6.126  14.751 -0.0047  0.0222  0.0393
13257W        W30104   9.436  18.633  12.326  0.0201  0.2072  0.0314
13258W        W30105   5.611  14.166   3.834 -0.1560  0.1659 -0.1012
13259W        W30106   0.263   0.205  11.521  0.0224 -0.3244 -0.0870
13260W        W30107   0.897  15.361  11.544 -0.1440  0.2048 -0.0194
13261W        W30108  13.687   0.564   2.693  0.1227  0.0729  0.1512
13262W        W30109  11.175   6.490  13.230  0.1160 -0.0622  0.1039
13263W        W30110  13.032  12.658   5.623  0.1445 -0.1531 -0.2354
13264W        W30111   9.835   1.371  15.668  0.1780 -0.1548  0.1063
13265W        W30112  14.586  13.054  15.662  0.0787 -0.0012  0.1826
13266W        W30113   1.067   9.250  12.039 -0.1063  0.0345  0.0198
13267W        W30114  12.319   2.409   4.310 -0.2043 -0.0955 -0.0017
13268W        W30115   7.276  10.671  14.250  0.1229  0.1454 -0.0301
13269W        W30116   9.363  17.971   2.294  0.1123  0.2726 -0.3458
13270W        W30117  12.176   1.032  12.286 -0.3070  0.0641 -0.2705
13271W        W30118   3.547   6.760  12.061  0.1969  0.1353  0.0493
13272W        W30119   6.732  17.012   1.029  0.3698  0.1166  0.0775
13273W        W30120  10.710  13.927   4.843 -0.2286 -0.2135 -0.0610
13274W        W30121   7.398  11.048  11.020 -0.1315 -0.1540 -0.0756
13275W        W30122  16.446   3.714  14.245 -0.0810 -0.0615  0.0737
13276W        W30123   5.692  16.587   0.279  0.0444  0.2440  0.2076
13277W        W30124   4.254   6.251   2.445 -0.0888 -0.0792 -0.2465
13278W        W30125  11.753   6.504  14.021 -0.1269 -0.1723  0.0276
13279W        W30126   3.843   9.455   2.393 -0.0944 -0.2080  0.0917
13280W        W30127  12.819   2.937   3.073 -0.0290 -0.0057 -0.1643
13281W        W30128  11.185  11.931  12.731 -0.0282 -0.1628 -0.0071
13282W        W30129  14.751   3.094  14.327  0.0879 -0.0675  0.2674
13283W        W30130  11.296   3.323  14.535  0.1780  0.2282  0.3253
13284W        W30131   5.657   1.051  11.874 -0.0937 -0.1078  0.2516
13285W        W30132   0.033   2.207   2.503 -0.0433  0.0953 -0.2397
13286W        W30133   9.497   6.719  10.929  0.1614  0.2240  0.1067
13287W        W30134   3.581   6.125  15.357  0.0892  0.0429 -0.3298
13288W        W30135   6.347  10.832  15.436  0.1090  0.1013  0.2666
13289W        W30136   6.601   3.148  12.760 -0.2259 -0.4780 -0.0384
13290W        W30137   4.957   8.212   2.795  0.4075  0.1482  0.0969
13291W        W30138   7.961   2.818  13.473 -0.0617 -0.1503  0.0505
13292W        W30139   2.888   3.743  11.711 -0.0013  0.4022 -0.0717
13293W        W30140  18.259  18.597   4.096 -0.0737 -0.1287 -0.2256
13294W        W30141  15.206  17.668  14.567 -0.0128 -0.3659  0.2323
13295W        W30142   2.976  15.942   4.701  0.2048  0.0545 -0.1320
13296W        W30143   4.003   9.326   5.511  0.1188  0.4422 -0.2177
13297W        W30144  12.896   6.981  14.346 -0.2115  0.2417  0.2078
13298W        W30145   6.566  16.848  10.697  0.0412  0.0705 -0.1861
13299W        W30146   5.601  13.029  13.764 -0.1568  0.1497  0.1979
13300W        W30147   8.832   1.374  11.762  0.0338 -0.0246  0.2307
13301W        W30148   3.074   4.625  12.715 -0.0751  0.2080 -0.1907
13302W        W30149  11.506   8.601  12.646  0.0708 -0.1153  0.4820
13303W        W30150  15.210  15.464   1.458 -0.0498 -0.0606  0.1540
13304W        W30151  11.843  13.098  15.271 -0.0002 -0.2002 -0.0098
13305W        W30152   2.869   3.533   3.842 -0.1812  0.1434 -0.0708
13306W        W30153  12.812   9.659   5.091  0.0333  0.0026  0.3325
13307W        W30154  10.633  13.598   4.152  0.0729  0.0486  0.1046
13308W        W30155   9.320  16.698   1.219  0.3309 -0.1857  0.0411
13309W        W30156   7.904  11.793   5.134 -0.0871  0.0652 -0.0233
13310W        W30157   8.280  10.630  15.255  0.1308  0.3358  0.4272
13311W        W30158   7.088  12.534   3.180  0.1440 -0.2007 -0.1774
13312W        W30159  12.928  13.092   3.143 -0.0643  0.0054 -0.1854
13313W        W30160   3.214  11.109  14.261 -0.0404  0.1345 -0.1701
13314W        W30161  17.782   3.297  14.607 -0.0103  0.0226  0.0164
13315W        W30162  12.975   9.022   1.608 -0.2121 -0.1655  0.1294
13316W        W30163  15.595  17.971  11.675  0.0552 -0.0246  0.0318
13317W        W30164  16.258   5.734   5.457  0.0490  0.1822 -0.2605
13318W        W30165  13.223  12.378  14.593  0.3120 -0.2661 -0.1113
13319W        W30166  15.715   5.975   1.864  0.0163 -0.1139 -0.1507
13320W        W30167   6.568   0.837   3.553 -0.0471  0.1079 -0.2709
13321W        W30168   5.893  11.528   5.131  0.2374  0.1863 -0.0209
13322W        W30169   0.787   2.740  13.014  0.3957  0.2331 -0.1323
13323W        W30170   2.050   2.980  15.518  0.0371 -0.1808  0.0928
13324W        W30171  14.948  17.427   0.259  0.3021 -0.0379 -0.2991
13325W        W30172  15.082  10.115   0.368  0.1871  0.1666 -0.0090
13326W        W30173  10.220   8.840  11.965  0.0876  0.1938  0.2205
13327W        W30174   6.284   9.785  15.232 -0.1258 -0.2069 -0.0223
13328W        W30175  10.272   9.449   0.201  0.0043 -0.1225 -0.3738
13329W        W30176   4.647  17.046  12.606  0.3400  0.1552  0.3506
13330W        W30177   8.454   4.183  11.809 -0.1761  0.2742 -0.4717
13331W        W30178   9.070   2.201  12.442  0.1168 -0.1045  0.1847
13332W        W30179   1.388   1.936  11.480 -0.2690 -0.1882  0.1519
13333W        W30180   6.641  15.296   3.557 -0.0098  0.0578  0.0198
13334W        W30181   6.272  11.815   3.275  0.1814  0.1135  0.2382
13335W        W30182   8.801  16.088  14.397  0.4056 -0.0124 -0.3576
13336W        W30183  14.183   1.267   0.068 -0.1898  0.3571 -0.2453
13337W        W30184  13.708   9.870   3.991  0.4388  0.0357  0.3228
13338W        W30185  10.984  10.816   2.235  0.1524 -0.1510  0.1528
13339W        W30186  13.353   4.224  15.387  0.4249 -0.0280 -0.3205
13340W        W30187   5.496   1.148   3.663  0.1863  0.0400 -0.1281
13341W        W30188   2.297   7.693   1.562 -0.0612 -0.1855 -0.0933
13342W        W30189   2.251  14.596   2.546 -0.1229 -0.3300  0.1540
13343W        W30190  16.312   0.936   3.912  0.0408 -0.2639  0.1399
13344W        W30191   3.636  15.927  15.146  0.3443  0.1279 -0.1287
13345W        W30192   9.635  11.610  14.803  0.1195 -0.1307 -0.0991
13346W        W30193   0.119   0.453  10.986  0.1295  0.2412  0.0158
13347W        W30194   7.096  11.794   1.626 -0.1218 -0.2945  0.0043
13348W        W30195  10.191  15.957  14.663  0.1044 -0.1361 -0.3027
13349W        W30196  11.621   2.064   3.859 -0.4354 -0.0717 -0.1081
13350W        W30197   1.848  13.472   1.490 -0.1710 -0.1213 -0.0324
13351W        W30198  17.425   0.990  15.238  0.1081 -0.1194  0.3840
13352W        W30199  17.404  15.196   1.159  0.0495  0.0067  0.0057
13353W        W30200   2.400   6.257   0.617 -0.1403  0.2590 -0.1561
13354W        W30201  18.539  14.422  13.914  0.5921  0.2759  0.0099
13355W        W30202  15.463  10.322   3.900 -0.3293 -0.0043 -0.2377
13356W        W30203  15.653  14.577  11.791 -0.1049  0.0886  0.0422
13357W        W30204  14.024   8.093   2.928 -0.0784  0.2819 -0.0868
13358W        W30205   7.257   2.645   0.673  0.0106  0.1225  0.0652
13359W        W30206  10.461  17.184  13.663 -0.2388 -0.0484  0.1549
13360W        W30207   6.555   1.259   0.330  0.3166  0.3037  0.5857
13361W        W30208   7.212  11.633  14.506  0.1838  0.0592 -0.1529
13362W        W30209   6.320  16.700  12.114 -0.0705  0.1679  0.1260
13363W        W30210   5.171  11.743   3.672  0.0008 -0.2607  0.0509
13364W        W30211  11.858  14.343  15.345  0.1042 -0.0762  0.1103
13365W        W30212   0.691   9.797   4.154  0.0436 -0.0857  0.2407
13366W        W30213   5.556   0.007  12.294  0.1153 -0.3303 -0.0546
13367W        W30214  11.367   0.237  13.334  0.2546  0.1074  0.0611
13368W        W30215  11.332   9.707   5.076 -0.2739 -0.0889 -0.3306
13369W        W30216  14.519  13.391  10.924 -0.0383 -0.0019  0.2042
13370W        W30217  16.135   8.257   3.723 -0.3668  0.1896 -0.4699
13371W        W30218  11.355   4.645   2.162  0.0493 -0.2149 -0.2038
13372W        W30219   8.928   1.702   1.231  0.0005  0.0001  0.0214
13373W        W30220   3.876   0.595   1.651  0.3032  0.2440 -0.1557
13374W        W30221   7.847   1.767  11.538  0.0294  0.0230 -0.0972
13375W        W30222   8.491  14.653  15.153  0.0409 -0.4645 -0.2074
13376W        W30223  11.964   4.360   0.518  0.0174  0.1651  0.1107
13377W        W30224   1.269  11.079   3.096  0.0976 -0.0409  0.1949
13378W        W30225  11.812  11.836  14.912  0.0876 -0.1587 -0.1548
13379W        W30226   1.086  12.717  13.409  0.0519  0.3366 -0.1589
13380W        W30227   0.342   6.654  12.537 -0.1630 -0.0480 -0.1979
13381W        W30228   7.693   1.187  15.529 -0.1731 -0.2154  0.1477
13382W        W30229   8.502  16.672   0.012  0.3441 -0.0837 -0.0948
13383W        W30230  10.848   4.288   3.983  0.1666  0.0434 -0.0788
13384W        W30231   1.615  10.465  12.214 -0.0096  0.2970 -0.1499
13385W        W30232   9.241  15.368  12.363 -0.2905 -0.1602  0.1661
13386W        W30233   7.875   0.912   0.868  0.1114  0.1200  0.0111
13387W        W30234  15.748   0.558   4.067 -0.1721  0.1072 -0.1627
13388W        W30235  11.271  10.944  11.996 -0.0498 -0.1753  0.1856
13389W        W30236  11.330   6.506  15.737 -0.0557 -0.0318 -0.0935
13390W        W30237  11.280  12.019  13.259 -0.0207  0.2220  0.2787
13391W        W30238   6.896  12.170   3.920  0.1290 -0.0307 -0.0669
13392W        W30239  11.704   9.960  11.205 -0.0507  0.1999 -0.0063
13393W        W30240   4.607  16.181  11.576  0.0930  0.0026  0.0620
13394W        W30241  12.703  11.989  11.298 -0.0704 -0.0697  0.1181
13395W        W30242   6.242   2.403   0.760  0.1658  0.4208 -0.1321
13396W        W30243   4.706  18.199  12.438 -0.2326 -0.1579  0.0998
13397W        W30244  16.050  16.111  11.902  0.1917 -0.2085 -0.2388
13398W        W30245  15.217   6.307  11.137 -0.1461 -0.1134 -0.2300
13399W        W30246  17.307  15.421  12.777  0.2148 -0.1980  0.0371
13400W        W30247   2.247   3.844   0.590 -0.1224  0.1598 -0.3375
13401W        W30248   9.319  10.534   0.861 -0.0319  0.0139 -0.0056
13402W        W30249  11.227  16.848   1.096  0.0767 -0.0255  0.0790
13403W        W30250   2.666   4.005  15.527 -0.1687  0.0468  0.0295
13404W        W30251   2.978  13.092  13.524 -0.0560  0.0376 -0.0242
13405W        W30252   1.836   0.904  11.818 -0.0118 -0.0521  0.0078
13406W        W30253   8.473  11.544  14.600 -0.2759 -0.3326 -0.1444
13407W        W30254   8.785  13.175   4.373 -0.1671 -0.1016 -0.1801
13408W        W30255  18.247   5.681   2.766  0.1702 -0.0080 -0.1711
13409W        W30256  12.872   1.213   2.854 -0.2247 -0.2596  0.2131
13410W        W30257  11.172   5.312   1.453 -0.0674 -0.1777 -0.2030
13411W        W30258   2.577   7.972  10.911  0.1742 -0.0025 -0.0168
13412W        W30259  15.908  14.259   2.548  0.2597 -0.1419 -0.4146
13413W        W30260   5.685   1.623   0.815 -0.0977  0.0404 -0.2272
13414W        W30261  12.970   1.073  12.883 -0.2054 -0.3928 -0.0334
13415W        W30262   3.140  15.894   2.016  0.0768  0.0953  0.0708
13416W        W30263  14.884  10.071  15.235 -0.0467  0.2265  0.1386
13417W        W30264  14.523   7.799  12.625 -0.0476 -0.2946  0.0385
13418W        W30265  10.296   2.744   3.300 -0.0303  0.3308  0.1480
13419W        W30266  13.959   0.404   0.718 -0.1328 -0.0122  0.1462
13420W        W30267  14.462   2.777   2.317  0.1054 -0.0758  0.0395
13421W        W30268  14.587   0.377   5.746  0.0695  0.0383  0.1536
13422W        W30269  17.648   3.798  12.318 -0.1627  0.0428 -0.0314
13423W        W30270   5.916   2.581   3.024 -0.0319 -0.3161  0.2648
13424W        W30271  12.044  12.710  13.457 -0.1505  0.2226 -0.1561
13425W        W30272  17.285   7.435  15.437 -0.0295 -0.4380 -0.1668
13426W        W30273   5.076   6.721   0.034  0.1223 -0.1283 -0.1226
13427W        W30274   4.996   4.200   6.272  0.0880 -0.4181  0.0280
13428W        W30275  14.961  14.679   3.430  0.0583  0.2229 -0.0929
13429W        W30276   8.195   8.398   1.302  0.1074 -0.0795  0.0225
13430W        W30277  10.247  12.553  10.224  0.2292 -0.0582  0.0298
13431W        W30278   8.105  10.827  14.021  0.0318  0.0011 -0.0478
13432W        W30279  10.024   5.649  10.816  0.3888  0.0778  0.1347
13433W        W30280  14.599  14.307   4.347 -0.0657  0.0163  0.0037
13434W        W30281  14.697  15.954  11.110  0.1923  0.1389 -0.3697
13435W        W30282   2.597   0.099   1.730 -0.1535  0.3774  0.2376
13436W        W30283  10.856   6.219  10.718  0.1993 -0.1822  0.3161
13437W        W30284   9.037  13.959   5.547  0.0428 -0.3445 -0.1852
13438W        W30285  14.412  11.307   1.761 -0.0581 -0.0381  0.3842
13439W        W30286  16.440   5.932   4.531  0.1467  0.0303  0.0030
13440W        W30287  12.631  12.876   1.498  0.4298  0.1406  0.0024
13441W        W30288  10.781   5.314   4.589 -0.0393  0.0793  0.3399
13442W        W30289  10.992   1.723  11.850  0.0158  0.1060 -0.4008
13443W        W30290   1.631   3.450   1.726 -0.1155 -0.1440 -0.0223
13444W        W30291  15.188  14.229  13.333 -0.2026 -0.0198  0.0941
13445W        W30292   3.539   6.757   3.504 -0.1825  0.0655  0.2364
13446W        W30293  14.501   0.550   4.038 -0.0340  0.5149  0.3450
13447W        W30294   1.390  17.345  13.393 -0.1170 -0.0665 -0.1461
13448W        W30295   6.567   2.611  11.144  0.0485 -0.1437  0.0694
13449W        W30296  10.160  15.614   2.887  0.0803 -0.0454  0.0179
13450W        W30297   2.779   4.246  12.007  0.0393  0.0471  0.1293
13451W        W30298  11.281   1.900  13.693  0.2393 -0.2978  0.2892
13452W        W30299   3.909   4.843   1.738 -0.1625  0.0109 -0.1940
13453W        W30300   4.899   8.712  15.671  0.2284  0.1444 -0.0074
13454W        W30301  13.415   2.356   3.149 -0.0712 -0.0793 -0.2668
13455W        W30302  15.402   3.468  10.788  0.2129 -0.1121 -0.1870
13456W        W30303  17.852   8.278   4.223 -0.1562  0.1933 -0.0336
13457W        W30304  14.152   4.126  13.947  0.0629 -0.2378  0.3223
13458W        W30305  10.269   6.966  13.902  0.1152 -0.0876  0.1834
13459W        W30306  12.925   5.430  11.011  0.2537 -0.1520  0.0594
13460W        W30307  11.657  14.555  11.272 -0.3110  0.2283 -0.1103
13461W        W30308  16.769   2.800  15.619 -0.4058 -0.2443  0.0919
13462W        W30309  15.673   8.868   5.030  0.1012 -0.2829  0.3874
13463W        W30310   6.171   9.657  12.891 -0.1447 -0.0413  0.2359
13464W        W30311  13.384   9.844   3.247 -0.0505  0.5390  0.1138
13465W        W30312   0.634   8.560   3.711 -0.4470  0.0779  0.5930
13466W        W30313   8.377  13.730  15.182  0.1369  0.1812  0.4314
13467W        W30314  12.850   7.660   1.309 -0.0478 -0.2321  0.1636
13468W        W30315   7.618   6.937   1.395  0.0163  0.1703  0.0478
13469W        W30316   7.204  11.156  12.215  0.2406 -0.3168  0.1573
13470W        W30317   5.248   0.730  14.189 -0.4080 -0.0606  0.0212
13471W        W30318  16.190  14.173  14.083 -0.0473  0.1817  0.0129
13472W        W30319  12.911   9.909  11.546  0.0187  0.1148  0.2231
13473W        W30320   6.347  18.144  14.204 -0.3312 -0.2599  0.3894
13474W        W30321   4.472   4.574  15.024 -0.0317 -0.0005  0.0021
13475W        W30322  15.532   8.152  14.725 -0.0206  0.3011 -0.1018
13476W        W30323   6.694   0.424  14.642 -0.0573  0.0246  0.1972
13477W        W30324  18.502  17.826   4.946 -0.2658  0.0110 -0.0581
13478W        W30325  15.026   9.861  14.268  0.0271 -0.0274 -0.0446
13479W        W30326  14.132   1.604  11.309  0.3222  0.0374  0.1427
13480W        W30327  13.646   5.311  15.394  0.0070  0.0171  0.0173
13481W        W30328  14.585  15.668  11.564  0.1636 -0.2886 -0.0133
13482W        W30329   5.098  13.367  15.613 -0.0301 -0.0365  0.3425
13483W        W30330   6.275   3.871   0.682  0.0433  0.0143  0.4279
13484W        W30331   8.194  15.496   3.729  0.0720 -0.1762 -0.0232
13485W        W30332  18.077  10.255  13.884 -0.1167 -0.1654 -0.0859
13486W        W30333   3.253   2.389   0.593  0.1707  0.1880  0.0403
13487W        W30334   8.594   3.962  12.919 -0.1717  0.2130  0.2391
13488W        W30335   6.514  13.477   0.993  0.1924  0.1085  0.1320
13489W        W30336   6.322  13.218   5.343 -0.2313 -0.2667 -0.0332
13490W        W30337  15.022   4.378   3.149  0.2501 -0.2951  0.0872
13491W        W30338  14.866  10.851  12.111 -0.0645 -0.0157  0.0985
13492W        W30339   5.595  11.966  13.711  0.1277 -0.0433 -0.0011
13493W        W30340  18.202   8.997   2.244  0.2589  0.0746 -0.0932
13494W        W30341   4.711   9.727  13.188 -0.2288  0.2753 -0.0165
13495W        W30342  14.100   6.444  12.941  0.1944 -0.0937  0.1505
13496W        W30343  12.148   9.349   0.740  0.1423  0.2115 -0.0676
13497W        W30344   3.032  15.330  11.508  0.2648 -0.3820 -0.1071
13498W        W30345  10.802   0.173   3.689  0.0657 -0.2027  0.1447
13499W        W30346   9.098   5.024  12.871  0.2120  0.2749 -0.4627
13500W        W30347   9.335   2.733  12.979 -0.0627  0.1471 -0.0055
13501W        W30348  18.125  12.443  14.872 -0.0040 -0.0532  0.2912
13502W        W30349  17.251   4.063  14.240  0.2519 -0.0297 -0.0556
13503W        W30350  13.657   7.575   4.692 -0.2593 -0.3851 -0.1435
13504W        W30351  11.460  10.111   3.267 -0.0716  0.0318 -0.0222
13505W        W30352   9.949   6.694   3.807 -0.0513 -0.2371 -0.4481
13506W        W30353   0.174   9.040  15.015  0.1148 -0.1645 -0.1765
13507W        W30354   1.061   6.947  13.270  0.0736  0.0197 -0.0783
13508W        W30355  18.681  10.876  13.351  0.0264  0.0347 -0.1118
13509W        W30356  10.809   9.425  13.496  0.0426 -0.0878  0.0478
13510W        W30357  17.048  11.684   1.706 -0.5090 -0.3904  0.1702
13511W        W30358  15.731   2.374  14.134  0.3489 -0.5668 -0.1622
13512W        W30359  15.508  14.604   5.635 -0.0679  0.0969  0.0549
13513W        W30360  13.303   5.926  13.197 -0.1557 -0.0760 -0.0155
13514W        W30361   4.525  16.935   5.516 -0.0877  0.0897 -0.4711
13515W        W30362  14.293  16.691   3.296  0.0023 -0.0829  0.2379
13516W        W30363   1.751  10.391  13.114  0.0950  0.3471 -0.0513
13517W        W30364  17.680  15.365   1.570 -0.1204 -0.0140  0.0208
13518W        W30365  17.532   4.849   2.954  0.0176 -0.1015  0.0550
13519W        W30366   3.316   5.814  10.705  0.3540 -0.0504 -0.2602
13520W        W30367   4.497   3.865  10.758 -0.1054 -0.2387  0.5317
13521W        W30368   3.409  18.165  15.239  0.1748 -0.1787  0.0088
13522W        W30369   6.086   6.383   2.270 -0.0897 -0.1247 -0.4821
13523W        W30370  11.085  10.969   1.479  0.1659  0.2683 -0.2088
13524W        W30371   7.069  11.391  13.097  0.2439 -0.3908 -0.1670
13525W        W30372   2.643   5.674  15.307  0.0190  0.0720 -0.0508
13526W        W30373   9.603  10.356   3.730 -0.1554  0.0787 -0.1422
13527W        W30374  11.452   3.259  10.834  0.0669  0.5313  0.1930
13528W        W30375   5.392   8.726   4.770 -0.1559  0.0715  0.0237
13529W        W30376   4.691  13.556   0.752 -0.1643  0.1618 -0.1548
13530W        W30377  15.185   1.203  13.941  0.0832 -0.1351 -0.1058
13531W        W30378  13.800  15.602  14.102 -0.2065  0.0836  0.0175
13532W        W30379   3.285   0.272  14.469 -0.0496 -0.2850 -0.2082
13533W        W30380   5.995  11.886  12.758  0.1350  0.0481 -0.4658
13534W        W30381   9.104  10.464   1.460 -0.1007  0.2284 -0.0199
13535W        W30382   3.320   8.959  15.352 -0.1049 -0.2603  0.0702
13536W        W30383  18.745   3.382  15.712 -0.0431  0.0235 -0.1166
13537W        W30384   4.718  12.123  11.599 -0.0175  0.0218  0.0017
13538W        W30385  10.919  11.448  15.553  0.2372 -0.0644 -0.0599
13539W        W30386  17.521  13.843   2.458 -0.0591 -0.0686 -0.1980
13540W        W30387  11.168  12.306   2.606  0.1689 -0.0668  0.5080
13541W        W30388   9.765  18.594   4.044  0.0701 -0.4070 -0.2458
13542W        W30389  16.606  15.932   1.030 -0.0926  0.1873 -0.0026
13543W        W30390   0.198  12.422   3.772  0.0224  0.0375 -0.4319
13544W        W30391   6.910   8.503   4.690  0.1507 -0.0344  0.4395
13545W        W30392  12.084   6.167   3.469  0.1426  0.1142 -0.2917
13546W        W30393   9.559  16.049   0.749 -0.1703 -0.0369  0.1801
13547W        W30394   6.087   8.735   4.373 -0.0969  0.2330  0.1644
13548W        W30395   9.250   2.422  13.528 -0.0546  0.2311  0.0812
13549W        W30396  15.478   5.185  14.878 -0.0825 -0.3600  0.0281
13550W        W30397  14.810  18.610   4.307 -0.2381 -0.3293 -0.3020
13551W        W30398  17.723   9.000  13.169  0.1823 -0.1136  0.1459
13552W        W30399   2.451   9.357   1.893  0.0364  0.4234 -0.0283
13553W        W30400  15.747  10.103  12.285  0.2323 -0.2278 -0.1339
13554W        W30401  17.839   8.983   0.510 -0.2529 -0.0682 -0.1068
13555W        W30402  12.911  18.059   2.145 -0.1134 -0.1235 -0.0025
13556W        W30403   7.693  16.823  15.593  0.0458  0.0899 -0.0502
13557W        W30404   4.113   8.108  11.187 -0.0860  0.1792  0.2542
13558W        W30405   9.630   7.680  13.793 -0.3278 -0.1185 -0.1673
13559W        W30406  11.609   6.464  11.290  0.3502  0.2022 -0.0087
13560W        W30407   0.195  18.046  12.771  0.3078  0.0080  0.1850
13561W        W30408   6.039   3.712  14.488  0.1678 -0.4125  0.2291
13562W        W30409  13.555  13.219   3.202  0.0786  0.1711 -0.1494
13563W        W30410   0.189  11.552   4.508  0.0321 -0.1597 -0.1922
13564W        W30411   9.590   1.343   0.989  0.2013  0.1671  0.2648
13565W        W30412   1.972   2.526   2.448 -0.2608 -0.2513 -0.0037
13566W        W30413  15.393   1.251   2.925 -0.3615  0.0473  0.0636
13567W        W30414  18.506   2.027   3.224 -0.0505 -0.2574  0.0006
13568W        W30415  15.141  18.355  15.590 -0.0319 -0.0370 -0.0997
13569W        W30416  14.981  13.235  14.099  0.2445  0.1142  0.2330
13570W        W30417  12.493  14.603  14.695 -0.2788 -0.2944  0.1993
13571W        W30418   7.409  17.204  13.463 -0.2395 -0.2520  0.2378
13572W        W30419   9.683   7.629   4.318  0.0195  0.3676 -0.1807
13573W        W30420   5.919  13.794   1.390 -0.0722 -0.0753 -0.2046
13574W        W30421   3.400   2.130  14.883  0.0142 -0.0630 -0.0346
13575W        W30422   9.931  13.121  11.365  0.1250 -0.0362  0.3162
13576W        W30423  16.511   1.591   0.757  0.0127 -0.0810  0.1087
13577W        W30424   2.554  11.665  13.051  0.0225  0.2105  0.1687
13578W        W30425  17.271   1.896   4.526  0.3245  0.0406  0.0792
13579W        W30426   6.721  14.329   2.172 -0.3698 -0.0769 -0.2985
13580W        W30427  12.278  17.078   4.596  0.2747 -0.0150  0.3358
13581W        W30428   4.546  11.486  14.238 -0.3204  0.1680 -0.4734
13582W        W30429   7.406  10.555   5.040 -0.0706  0.0826 -0.1405
13583W        W30430  16.776   3.820  11.422 -0.0720 -0.0920 -0.3975
13584W        W30431   1.982  10.369   3.540 -0.3087  0.4553  0.1285
13585W        W30432   8.835   1.467  15.269  0.3603  0.0621 -0.0872
13586W        W30433  13.344   3.822   0.355  0.1813  0.0898 -0.0672
13587W        W30434  14.653  12.458   3.732  0.2518 -0.1104 -0.0081
13588W        W30435   1.658  15.933   1.887 -0.0857  0.0585 -0.0394
13589W        W30436   5.103   7.575  13.038 -0.1844  0.3352  0.1968
13590W        W30437   5.231   3.423  11.346 -0.2563  0.1429  0.0997
13591W        W30438  12.995  13.890  15.165  0.1516 -0.0252 -0.2247
13592W        W30439   5.029   9.250   0.346  0.3555  0.3430  0.0623
13593W        W30440  10.111  15.539  15.007 -0.0116  0.3076  0.0009
13594W        W30441   2.215  18.044  15.690 -0.0311  0.0770  0.2561
13595W        W30442  15.706  11.450  14.049  0.1766 -0.0136 -0.1602
13596W        W30443  13.025   3.914   4.067 -0.3019 -0.2017 -0.0232
13597W        W30444   3.014  15.358   4.196  0.0092 -0.0391 -0.0662
13598W        W30445  12.685   6.261   1.864  0.1821 -0.2659  0.5368
13599W        W30446  17.747   8.312   6.022 -0.2687  0.0590 -0.1037
13600W        W30447  17.200   7.498  14.555 -0.1961  0.1232  0.0230
13601W        W30448   1.208   8.585   1.641  0.0164 -0.2757 -0.1348
13602W        W30449   1.475  16.162  15.763  0.0657 -0.5518 -0.3669
13603W        W30450  13.948  14.632   0.951 -0.2208 -0.0915 -0.0770
13604W        W30451  13.585  11.998  13.586 -0.0318 -0.1130  0.2413
13605W        W30452  18.722   3.052  12.038 -0.0381 -0.0782 -0.3199
13606W        W30453  12.805   1.473  12.619  0.1029  0.0902 -0.3085
13607W        W30454   5.370   0.236  14.127  0.2030 -0.3253 -0.0498
13608W        W30455  13.989   5.813   2.576  0.1263 -0.0791 -0.1595
13609W        W30456   6.255   4.102  13.430 -0.2195 -0.0474 -0.0406
13610W        W30457  10.000  16.060  12.237  0.0618 -0.0375  0.0822
13611W        W30458  15.844  10.010   1.898  0.0162 -0.1103 -0.1133
13612W        W30459   8.454  10.658   4.505  0.3367 -0.0335  0.0395
13613W        W30460   4.002  16.008  13.233 -0.3020  0.1033  0.0819
13614W        W30461   3.032  15.047  15.654  0.0625 -0.1428  0.1311
13615W        W30462  12.030   9.871   2.521  0.0634 -0.1358  0.0202
13616W        W30463  17.406  17.356  11.175 -0.0079  0.0194  0.0986
13617W        W30464   8.887   2.670   2.123  0.1189  0.2067  0.1511
13618W        W30465  15.229  12.634   4.665  0.0099 -0.3526  0.3261
13619W        W30466  17.256   2.759  14.828 -0.1562  0.0257 -0.1397
13620W        W30467   8.316   6.919   3.352 -0.2439 -0.3238 -0.1900
13621W        W30468   5.518  13.211   1.957 -0.0886  0.0478  0.2610
13622W        W30469  18.247  11.662  14.558 -0.1507 -0.0494 -0.2293
13623W        W30470   4.202  14.526   4.681 -0.1521 -0.3642 -0.0518
13624W        W30471  16.379   1.224   4.896  0.2352 -0.0116  0.0812
13625W        W30472   9.609  13.605   3.643 -0.2281  0.0458  0.0062
13626W        W30473  10.506  11.617  12.285 -0.0293 -0.2859 -0.2620
13627W        W30474   8.208   9.772  11.457  0.0218 -0.0478  0.1530
13628W        W30475   7.471  13.416  11.182 -0.1427 -0.1154  0.2454
13629W        W30476  18.276  16.063   6.200 -0.1473 -0.1409 -0.1470
13630W        W30477   3.632  15.969  15.640 -0.0360 -0.3290 -0.0203
13631W        W30478   4.339  16.688  15.196 -0.1528  0.0249  0.0937
13632W        W30479  15.629  18.327   3.577 -0.0460 -0.1571 -0.1908
13633W        W30480  11.327   3.284   4.662 -0.0659 -0.2973 -0.2063
13634W        W30481   5.714  14.703  13.564 -0.0432 -0.0481 -0.0009
13635W        W30482   9.138  15.765   5.193 -0.1160 -0.1112 -0.3012
13636W        W30483   6.963   4.334  13.270  0.3183 -0.0147 -0.0846
13637W        W30484   6.850  15.858  14.983 -0.1025 -0.0374  0.0683
13638W        W30485  16.651  12.372   0.929  0.4742  0.3260  0.1560
13639W        W30486   2.267   6.878   4.808 -0.0201 -0.0919  0.1016
13640W        W30487   4.402   3.921   5.504  0.3123 -0.2174 -0.0303
13641W        W30488  12.513  13.118  12.328 -0.5252 -0.0800  0.0482
13642W        W30489   6.529  16.536  14.093  0.3284  0.1320 -0.0575
13643W        W30490   6.223   7.328   3.998 -0.2153 -0.0453 -0.1434
13644W        W30491  13.970   8.648   1.005  0.1444  0.0404  0.2116
13645W        W30492   2.315   1.946  14.453 -0.1500 -0.1211  0.1589
13646W        W30493  16.255   9.872  14.109 -0.3882  0.0273  0.4062
13647W        W30494  14.292   5.946  13.630  0.0068 -0.1585  0.2367
13648W        W30495   1.718   9.782   2.872  0.0716 -0.1032  0.3267
13649W        W30496   5.502  17.385  12.111 -0.1422 -0.1269 -0.0606
13650W        W30497  15.001  14.210   1.608 -0.0235  0.2378 -0.0166
13651W        W30498  13.105   0.563   4.408  0.1761  0.0976  0.1501
13652W        W30499  15.529  14.831   5.177 -0.0295 -0.3796  0.1507
13653W        W30500   5.535  11.581   2.974  0.3818 -0.0868 -0.1413
13654W        W30501  16.044  11.005   4.388 -0.0612 -0.1020 -0.0049
13655W        W30502   8.411  14.889   3.151  0.3509  0.0294  0.2844
13656W        W30503   3.523  13.359  12.929 -0.0926  0.2447  0.1826
13657W        W30504   8.431  18.361   0.581 -0.0741 -0.0976 -0.1936
13658W        W30505   0.472   1.721   4.633 -0.0403 -0.3110 -0.0417
13659W        W30506  15.130   3.848  13.944 -0.3606 -0.1043 -0.0339
13660W        W30507   4.884   3.907  14.980 -0.1008  0.0375 -0.3738
13661W        W30508  18.398   9.845   1.975  0.1570 -0.0582 -0.4575
13662W        W30509  17.789   6.694  13.972 -0.0477  0.0632 -0.1825
13663W        W30510   1.787  18.734   1.484  0.1823  0.0801  0.1053
13664W        W30511   0.949   6.952  11.972  0.0019  0.0380  0.1952
13665W        W30512   4.938  18.612   1.933 -0.1724 -0.1463 -0.0405
13666W        W30513   5.930  10.122   0.180 -0.0129 -0.1614  0.1185
13667W        W30514   0.908   6.235   4.372  0.0051  0.1799 -0.0444
13668W        W30515   3.859   4.519   3.103  0.3414 -0.2902 -0.0825
13669W        W30516  14.003  11.763  13.213  0.0331  0.1262 -0.2346
13670W        W30517  16.719   5.938   5.507 -0.1953  0.0615 -0.1371
13671W        W30518   2.069   6.794   3.278 -0.3141  0.1835  0.0414
13672W        W30519  12.367  14.685   0.914  0.2301 -0.1116 -0.0205
13673W        W30520   4.674  17.703  15.359  0.0765  0.0648  0.1122
13674W        W30521   1.729   3.957   0.593 -0.3480  0.1725  0.0700
13675W        W30522   4.431   8.926  15.501 -0.0100  0.1236 -0.2023
13676W        W30523  17.662  13.209   5.356  0.1119 -0.0454  0.0247
13677W        W30524  12.823   3.572   4.472 -0.3104  0.0896 -0.2123
13678W        W30525   3.295   2.425  10.925  0.0282 -0.2948 -0.0142
13679W        W30526   4.181  15.945   3.827 -0.0885  0.0843  0.2081
13680W        W30527  11.685  17.846  15.223  0.1701  0.0111 -0.3515
13681W        W30528   3.082  13.496   2.918  0.1339  0.1820 -0.1627
13682W        W30529   7.500   2.969   3.798  0.2036  0.3013 -0.0526
13683W        W30530   8.076  11.866   0.270  0.2716 -0.3312  0.2168
13684W        W30531   6.107   6.166   3.586 -0.0459  0.1206  0.2335
13685W        W30532  13.242   6.129  12.703 -0.1958  0.1116  0.1662
13686W        W30533  15.118   2.580   4.065  0.1291 -0.2085 -0.0624
13687W        W30534   0.585  16.650  10.980  0.0430 -0.1152  0.0131
13688W        W30535   7.802   9.034  11.324  0.0643 -0.0410  0.1522
13689W        W30536   7.648  12.007   3.711  0.1725  0.1257 -0.3145
13690W        W30537  14.174  15.355  13.143 -0.0040  0.0220 -0.0480
13691W        W30538  15.024  10.446   2.752 -0.4015  0.1671  0.2688
13692W        W30539   3.521   0.625   0.652  0.2096  0.2070  0.0191
13693W        W30540   2.464   0.769   1.269 -0.0988  0.0991 -0.0211
13694W        W30541   9.136   3.400  11.104 -0.0522 -0.1086  0.0518
13695W        W30542   8.062  14.028  14.236 -0.1899 -0.1960 -0.0840
13696W        W30543   3.961  11.563  11.918 -0.2848  0.5684 -0.0457
13697W        W30544  11.228  12.819  13.644  0.0162 -0.2180 -0.1397
13698W        W30545  11.258   0.504  14.834 -0.2316  0.0270  0.2513
13699W        W30546   7.039  15.092  15.622  0.3190 -0.1258  0.0183
13700W        W30547   3.332  13.277  10.766 -0.3114  0.0565 -0.0479
13701W        W30548  14.541  13.579  15.104  0.1066 -0.0266  0.0071
13702W        W30549   8.753   0.298  12.970 -0.3070  0.0792  0.1229
13703W        W30550  15.834   2.833   2.619 -0.1195  0.0672 -0.2005
13704W        W30551   5.882  14.920  14.494  0.1587 -0.0732  0.0219
13705W        W30552   8.370   0.533   0.513  0.2058  0.2288  0.1386
13706W        W30553   1.662   2.496   2.845 -0.4090  0.2223 -0.4352
13707W        W30554  16.147  10.244   5.259  0.1168  0.0138 -0.3792
13708W        W30555   7.949   6.315   2.283 -0.0329  0.4234 -0.2041
13709W        W30556   8.023   7.095   0.527 -0.1731 -0.2140 -0.1027
13710W        W30557   1.609   4.061   1.837  0.4589  0.2476  0.2066
13711W        W30558   7.208  14.601   4.630  0.0688 -0.0340 -0.2206
13712W        W30559   3.454  11.580  14.940 -0.1512 -0.0602  0.0424
13713W        W30560  14.156   6.717   4.795  0.2998 -0.2785 -0.0504
13714W        W30561   1.783  12.237   3.686  0.1225  0.0379 -0.0117
13715W        W30562   5.740   8.976  13.899 -0.2787  0.1182  0.0279
13716W        W30563  14.839  11.581  14.707 -0.2042  0.0594 -0.0266
13717W        W30564   5.769   1.351  12.254 -0.0307 -0.1487 -0.3100
13718W        W30565  16.264   1.947  15.059 -0.2475  0.1292  0.2524
13719W        W30566  12.913   3.336  11.914  0.1523  0.5453 -0.1872
13720W        W30567  12.487  15.963   2.314 -0.0147 -0.2845 -0.1213
13721W        W30568  11.781  17.377  10.834  0.1607  0.3132 -0.3956
13722W        W30569  11.189  15.205  13.905 -0.1325  0.1350  0.0458
13723W        W30570   0.574   8.010   4.702  0.0634  0.0315  0.0407
13724W        W30571   6.060  13.857  12.212 -0.0541  0.0181 -0.2436
13725W        W30572   5.336  13.370  12.649  0.0696  0.1690 -0.0616
13726W        W30573  11.377  12.252   0.151 -0.0549  0.0583 -0.2018
13727W        W30574  15.803  11.079   3.899 -0.1258  0.3472 -0.2500
13728W        W30575  12.821  12.668  14.565 -0.0329 -0.1343 -0.1633
13729W        W30576  10.242   6.175   1.576  0.2131 -0.2755  0.1755
13730W        W30577  12.092   3.833  14.768 -0.0158 -0.0049 -0.1093
13731W        W30578   6.749  13.290   4.458  0.1817 -0.0216 -0.0609
13732W        W30579  13.684  16.703  12.957 -0.1937 -0.1298 -0.0286
13733W        W30580   6.531  13.096  11.146  0.0333  0.3164  0.0915
13734W        W30581   7.995   7.559  15.472  0.0384 -0.0728  0.0588
13735W        W30582  10.404   1.142  11.663 -0.0895  0.1589 -0.0284
13736W        W30583   7.573   2.546   2.455 -0.1320  0.0285  0.0696
13737W        W30584  18.818  18.285   2.069  0.0735 -0.2395  0.0815
13738W        W30585   6.056   3.682  15.594  0.2237  0.2209  0.1097
13739W        W30586  17.891   1.685   3.792  0.0754 -0.0022 -0.1595
13740W        W30587  12.276   8.168   4.333  0.0077  0.2082  0.1228
13741W        W30588   1.728   0.875   2.862  0.2376  0.3469 -0.0093
13742W        W30589  16.727   0.676   1.898 -0.1578 -0.2664  0.1016
13743W        W30590  10.462   3.008   1.099  0.1434  0.2489  0.0844
13744W        W30591   4.019   4.542   4.378  0.2832 -0.1649 -0.1497
13745W        W30592   5.928  12.862   0.210 -0.0001 -0.0721  0.1145
13746W        W30593   5.874  15.744  10.431 -0.1171 -0.1359  0.2387
13747W        W30594  10.981  10.157   5.643  0.0730  0.0428  0.2858
13748W        W30595   6.552  18.261  13.762 -0.0882 -0.0852 -0.0406
13749W        W30596   4.008  17.599  12.924  0.1175  0.0039 -0.0057
13750W        W30597   8.273  12.269   4.384 -0.0600  0.0246  0.0543
13751W        W30598   7.694   8.491  11.587  0.0575 -0.0493 -0.1025
13752W        W30599  11.431   3.562  15.631  0.3843 -0.0971  0.1842
13753W        W30600  10.607  11.613   3.080 -0.0481 -0.0439  0.4277
13754W        W30601  17.561  18.816  14.115 -0.1566 -0.1349 -0.0664
13755W        W30602   5.690  15.509   2.973  0.2006 -0.1685  0.3350
13756W        W30603  17.482   2.621   4.977  0.2384 -0.0330  0.0723
13757W        W30604  13.816  18.341  11.788  0.1396  0.1596  0.2569
13758W        W30605  10.848  10.871  11.744 -0.2790 -0.2341 -0.0842
13759W        W30606  14.890  11.682  12.701  0.1797  0.0935  0.0746
13760W        W30607   4.696   7.766   5.102  0.1011 -0.0965 -0.2613
13761W        W30608  15.776  17.455  11.831  0.0270 -0.1842 -0.2185
13762W        W30609  13.381  13.823  12.434 -0.0649  0.0189  0.0233
13763W        W30610   0.231   8.414  11.517  0.2385 -0.2853 -0.2443
13764W        W30611   6.421   9.156   5.165 -0.0929 -0.1384  0.0323
13765W        W30612   9.826  14.281   0.954 -0.2607  0.2226 -0.2815
13766W        W30613   6.194  11.780   1.325 -0.0016  0.0483 -0.0602
13767W        W30614  15.120  15.040   1.701 -0.1583  0.1539  0.1035
13768W        W30615  11.229  18.723   0.522  0.1525 -0.2698 -0.0013
13769W        W30616  11.744   1.962  13.294 -0.1168  0.0842  0.1153
13770W        W30617   3.357  11.947  10.656 -0.0329  0.0489  0.0037
13771W        W30618  12.605  11.139   0.149  0.0965 -0.1677 -0.1101
13772W        W30619  10.842   5.486   0.575  0.4125 -0.0897 -0.0658
13773W        W30620   9.846   2.700   2.878  0.0010  0.0353  0.2003
13774W        W30621  10.935   4.527  10.909  0.0178 -0.0732 -0.2139
13775W        W30622  18.163  16.686  12.686 -0.0517 -0.0207  0.0695
13776W        W30623  17.038  12.964  13.585 -0.3051 -0.1327  0.0694
13777W        W30624   4.977   4.317  11.303 -0.1331  0.1763  0.0735
13778W        W30625   7.924  18.082  10.359 -0.1689  0.4570  0.1738
13779W        W30626   7.769   7.048  11.565 -0.4088  0.0199  0.1153
13780W        W30627  10.146   1.211   1.145 -0.1286 -0.0924 -0.4155
13781W        W30628  11.846   6.838   2.854 -0.1753  0.1424  0.0487
13782W        W30629  15.925   8.744  15.235 -0.2409 -0.0469  0.2840
13783W        W30630  13.294   3.159  14.891 -0.4023  0.0932 -0.1439
13784W        W30631   2.612  18.500  10.336  0.3062 -0.1504  0.0988
13785W        W30632  18.675  16.505   3.496  0.2287 -0.2773  0.2808
13786W        W30633  11.199  10.841  11.029 -0.2045  0.2663  0.2274
13787W        W30634   5.398   0.654  11.017  0.2201 -0.2806  0.1620
13788W        W30635  17.049  11.225   5.119  0.0075 -0.1116 -0.0128
13789W        W30636   1.014   3.593  11.950 -0.3368  0.3459  0.2231
13790W        W30637   4.791   8.842  11.654 -0.1581 -0.1893  0.1913
13791W        W30638  13.387   7.953  13.131 -0.0675  0.0880  0.1341
13792W        W30639  13.444   1.300  11.823 -0.2352 -0.1445 -0.0623
13793W        W30640  14.361   5.374  14.686 -0.0877 -0.2927 -0.0324
13794W        W30641   6.200  15.697  12.707 -0.1625 -0.0500  0.0767
13795W        W30642   3.548   5.882   2.043  0.3163 -0.0707 -0.0221
13796W        W30643  14.844   2.272   2.914 -0.0806 -0.2136  0.2276
13797W        W30644  12.155  11.102  10.942  0.0328 -0.1570  0.0427
13798W        W30645   2.246  17.386  15.192 -0.3178  0.3268 -0.4003
13799W        W30646   9.724   3.417  13.390 -0.3493  0.1245 -0.0342
13800W        W30647  10.131   4.805  11.423  0.0429  0.0196  0.2987
13801W        W30648   1.592   7.872   5.763 -0.2729  0.0603  0.3843
13802W        W30649  18.658  17.718   4.217  0.1025 -0.0107 -0.3014
13803W        W30650   6.439   0.482  13.609  0.0510  0.1494 -0.1294
13804W        W30651   4.009   8.344   4.002 -0.4734  0.1431 -0.1722
13805W        W30652   0.454   5.090  11.815  0.0436  0.0406  0.0382
13806W        W30653  11.119  16.282   2.385 -0.0459 -0.3791 -0.3701
13807W        W30654  16.476   0.990  14.774  0.1316  0.0841  0.0328
13808W        W30655  11.561  16.106  14.578 -0.0292 -0.2484  0.0690
13809W        W30656  10.339   9.817  14.680  0.0786  0.1598  0.1257
13810W        W30657   0.233   2.659   3.596  0.2359 -0.3916  0.1495
13811W        W30658  10.846   5.478   9.884  0.3278  0.1689  0.3612
13812W        W30659   1.397  17.546  14.539 -0.2224  0.1363 -0.2141
13813W        W30660  12.505   8.185  12.040  0.0718 -0.1816  0.1523
13814W        W30661  17.342   1.499  14.319  0.1795 -0.0026 -0.1095
13815W        W30662  15.663   3.473  15.662  0.0767  0.0650 -0.0151
13816W        W30663   8.291   3.525  11.722  0.5023  0.4947 -0.1044
13817W        W30664  15.479   9.572   3.273 -0.1598  0.0117  0.3278
13818W        W30665   0.640  14.661  15.008  0.0437  0.1251  0.2254
13819W        W30666  18.451   0.534   2.430  0.1962 -0.3204  0.3579
13820W        W30667  16.277  18.115   5.132 -0.0677  0.0842  0.1531
13821W        W30668  15.359  15.915  15.463 -0.1454  0.2716 -0.2989
13822W        W30669   7.125   4.536   1.879 -0.0384  0.0614 -0.0822
13823W        W30670  18.851   6.767   4.232 -0.0519  0.0138 -0.2378
13824W        W30671   8.249   8.287  13.216  0.2740 -0.0158 -0.0390
13825W        W30672   2.257   5.348   4.292 -0.2972  0.1116 -0.1015
13826W        W30673  13.442  14.637   0.483  0.1225 -0.4356  0.2572
13827W        W30674   0.123  12.000   4.089  0.1731  0.3145  0.1684
13828W        W30675   9.695  11.419   3.875 -0.2293 -0.2637 -0.1677
13829W        W30676  13.402  14.154  14.913 -0.4037  0.2262 -0.0711
13830W        W30677  15.803  17.141  14.954  0.0812  0.0483  0.0361
13831W        W30678   1.736  12.859  12.555 -0.0753  0.0459 -0.3155
13832W        W30679   0.653  14.644  11.894  0.3517 -0.0096  0.1318
13833W        W30680   9.336   1.394   1.434 -0.4274 -0.0507  0.2924
13834W        W30681  15.061   3.916   3.770 -0.1069 -0.0456  0.2092
13835W        W30682   8.027   7.414  12.861 -0.1014 -0.2786 -0.0840
13836W        W30683   4.701   8.445   4.845 -0.2649 -0.1071  0.0273
13837W        W30684   3.563   3.955  10.578  0.0187 -0.1791 -0.1440
13838W        W30685  17.306   9.746   3.174  0.2275 -0.4714 -0.2515
13839W        W30686   3.470   3.048   4.296 -0.2256 -0.4200  0.0518
13840W        W30687   7.050   0.120   0.083  0.1608 -0.2346  0.2191
13841W        W30688   0.775   2.987   0.148  0.2914 -0.5020  0.1061
13842W        W30689   7.916   0.183   0.377 -0.0598 -0.2074  0.0878
13843W        W30690   8.057  16.104   0.668  0.3167 -0.1861  0.0034
13844W        W30691  14.801   3.361  15.402 -0.3656 -0.3794 -0.1840
13845W        W30692  14.097   5.140   1.063  0.0420 -0.2293  0.0749
13846W        W30693  10.904  15.470  13.337 -0.5386 -0.1896 -0.1789
13847W        W30694   0.502   7.064   3.278  0.1360  0.1468  0.1294
13848W        W30695   4.498  14.778  13.831  0.0991  0.1136 -0.0853
13849W        W30696  17.310  17.167   5.760 -0.4697  0.1049  0.0232
13850W        W30697  15.963   7.509  13.307 -0.1327  0.0668 -0.0368
13851W        W30698   0.012  10.460   0.177  0.2584  0.1201  0.1466
13852W        W30699  11.056   7.589   5.718  0.0123 -0.3243  0.1650
13853W        W30700   9.874  13.536   3.176 -0.2319  0.1187  0.3374
13854W        W30701   3.311   3.413   4.610 -0.1479  0.0651 -0.1046
13855W        W30702   3.765   9.292   3.779 -0.1098 -0.0000 -0.0425
13856W        W30703   4.886  11.553   1.005 -0.1636  0.2657  0.1825
13857W        W30704  13.055   8.014   4.816 -0.1101  0.4416  0.0312
13858W        W30705  16.965  13.892   5.270 -0.2975  0.2688 -0.2267
13859W        W30706   9.347  18.338  11.287  0.3793  0.1650 -0.1953
13860W        W30707  14.456  18.420   3.083  0.1976 -0.2041 -0.4471
13861W        W30708   3.205  13.003   2.129  0.2170  0.1213  0.1286
13862W        W30709   5.106  18.183  10.845  0.0977  0.0777  0.1966
13863W        W30710   5.788   3.271  15.536  0.0811  0.1571 -0.0277
13864W        W30711   9.945  10.405  12.968 -0.0415 -0.2078 -0.1731
13865W        W30712   9.850   4.245  13.915  0.0824  0.2293 -0.0548
13866W        W30713   5.420   0.610   3.109  0.0697 -0.0569  0.0071
13867W        W30714  16.923  12.939   5.169 -0.1496 -0.0422 -0.0289
13868W        W30715   7.203   5.529  14.657 -0.0357  0.2077  0.0545
13869W        W30716   9.086  12.476  15.436 -0.1356 -0.0226  0.0939
13870W        W30717  12.144   3.341   0.547 -0.2667  0.2901  0.0025
13871W        W30718  17.603   1.876  11.917  0.0647 -0.2121 -0.0057
13872W        W30719  16.502   7.727  13.875  0.2810 -0.2269 -0.0821
13873W        W30720  13.377   1.969   4.172  0.0798  0.0048  0.0356
13874W        W30721   0.933   5.916  15.316 -0.2309 -0.0689  0.1269
13875W        W30722   3.287   7.360  12.585 -0.1529 -0.2536 -0.0400
13876W        W30723  16.218  11.438   5.850  0.2013 -0.0890  0.1208
13877W        W30724   0.242   9.006   0.226 -0.0563  0.0280 -0.0859
13878W        W30725   5.233   7.542   1.909 -0.0597 -0.2948 -0.1811
13879W        W30726  11.022   4.527  12.509  0.0883 -0.1744  0.2049
13880W        W30727  18.173   9.149  12.265 -0.2508  0.0994  0.3244
13881W        W30728  14.325   1.875   0.584  0.2371  0.3617  0.3841
13882W        W30729   2.762  17.826   4.063 -0.2329  0.1970 -0.0612
13883W        W30730  15.432  11.480  15.159  0.0275 -0.2040  0.0202
13884W        W30731   1.066   3.834   0.601  0.4888 -0.0652  0.0988
13885W        W30732   9.537  13.076   2.857  0.2969  0.0363  0.1043
13886W        W30733  10.267  18.460  13.009  0.0908 -0.0741 -0.1001
13887W        W30734   9.145  15.321   3.494 -0.0256  0.0909  0.1281
13888W        W30735   6.625   4.540   4.992  0.1912  0.1030 -0.0634
13889W        W30736  10.170  15.711  15.661 -0.0463 -0.0854  0.0285
13890W        W30737  16.588  10.548   2.168  0.3589 -0.0863 -0.0962
13891W        W30738   1.935  17.616   1.930  0.2621 -0.1057 -0.0498
13892W        W30739  13.142   1.388  15.263  0.0264  0.0891 -0.1678
13893W        W30740   1.396  11.763  13.363  0.1353 -0.0514  0.0175
13894W        W30741  16.639   1.442   3.021  0.0738  0.3181 -0.0891
13895W        W30742  13.204  13.789  12.936 -0.0716 -0.2728 -0.0294
13896W        W30743   1.789   1.135  11.425 -0.1690 -0.2353  0.2577
13897W        W30744   2.153  14.696   0.522  0.1824 -0.2844 -0.1421
13898W        W30745   7.614  13.780   2.392 -0.0452  0.0016 -0.3796
13899W        W30746   0.472  12.608  11.655  0.1080 -0.2340 -0.1104
13900W        W30747  12.383   1.025  15.399  0.0897 -0.0258  0.2103
13901W        W30748   3.815  10.112   1.584 -0.0635 -0.1679 -0.1780
13902W        W30749   0.071  15.038  12.561 -0.0569  0.4333 -0.4419
13903W        W30750  18.341   0.168  12.093 -0.1357 -0.0094  0.1577
13904W        W30751  12.726   9.513  10.612 -0.0054 -0.0302  0.1089
13905W        W30752  11.305   0.968  11.501  0.0817  0.1909 -0.0121
13906W        W30753   2.638   4.343   5.535  0.1422 -0.0587 -0.0912
13907W        W30754   8.990   2.286  11.201 -0.3854 -0.0430  0.2012
13908W        W30755   8.491   0.991  11.670  0.0025  0.1470  0.1009
13909W        W30756   5.829  16.996  10.471  0.0223  0.2120  0.0844
13910W        W30757  10.797   2.658   4.274  0.2346  0.0226  0.1654
13911W        W30758  13.650   5.038   4.846  0.0874  0.1682 -0.1439
13912W        W30759  11.977  12.202   4.482 -0.0784  0.0620 -0.0565
13913W        W30760   3.817   0.089   3.986  0.2014  0.1461 -0.2319
13914W        W30761  18.764   7.068   5.585 -0.3859 -0.0730 -0.2310
13915W        W30762  17.025   3.040  12.723  0.1542 -0.0855  0.3018
13916W        W30763   1.653   6.151   0.871  0.0896 -0.2018 -0.2730
13917W        W30764  14.484   5.015   1.474  0.0226  0.2307  0.2133
13918W        W30765  10.605  18.845   5.070 -0.1338  0.1854 -0.1928
13919W        W30766   3.456  16.442  14.770 -0.0237  0.2633  0.0620
13920W        W30767  18.575  15.633  12.208 -0.2349  0.1209  0.0647
13921W        W30768  12.287   0.426  13.929 -0.0250  0.0243 -0.1258
13922W        W30769  18.848   0.028  12.706 -0.2710 -0.0795  0.2787
13923W        W30770  18.005  16.305   2.264  0.0560  0.1848 -0.4024
13924W        W30771   2.024   2.666   1.290  0.1653 -0.0609 -0.0019
13925W        W30772  10.707   1.070   3.405 -0.2270 -0.2654  0.0207
13926W        W30773   0.832   8.288  13.552 -0.2528  0.2486  0.2171
13927W        W30774  10.417  13.846  13.837 -0.2421  0.0925 -0.1148
13928W        W30775  15.540  15.129  13.378  0.0021 -0.0858 -0.1086
13929W        W30776   5.799  12.030  13.264  0.4133 -0.1073 -0.1127
13930W        W30777  10.680   8.833  12.790  0.1678 -0.1650 -0.2234
13931W        W30778   2.557  12.847  11.719  0.0089 -0.2931 -0.2077
13932W        W30779   3.890  10.270  11.319  0.1409  0.0143  0.0180
13933W        W30780   9.812   0.469   3.693  0.2470 -0.0481  0.0119
13934W        W30781  15.142  15.049  12.252 -0.1449 -0.0995  0.0140
13935W        W30782  17.354  16.081  12.740 -0.1609  0.3097 -0.1456
13936W        W30783  16.489   1.197  12.384  0.0078  0.0164 -0.4143
13937W        W30784   2.679   2.658  14.815  0.0434 -0.0274 -0.1660
13938W        W30785  14.364   7.516  11.170 -0.0371  0.2377 -0.1798
13939W        W30786  17.903   0.968  14.969 -0.1432 -0.0760 -0.1580
13940W        W30787   6.890   6.240  11.062 -0.0286 -0.2708 -0.0212
13941W        W30788  12.527   3.999   4.727 -0.0364 -0.0124  0.0711
13942W        W30789  11.832  15.440   3.050  0.1008  0.1215 -0.3521
13943W        W30790  13.052  17.916  11.771  0.0653 -0.1436 -0.0687
13944W        W30791  16.258   3.985   6.199 -0.1117  0.0479 -0.3929
13945W        W30792  12.267   9.382   3.258 -0.0312 -0.1732 -0.2241
13946W        W30793   6.537   1.303   1.895 -0.0654  0.2115  0.2258
13947W        W30794  10.750   1.262  11.296 -0.0276  0.1979 -0.0037
13948W        W30795  17.689  16.546  12.407  0.0409  0.0713 -0.3121
13949W        W30796  17.903   7.151   4.084 -0.3695 -0.0045  0.0341
13950W        W30797   5.231  14.731   0.830  0.1964 -0.0096  0.3267
13951W        W30798  13.778   4.170   2.795  0.0804  0.0131  0.1956
13952W        W30799   6.275   4.032   3.190 -0.1745 -0.0986  0.3631
13953W        W30800  12.233  16.868  12.128 -0.2170  0.0540  0.1019
13954W        W30801   5.451  10.172   1.906  0.3294  0.0640  0.1216
13955W        W30802   8.234   1.726  14.621 -0.1250  0.1652 -0.0271
13956W        W30803  12.009  14.099  11.734 -0.1194 -0.2095 -0.0206
13957W        W30804  12.518  11.977   2.343  0.0083  0.1321  0.1191
13958W        W30805  14.734  16.882  13.672 -0.0939 -0.0855  0.1103
13959W        W30806   4.204   5.878   4.174  0.2709 -0.3566  0.2605
13960W        W30807  11.736   8.255  13.664  0.1161 -0.0991 -0.0993
13961W        W30808   3.826   7.468  12.589  0.2587  0.0315 -0.2154
13962W        W30809  14.684  12.396  15.565  0.0884 -0.2128 -0.3215
13963W        W30810  11.471   3.804   5.567  0.0208  0.0549 -0.0878
13964W        W30811  14.942   9.792   0.818 -0.0308 -0.1309 -0.0212
13965W        W30812   5.733   1.210  15.351 -0.0034 -0.1982 -0.0078
13966W        W30813  14.020   2.932   2.152  0.3275 -0.0003 -0.0731
13967W        W30814   1.094   5.755   0.014 -0.2719  0.1540  0.0721
13968W        W30815   3.671   6.970   0.210  0.2773  0.1118  0.1699
13969W        W30816   8.522   7.417  13.079 -0.0348 -0.1492  0.0494
13970W        W30817   5.292  12.997   0.138 -0.0306 -0.1960  0.0958
13971W        W30818  15.515  16.642   1.086 -0.0829  0.1903 -0.3483
13972W        W30819  13.680  12.889   0.911 -0.1216 -0.0241  0.2067
13973W        W30820  15.817   8.223   3.188 -0.1967 -0.1600  0.1232
13974W        W30821   2.636   5.610   2.537  0.0114  0.3064 -0.1369
13975W        W30822  11.275   0.229   0.769 -0.0419  0.1080 -0.5223
13976W        W30823  10.285  16.161   2.197  0.0137 -0.1673  0.0656
13977W        W30824  11.777  10.576   0.167 -0.1594 -0.3571 -0.1200
13978W        W30825   3.024   0.177   4.639 -0.0345  0.2196  0.0045
13979W        W30826  17.565  10.774   4.263  0.0586  0.3101  0.1225
13980W        W30827  15.395  16.384  12.710 -0.0739  0.0722  0.2011
13981W        W30828  12.129  18.314   1.774  0.0310 -0.0206 -0.1358
13982W        W30829   7.829   7.458  11.320  0.0475 -0.3997  0.0497
13983W        W30830  16.951   8.278  15.125 -0.1102  0.0109  0.0021
13984W        W30831   3.055   4.490   4.878 -0.0301 -0.0423 -0.0189
13985W        W30832  10.584   3.685   1.127  0.1828 -0.0096 -0.3909
13986W        W30833   8.017   7.953  11.972 -0.0084  0.1260 -0.1024
13987W        W30834   5.261  14.084  12.273 -0.2039 -0.2207 -0.0889
13988W        W30835  18.537   7.304  13.602  0.1059 -0.0300 -0.1145
13989W        W30836   9.459   0.584  13.029  0.1289 -0.1802  0.2964
13990W        W30837   6.243   5.698  15.534 -0.0511  0.0700 -0.1682
13991W        W30838  16.043   1.892   1.696 -0.1586 -0.0781  0.2374
13992W        W30839  16.425   3.792   4.313 -0.3732 -0.0565  0.1017
13993W        W30840   6.409  15.099   4.730 -0.1747 -0.1716 -0.2280
13994W        W30841   9.176  14.053  13.710 -0.1701 -0.1113 -0.0942
13995W        W30842   5.172  13.453   4.266  0.0130  0.3248 -0.0135
13996W        W30843  15.635   2.010  11.918  0.0186 -0.0403  0.1907
13997W        W30844   3.303   2.928   0.193 -0.1947  0.0962  0.1421
13998W        W30845  13.393   2.660  13.645 -0.0294  0.1116  0.1084
13999W        W30846   2.260  14.452  14.431  0.1031  0.0964  0.0515
14000W        W30847   4.178   7.737   2.998 -0.1519  0.0672 -0.1797
14001W        W30848   8.542   4.053  12.399  0.1307  0.0821  0.3042
14002W        W30849   1.712   3.836   2.556  0.4420 -0.0506  0.0003
14003W        W30850   6.461  16.420  13.248  0.1007 -0.0302  0.1524
14004W        W30851  18.046  12.464   1.201 -0.1243  0.3797 -0.3421
14005W        W30852  10.326  18.124  13.386 -0.1904  0.1641 -0.1151
14006W        W30853   9.807   3.036   3.315  0.0774  0.0669 -0.1302
14007W        W30854   1.701  16.709   3.379 -0.2364  0.5944  0.2998
14008W        W30855   9.488  12.698  13.857  0.1631  0.1795 -0.0812
14009W        W30856   3.344   3.139  14.754  0.0386 -0.2106  0.0830
14010W        W30857   2.685  15.207   2.418  0.2170 -0.0782  0.0349
14011W        W30858  15.467   8.478  14.278  0.2726 -0.1512  0.1247
14012W        W30859   8.855   6.939  11.491  0.2525  0.0444 -0.0697
14013W        W30860  12.835   6.154   2.398  0.0873 -0.1621 -0.1014
14014W        W30861   6.730   0.507   0.895 -0.2636 -0.2668  0.0107
14015W        W30862  13.980   5.030  11.397  0.3259  0.1781 -0.0155
14016W        W30863  12.239  16.453   3.174  0.0331  0.1189  0.0440
14017W        W30864  11.189  14.649   5.098 -0.0721 -0.2894 -0.1659
14018W        W30865   3.027   6.631  14.141 -0.1533  0.0600  0.3888
14019W        W30866  12.309  16.934   3.245 -0.3368  0.0337 -0.2490
14020W        W30867  14.833  14.924   0.075 -0.0882  0.0334  0.1532
14021W        W30868   7.377   8.891   3.007 -0.1037  0.0633 -0.0475
14022W        W30869  16.457   6.767   3.422  0.2861  0.2758  0.0885
14023W        W30870  18.320   1.420   0.668  0.1672  0.2607 -0.1077
14024W        W30871  15.248  18.206   2.484  0.0688  0.2128  0.1268
14025W        W30872  12.151   5.860   4.677 -0.0174 -0.1366  0.1596
14026W        W30873   0.984  14.913  14.779 -0.0189 -0.3110 -0.4156
14027W        W30874  14.336   3.281  15.619  0.1279 -0.1213  0.0570
14028W        W30875   0.185  14.238  15.291 -0.1146 -0.0246 -0.3430
14029W        W30876  15.866  12.949   3.374  0.0987 -0.0504 -0.1012
14030W        W30877   4.850  14.925   4.111 -0.4732  0.2410 -0.0134
14031W        W30878  16.702  17.218   0.439 -0.0487  0.2237  0.2672
14032W        W30879  11.184   3.708  11.236  0.0797 -0.0471 -0.0355
14033W        W30880  11.021  11.903  12.286  0.4326 -0.1020 -0.0964
14034W        W30881  13.529  18.088  11.084  0.0488 -0.0287 -0.0573
14035W        W30882  11.732   0.171  14.048 -0.0841  0.0738  0.2714
14036W        W30883   4.322   7.712   0.541  0.0725 -0.0947 -0.0278
14037W        W30884   5.034   8.353   5.589  0.0899  0.1769  0.1539
14038W        W30885   3.669   0.169  12.580  0.1812  0.3956  0.1397
14039W        W30886  16.592   3.025   3.909 -0.2054  0.1544 -0.1148
14040W        W30887   5.650  17.690   1.920 -0.0500  0.0110 -0.2366
14041W        W30888   7.296   3.735  14.078 -0.1519  0.1669 -0.0130
14042W        W30889   9.814   2.187   3.076 -0.1780  0.1079 -0.0361
14043W        W30890  16.943   7.667   3.848 -0.0103  0.2974 -0.1476
14044W        W30891   1.941   9.588   2.403 -0.0522  0.0707 -0.3785
14045W        W30892  15.554  18.604   0.625 -0.0307  0.1780 -0.2971
14046W        W30893   8.005   8.014   2.592 -0.0615  0.0976  0.2041
14047W        W30894   6.687   4.268   2.667 -0.0961 -0.2218 -0.2042
14048W        W30895   5.202  15.429   2.644  0.0221 -0.1307 -0.0103
14049W        W30896   5.379  13.415   2.760  0.3110  0.0930 -0.0378
14050W        W30897  13.379  18.165  12.051 -0.1018  0.2168 -0.4093
14051W        W30898  11.950  17.419   0.595 -0.1938 -0.4492 -0.1358
14052W        W30899  18.669  16.779  14.726  0.2339  0.2817  0.3782
14053W        W30900   0.381   2.257   3.957  0.1229  0.1697  0.0107
14054W        W30901   6.559   1.457  13.809 -0.0201  0.0252  0.2303
14055W        W30902  10.565  14.113  11.862 -0.1986 -0.0330 -0.3223
14056W        W30903   7.130  10.173  13.020  0.2772 -0.0071  0.1436
14057W        W30904  13.176   6.958   3.059 -0.0802  0.2066 -0.1986
14058W        W30905   4.581  12.685  14.271  0.1444  0.0761  0.2981
14059W        W30906   4.932  15.735   1.023  0.0324  0.0432  0.0436
14060W        W30907   3.266   7.601   4.159  0.0825  0.4234 -0.0856
14061W        W30908  17.404   9.062   1.270 -0.2498  0.1636  0.2300
14062W        W30909   4.492  14.351  14.924  0.0785 -0.1456  0.0078
14063W        W30910  16.033   8.357  15.639  0.2804  0.0444  0.0297
14064W        W30911   5.606  17.964   0.507  0.1475 -0.0506 -0.2235
14065W        W30912  10.319   3.206  14.224  0.0266 -0.1152 -0.3342
14066W        W30913   2.157   3.291   5.448  0.4592 -0.1248 -0.3244
14067W        W30914  13.788   6.968   2.413 -0.4119 -0.1090 -0.0729
14068W        W30915  11.283  13.821  15.032 -0.1855  0.1714  0.1799
14069W        W30916  17.354  14.396  14.441 -0.3081 -0.1249  0.1268
14070W        W30917   1.716   3.394  15.613 -0.0901  0.0468 -0.1715
14071W        W30918   1.019  18.681   3.165  0.0697  0.1154  0.0423
14072W        W30919  12.050  10.325   4.366  0.0533  0.1726 -0.0886
14073W        W30920   4.660   0.086   0.678 -0.0125  0.2084  0.1293
14074W        W30921   5.101   3.838   0.346 -0.2184 -0.0403 -0.1740
14075W        W30922  16.707   7.232   5.502 -0.0658 -0.0567  0.2802
14076W        W30923  10.745  16.233   1.946  0.0164 -0.4501 -0.0514
14077W        W30924  10.060   1.786   0.042 -0.2654  0.0119  0.1510
14078W        W30925  18.022  15.250  14.434 -0.0904  0.0928  0.0970
14079W        W30926   0.937  13.622  14.209  0.1627 -0.1998  0.1509
14080W        W30927   5.349  11.317  11.329  0.1333  0.4090 -0.1034
14081W        W30928   2.728  11.943  15.369  0.1405 -0.0124 -0.0344
14082W        W30929  16.749  17.615   3.557 -0.0676 -0.0324 -0.1392
14083W        W30930  17.667   2.531   0.098 -0.0614 -0.1081  0.0572
14084W        W30931   2.714  16.512  14.219  0.0659  0.0499  0.0233
14085W        W30932  10.390   9.977   1.300  0.0423 -0.2882 -0.2815
14086W        W30933   6.644  14.398   1.646  0.0006 -0.1332 -0.0369
14087W        W30934  15.570   8.619   3.502  0.0428 -0.0940  0.1261
14088W        W30935  13.590   7.086  14.657  0.3307 -0.2494  0.6616
14089W        W30936   9.561   9.299   2.798 -0.0477 -0.0235  0.0995
14090W        W30937  10.852   6.471  14.898  0.2879 -0.5187 -0.1266
14091W        W30938  15.672   6.858   1.701  0.0599  0.0424  0.1457
14092W        W30939   1.636   9.258   0.813  0.0559  0.1854 -0.4326
14093W        W30940  15.505   6.838   3.386  0.1246 -0.2235  0.1010
14094W        W30941   6.082   8.073   1.762  0.2838 -0.0420 -0.1997
14095W        W30942  12.304  11.536   2.529 -0.1856  0.3085  0.3559
14096W        W30943  14.902  12.685   5.019  0.1667  0.3020  0.0547
14097W        W30944   5.684  17.570  13.558  0.0565  0.1591 -0.1117
14098W        W30945   1.545  18.011  12.390  0.3240 -0.2750  0.0601
14099W        W30946   7.676   7.891   0.184 -0.1161  0.1756 -0.1401
14100W        W30947  15.380   7.384   3.759  0.3295  0.3988  0.2549
14101W        W30948   5.598   4.460   0.769  0.1056 -0.0952 -0.0227
14102W        W30949   8.066   4.188  14.150 -0.1689  0.1924  0.0472
14103W        W30950   3.936  14.734   0.849 -0.1259  0.0078  0.2124
14104W        W30951   6.829  16.181   0.009 -0.0676 -0.1500  0.0448
14105W        W30952   2.797  14.155   4.155  0.1671 -0.3143  0.2109
14106W        W30953   3.324  11.500   1.454  0.2692 -0.2153  0.0095
14107W        W30954   0.229  13.758  12.197 -0.0656 -0.1187  0.3071
14108W        W30955  13.717   9.352  13.109  0.0813  0.0980 -0.0067
14109W        W30956   1.318   4.418  15.105  0.1601  0.1564  0.0528
14110W        W30957   3.235  12.599  12.688 -0.1076  0.1086 -0.0474
14111W        W30958  17.916   1.493   1.613  0.1122  0.2742  0.1624
14112W        W30959  15.260  13.356   1.098  0.1015 -0.2047  0.1815
14113W        W30960  12.584  17.924  12.480  0.1669 -0.0430  0.1421
14114W        W30961   6.846  18.837   1.640  0.2085  0.2396 -0.0910
14115W        W30962   4.915  13.186   4.614  0.0127 -0.0772  0.1954
14116W        W30963  12.579   8.851  13.013 -0.0125 -0.1389  0.0111
14117W        W30964   4.697   1.264   0.832  0.2564  0.1763  0.1769
14118W        W30965   0.453  10.230  15.637  0.1696 -0.2933  0.2071
14119W        W30966  12.206  12.451   5.121  0.1486  0.0698  0.2614
14120W        W30967   9.190   7.122  11.095 -0.1021  0.1888 -0.1577
14121W        W30968  11.479   7.873  10.983 -0.1344 -0.0345  0.5206
14122W        W30969   7.242  17.572   0.960 -0.2427  0.1178  0.0550
14123W        W30970  14.639   5.532  11.198  0.0582 -0.1257 -0.2373
14124W        W30971  10.357   2.890   2.824 -0.1771  0.0619  0.0631
14125W        W30972   2.488   0.986   5.777  0.1414  0.0988 -0.1049
14126W        W30973  15.467   2.383  11.611  0.0981 -0.0767  0.0482
14127W        W30974  15.658  10.250  14.818 -0.2020 -0.2156 -0.2560
14128W        W30975  17.969   0.199  15.626  0.0091 -0.1718  0.3713
14129W        W30976   9.786   7.872   5.745  0.2984 -0.1262  0.2126
14130W        W30977   4.873  18.591  11.208  0.0257 -0.0993  0.1377
14131W        W30978   5.927  16.865   5.613 -0.0604  0.3016 -0.1380
14132W        W30979   1.712  14.612  15.529  0.3475 -0.1093 -0.0752
14133W        W30980   8.441   7.560   4.421  0.0808  0.0809 -0.2601
14134W        W30981  17.876   5.474   3.163 -0.2647 -0.2464  0.1954
14135W        W30982   6.010   3.281   2.096 -0.2481 -0.1275  0.1045
14136W        W30983   7.996  16.256  14.954  0.0888 -0.1865 -0.0568
14137W        W30984  16.765  16.129  13.520  0.0240 -0.1079 -0.0444
14138W        W30985   6.295  18.656  14.299  0.1417  0.0061  0.0469
14139W        W30986  16.458   8.263   2.185  0.0849 -0.1514  0.0182
14140W        W30987  18.133   3.534   3.160 -0.0941 -0.2310 -0.1503
14141W        W30988  18.677  16.207  13.217 -0.0322 -0.0839 -0.0995
14142W        W30989  17.735   9.543  12.378  0.2184  0.1941  0.0201
14143W        W30990  16.068  13.670   0.962  0.1234 -0.1149  0.0614
14144W        W30991  15.021  17.546   0.844  0.0766 -0.0692  0.1340
14145W        W30992  14.763   0.705   4.468 -0.2232  0.1505  0.0140
14146W        W30993  17.758  14.888  11.273 -0.1785  0.0010  0.0873
14147W        W30994  14.991   9.235  10.331 -0.0309 -0.1237  0.1163
14148W        W30995   5.240   3.906   4.501 -0.0555  0.1278 -0.1504
14149W        W30996  10.990  10.409   3.642 -0.1625 -0.1278  0.1351
14150W        W30997  14.975  14.105  15.329  0.1394 -0.0459 -0.0214
14151W        W30998   5.399  14.319  15.223 -0.1189  0.0095 -0.0084
14152W        W30999  13.696   4.524   3.640 -0.4238  0.0860  0.0409
14153W        W31000   9.442   7.976   1.903  0.0850 -0.0625  0.0843
14154W        W31001  14.657   6.334  11.831 -0.0877 -0.1141 -0.2662
14155W        W31002   0.925  17.204  11.667  0.2005 -0.1696  0.2583
14156W        W31003   4.256  17.752  11.619 -0.0582 -0.3083  0.1296
14157W        W31004  15.461   9.559   1.489  0.2154 -0.1030 -0.3243
14158W        W31005   6.906   6.236  14.860 -0.3697  0.1703  0.1948
14159W        W31006  13.433  15.020   2.183  0.2530 -0.1798  0.1960
14160W        W31007  12.657   9.757   0.859  0.1277 -0.1999  0.1130
14161W        W31008  14.047  15.841  12.974  0.0573  0.0076 -0.0356
14162W        W31009  11.540  16.800  13.083 -0.1112 -0.1807  0.3168
14163W        W31010   3.304  16.199  11.130  0.1091  0.2877  0.2927
14164W        W31011   7.502  14.957   1.082  0.0067  0.3299  0.0491
14165W        W31012  12.011   5.904   3.873 -0.0706  0.0151 -0.1672
14166W        W31013   6.761   1.735  10.902  0.2266 -0.0440 -0.0189
14167W        W31014  15.822   7.629  11.565  0.2636 -0.0183 -0.5385
14168W        W31015  10.275   1.144   0.657  0.0785  0.0596 -0.0811
14169W        W31016   5.070   1.215   2.969 -0.1128 -0.0818  0.0265
14170W        W31017  16.924  13.826   2.124  0.0145  0.1437  0.0735
14171W        W31018   7.626   0.960  14.655 -0.0704 -0.0621  0.1837
14172W        W31019   4.466  11.766   2.011 -0.2966  0.2325  0.0660
14173W        W31020  16.959   6.343  14.049 -0.0390  0.1723 -0.2516
14174W        W31021   2.249   9.254  13.518 -0.1580  0.1705 -0.0057
14175W        W31022  15.238   7.778   0.067  0.0713 -0.2521 -0.0071
14176W        W31023   9.195   6.196  12.274  0.0551  0.0710  0.1128
14177W        W31024  15.499   6.111  12.515 -0.0105 -0.1874 -0.2622
14178W        W31025   6.081   1.519  15.337  0.0505 -0.1325 -0.1203
14179W        W31026   5.305   7.071   2.778  0.1211  0.1708 -0.1471
14180W        W31027   4.610   7.035   5.587 -0.1743  0.0292  0.1736
14181W        W31028  11.683   8.723   2.778 -0.1392  0.2105 -0.2100
14182W        W31029   6.159  16.238   1.405 -0.1736 -0.0441 -0.2500
14183W        W31030   3.306  17.656   4.141 -0.2241  0.0119  0.1240
14184W        W31031  14.324  11.596  14.489 -0.1002  0.0623  0.1794
14185W        W31032  11.144  13.906   2.262 -0.4158  0.1296 -0.1119
14186W        W31033  17.443  10.174   2.779  0.0995  0.2200 -0.3760
14187W        W31034   7.946   0.661   1.346 -0.2042  0.0341 -0.1419
14188W        W31035   2.565  14.219  15.421 -0.1056 -0.2061  0.2138
14189W        W31036  14.990   0.478   3.997  0.2098 -0.0342 -0.3454
14190W        W31037   6.307  13.986   4.760 -0.0715 -0.1368  0.1147
14191W        W31038  10.854  17.290   2.061 -0.2233 -0.0321  0.4084
14192W        W31039  10.881  12.405  13.581  0.0623  0.1889  0.3342
14193W        W31040  13.382   5.013  13.843  0.3655 -0.0122  0.1613
14194W        W31041   1.006   7.263   3.321 -0.0047 -0.1018  0.1992
14195W        W31042  14.410  13.255   4.356 -0.0960 -0.1652  0.1961
14196W        W31043  14.567   7.968   1.749  0.1134 -0.0497  0.1790
14197W        W31044   5.160   9.344   2.182 -0.2601  0.1591 -0.0268
14198W        W31045   0.509  11.877  12.906 -0.1072 -0.0707 -0.2365
14199W        W31046   0.619   3.035  14.243  0.0849  0.2494 -0.2015
14200W        W31047   3.179  17.217  15.640 -0.2716  0.2781  0.0180
14201W        W31048   4.126   8.991   4.325  0.2421  0.1884 -0.2091
14202W        W31049   2.890   8.245   5.531  0.0413  0.0234 -0.2303
14203W        W31050   2.925  15.070  12.045  0.1233  0.0195 -0.0051
14204W        W31051   3.353   1.846   3.282  0.0862  0.1832 -0.1097
14205W        W31052   9.736   9.452  14.268 -0.1259  0.2010  0.2177
14206W        W31053  11.467  17.997  12.332  0.0760 -0.0366  0.0444
14207W        W31054  17.977  12.686  15.338 -0.1558  0.1577 -0.2927
14208W        W31055   4.653  14.932   2.632  0.2230  0.0024  0.1236
14209W        W31056   9.556   8.176  13.505  0.0514 -0.0547 -0.0700
14210W        W31057   3.658  10.436   1.229 -0.2285 -0.2821 -0.2452
14211W        W31058   5.139   6.490   0.783  0.0494  0.3621 -0.0425
14212W        W31059  14.407   0.762   0.995  0.0743  0.2183 -0.1460
14213W        W31060  18.798  10.090  12.629 -0.0024 -0.1183  0.1604
14214W        W31061  18.121   1.402   3.472 -0.1601 -0.1666  0.0516
14215W        W31062  17.336   0.334   5.119  0.0394 -0.1063  0.0325
14216W        W31063  18.323  14.359  15.667 -0.0753 -0.0373  0.0700
14217W        W31064  15.451  16.878  12.923  0.2367 -0.1244 -0.1555
14218W        W31065   9.863   4.962   1.904  0.2289  0.0284 -0.0384
14219W        W31066   1.230  13.444  15.195  0.2610 -0.1807 -0.0703
14220W        W31067   3.542  12.113  15.368 -0.3568 -0.2025 -0.1671
14221W        W31068   5.377  14.768   3.331 -0.2473  0.1219  0.4045
14222W        W31069  16.304  10.696  11.769  0.3145  0.0517 -0.0532
14223W        W31070   2.286  16.254   2.462  0.2237 -0.0548  0.0573
14224W        W31071  10.068  16.464   1.454 -0.0939 -0.0968 -0.0153
14225W        W31072  12.708  13.827  11.062 -0.1357 -0.1690  0.3970
14226W        W31073  13.876  12.343  12.261  0.1760 -0.1774 -0.1841
14227W        W31074   6.448   5.825   4.618  0.0728 -0.0332  0.0545
14228W        W31075   6.552  13.418  11.570  0.4261  0.2248  0.4011
14229W        W31076  11.686   1.845   4.666 -0.0465  0.0975  0.1461
14230W        W31077   0.200   1.937   0.464  0.1500 -0.0276  0.1457
14231W        W31078  18.785   5.947   3.962 -0.1338 -0.0701 -0.0984
14232W        W31079  18.462   2.923  10.476 -0.0329 -0.3007  0.1792
14233W        W31080  15.353  15.199   0.020 -0.1842 -0.0799 -0.1849
14234W        W31081  18.007  15.805  11.504 -0.2026 -0.0062  0.0593
14235W        W31082  17.401   3.606   3.681  0.3470 -0.0440  0.0366
14236W        W31083  18.113  15.672  10.917  0.0171 -0.1668  0.0140
14237W        W31084  10.005   9.398  11.913 -0.2396  0.0344  0.1167
14238W        W31085   9.828  15.859   0.274 -0.3722  0.0740  0.0256
14239W        W31086   7.822  13.393   3.543  0.1541  0.0722 -0.0531
14240W        W31087   0.373  17.819   3.984  0.2158 -0.3340  0.1082
14241W        W31088  12.271  15.029   3.308  0.1289  0.1354 -0.2013
14242W        W31089   8.823   3.625  14.526  0.0199 -0.0863  0.0688
14243W        W31090   1.508   0.723  15.608 -0.0109  0.1111  0.2516
14244W        W31091   1.807  11.768   3.467 -0.1519 -0.2398  0.0804
14245W        W31092  16.371  15.053   2.067  0.2093 -0.0673 -0.2073
14246W        W31093  11.064   3.940   4.483 -0.2881 -0.0207 -0.0921
14247W        W31094   5.524  12.653  14.554 -0.2739  0.0478  0.0198
14248W        W31095   8.672   1.666   2.021  0.2405 -0.0044 -0.0162
14249W        W31096  18.565   6.669   3.497 -0.1608  0.0031  0.0477
14250W        W31097  10.357  10.843  14.310 -0.3697 -0.0401  0.1946
14251W        W31098   9.253   4.955   2.538  0.1648 -0.2446 -0.0843
14252W        W31099   7.275  18.584   2.114 -0.0733  0.1216  0.1385
14253W        W31100   3.961   4.135  11.453  0.1647 -0.0239 -0.1248
14254W        W31101  16.164  14.989  15.315 -0.3577 -0.3015  0.1152
14255W        W31102  12.077   6.843  13.833  0.2013 -0.2879  0.2254
14256W        W31103  13.925   4.470   0.297 -0.2418 -0.0628 -0.4530
14257W        W31104   9.944   8.332   1.115 -0.1682 -0.3774 -0.0950
14258W        W31105   7.481   4.937   5.936 -0.2212 -0.1706 -0.1727
14259W        W31106  15.877  12.645  12.457  0.2345  0.0826 -0.0677
14260W        W31107   9.131   9.769   5.352  0.2617 -0.3614 -0.3878
14261W        W31108   6.107   9.888   0.568  0.1345  0.1663  0.0684
14262W        W31109  17.065  18.703  15.621 -0.0928  0.1267  0.1302
14263W        W31110   7.938  10.544   4.547 -0.4951  0.1777  0.0664
14264W        W31111   4.488   5.584  12.571  0.0006 -0.3129 -0.2117
14265W        W31112   7.132  16.059  15.373 -0.0742  0.0717 -0.0758
14266W        W31113   5.940  10.479   4.626 -0.1865 -0.0136 -0.2501
14267W        W31114  12.766  15.817   0.200  0.2735  0.0165  0.4008
14268W        W31115   6.361   2.927   2.078  0.0581 -0.1962 -0.0808
14269W        W31116   6.904  11.506  11.803  0.2501  0.1242 -0.0793
14270W        W31117  12.534  10.613  13.281 -0.2623  0.2407  0.0204
14271W        W31118  15.270   0.733  12.980 -0.1297  0.0124 -0.1458
14272W        W31119   2.259  13.307  11.006  0.0949  0.1147 -0.0758
14273W        W31120   5.905   8.490   3.535  0.1929 -0.1157 -0.1345
14274W        W31121   8.075  10.273   0.551  0.3006  0.0591  0.1238
14275W        W31122   6.166  14.891   2.298 -0.1973 -0.0660 -0.0372
14276W        W31123   2.769  16.241   3.825 -0.0125 -0.1597 -0.0287
14277W        W31124  13.310   9.566   0.421  0.1115  0.3770 -0.3097
14278W        W31125   3.845   2.680  12.185 -0.1841 -0.1203  0.2246
14279W        W31126  14.305   2.340   4.383  0.3590  0.4403  0.0391
14280W        W31127   9.544   3.025   1.743 -0.0358 -0.0284 -0.1885
14281W        W31128   2.879  16.310   1.375 -0.1600  0.2456  0.2887
14282W        W31129  16.418  13.432  10.605  0.0417 -0.2146 -0.1792
14283W        W31130  16.993  13.458   3.540  0.2551 -0.0502  0.3722
14284W        W31131  16.153  17.829  12.591  0.0636 -0.0099 -0.0549
14285W        W31132  16.659   3.361   0.697 -0.2651  0.1064 -0.0077
14286W        W31133  17.918  17.057  14.293 -0.0577  0.1319 -0.3648
14287W        W31134   6.122  15.478   4.694 -0.1929 -0.0154 -0.3228
14288W        W31135  11.569   2.452  13.515 -0.2275  0.0551  0.4952
14289W        W31136  15.487   6.109   0.605  0.1870  0.2574 -0.0353
14290W        W31137  10.345  14.448  13.464 -0.1205  0.0142 -0.0715
14291W        W31138   6.863  12.624  14.450 -0.2189 -0.0847  0.1004
14292W        W31139  17.919  12.461   3.067 -0.1379  0.0625 -0.0945
14293W        W31140   0.022  17.133  13.790 -0.2322  0.0988  0.0790
14294W        W31141  15.065   8.541   3.912  0.1899  0.4029 -0.0127
14295W        W31142   8.508  12.527  15.625  0.1099 -0.1046  0.2933
14296W        W31143  12.843   7.629   0.493 -0.3290 -0.1255  0.1216
14297W        W31144  11.752  12.806  12.906 -0.0511 -0.0431  0.1122
14298W        W31145   3.502  11.614   4.586 -0.0443  0.2324 -0.1663
14299W        W31146   6.521  16.502   3.376  0.0179 -0.0489  0.1058
14300W        W31147  18.726   7.635  11.095  0.1332 -0.1439 -0.0736
14301W        W31148  18.860   5.379  15.090 -0.2221 -0.0902 -0.2513
14302W        W31149   9.118   9.590  11.719  0.0343  0.2274 -0.1236
14303W        W31150   2.992  13.218   4.019 -0.0800 -0.0211  0.0727
14304W        W31151   0.047  13.006  12.577  0.3350  0.4641  0.0280
14305W        W31152   2.487  13.342  11.461  0.0035  0.1326  0.1747
14306W        W31153  16.876  11.973   3.578 -0.1470 -0.1244  0.5206
14307W        W31154   6.290   3.646  12.153  0.1757 -0.0741  0.1256
14308W        W31155  18.010   6.311   1.953  0.3029  0.3307  0.2672
14309W        W31156  16.418  11.901   3.940 -0.3804 -0.0209 -0.1358
14310W        W31157   4.844  10.554   3.659 -0.2516  0.1369  0.1092
14311W        W31158  14.622   7.734  12.131  0.1025 -0.0662 -0.1959
14312W        W31159  13.866   3.009  10.537 -0.1412 -0.0970  0.0300
14313W        W31160   0.582   5.587  14.911  0.3020  0.0092  0.0293
14314W        W31161  10.342   5.500  14.212  0.2709  0.0078  0.3984
14315W        W31162   2.889  14.936   5.003 -0.0202  0.3340  0.3308
14316W        W31163   0.247  14.217   1.440  0.0054 -0.0126  0.3143
14317W        W31164   7.956   9.262   1.951  0.2334  0.2729 -0.0125
14318W        W31165  14.818   7.907  14.532 -0.1276  0.1396  0.0444
14319W        W31166  11.065  17.704   1.137  0.0323 -0.1980  0.0611
14320W        W31167   5.944   3.279  13.751 -0.0634 -0.1060  0.0685
14321W        W31168   0.555   6.138  15.102 -0.0588 -0.1059 -0.0536
14322W        W31169   8.142  12.448  10.476 -0.0299  0.0856 -0.2272
14323W        W31170   8.505  15.539   0.208  0.2583  0.0766 -0.1344
14324W        W31171   1.462   0.201  15.671 -0.0487  0.0116 -0.1887
14325W        W31172   4.483   6.768   3.660 -0.1000  0.2822 -0.0814
14326W        W31173   9.230   9.972  13.173 -0.0706  0.3534  0.0190
14327W        W31174   3.935   5.786  12.046 -0.0906 -0.0011  0.3297
14328W        W31175  11.366  10.687   5.032  0.0515 -0.2665 -0.1049
14329W        W31176   5.897   2.389   1.433  0.1150  0.1200 -0.1123
14330W        W31177   0.508  15.071  11.704 -0.0563 -0.2451 -0.0547
14331W        W31178  12.545  11.250  11.768  0.0109  0.1580  0.1483
14332W        W31179  15.649   3.117  11.034  0.2848  0.5414  0.1006
14333W        W31180   2.374   4.854   6.031 -0.0293 -0.0799  0.1967
14334W        W31181  11.576  12.467   2.939  0.3163 -0.0065  0.0033
14335W        W31182   9.181  15.428   3.025  0.1053 -0.2140 -0.0017
14336W        W31183  10.881  14.031   3.914  0.0394  0.1346  0.4012
14337W        W31184   7.724  16.826   2.796 -0.5316  0.0030  0.0167
14338W        W31185  17.672   8.099  14.232  0.0990  0.1211 -0.0652
14339W        W31186   7.834  14.093  14.821  0.3409  0.3089  0.0539
14340W        W31187   5.594   3.919  14.184  0.0996  0.2187 -0.1952
14341W        W31188   2.060  15.630   1.879 -0.3647  0.0132 -0.1441
14342W        W31189  13.308   5.550   3.185  0.4175 -0.1324 -0.2798
14343W        W31190   8.395  15.172   4.033  0.0248  0.0532  0.1020
14344W        W31191  15.119  13.147  11.695  0.0901  0.3290 -0.1124
14345W        W31192   4.760  13.144   1.055  0.1770 -0.0355  0.1580
14346W        W31193   9.106   0.134   2.336  0.0561 -0.2837 -0.0579
14347W        W31194  13.021   2.551   1.982 -0.3845 -0.1772  0.0575
14348W        W31195   5.645   2.484  10.638 -0.2576 -0.0995  0.0689
14349W        W31196   5.824  10.210  11.203 -0.0942  0.2088  0.0631
14350W        W31197  17.654   3.651   4.793 -0.2159  0.0690 -0.3155
14351W        W31198   0.554  17.420  13.891  0.2290 -0.3664 -0.0911
14352W        W31199   1.749  13.532  13.442  0.1074  0.1831 -0.1316
14353W        W31200  15.350  11.782  14.387 -0.1071  0.3750  0.0109
14354W        W31201   2.730   1.591   0.166  0.1677  0.1929 -0.0532
14355W        W31202   8.999   1.757  12.603 -0.0675  0.0914 -0.2431
14356W        W31203  11.557   8.708  14.931  0.2150 -0.0260  0.5374
14357W        W31204  18.585   7.473   0.179 -0.0050  0.4048 -0.3020
14358W        W31205   9.352   1.577  11.686 -0.0285 -0.0207  0.2039
14359W        W31206   4.766   7.045   2.825  0.1154  0.0044  0.1958
14360W        W31207  11.106   0.211  10.235 -0.3531 -0.1583  0.2272
14361W        W31208   2.608   1.012  13.330  0.0555  0.0488 -0.2395
14362W        W31209   0.262   4.647   1.792 -0.2371 -0.2597 -0.3192
14363W        W31210  16.195   9.196  11.560 -0.0969  0.0025  0.1371
14364W        W31211   6.237   5.888   3.182  0.1116  0.2886 -0.1116
14365W        W31212  18.193   1.023  12.499  0.1850 -0.0565 -0.0035
14366W        W31213   5.103  12.627  12.075  0.2316  0.0075 -0.0739
14367W        W31214  15.722   8.618  11.797 -0.0473 -0.0886  0.1368
14368W        W31215  16.605  12.473   3.503 -0.1048  0.1778 -0.2672
14369W        W31216   5.188   0.932   3.394  0.1071 -0.1456 -0.1869
14370W        W31217  10.256  12.331   5.192  0.1351  0.0542 -0.1075
14371W        W31218  14.283   3.782   2.050  0.2049 -0.3133 -0.1505
14372W        W31219   3.749   0.337  12.065  0.2586 -0.1417  0.0280
14373W        W31220   7.055  16.618  11.988  0.0475  0.0999 -0.0468
14374W        W31221  15.362   0.327   4.898 -0.4636 -0.0512 -0.1056
14375W        W31222  12.082  14.123   3.776  0.0527 -0.1893  0.1775
14376W        W31223   7.089  12.176  13.501 -0.1197 -0.1152  0.1856
14377W        W31224   9.604  11.435  14.096 -0.0337  0.0722  0.2279
14378W        W31225  16.828  15.491   1.008  0.0626  0.2035 -0.2847
14379W        W31226   8.651  10.247   3.276 -0.2525  0.1371  0.0981
14380W        W31227   0.605  14.381   1.756 -0.0441  0.2061 -0.2062
14381W        W31228   3.278   3.670   2.049  0.0422  0.2829 -0.0711
14382W        W31229   6.942  12.117   2.991  0.0829  0.0535 -0.1277
14383W        W31230  16.205  16.895  11.094  0.0141 -0.1604  0.1449
14384W        W31231  13.358  14.015   1.591  0.3395  0.0346  0.1665
14385W        W31232  12.942  16.687  10.744 -0.1314  0.1984 -0.0843
14386W        W31233   2.420   5.669   5.423  0.0658 -0.0375  0.0734
14387W        W31234  18.103  13.927  15.587  0.3537  0.1196 -0.0354
14388W        W31235   3.430  16.414   2.115  0.1485 -0.2605 -0.0103
14389W        W31236  11.892  13.895  14.346  0.1887  0.1293  0.1494
14390W        W31237  16.595   8.187  13.657 -0.4029 -0.0753 -0.0388
14391W        W31238  18.586   3.844   1.744  0.2349  0.0614 -0.4032
14392W        W31239   3.093   8.831  11.465 -0.2357 -0.0910  0.1891
14393W        W31240  12.010   7.487   3.262 -0.0524 -0.3838  0.0541
14394W        W31241   6.468   4.808  12.769 -0.1973 -0.1614  0.1975
14395W        W31242  16.109   9.010  14.457 -0.0655  0.0457 -0.2410
14396W        W31243  14.515   2.595   3.054 -0.2861  0.4203 -0.0921
14397W        W31244  18.826   8.257   2.208  0.3393 -0.2165 -0.0812
14398W        W31245   4.329   1.943   3.707 -0.0967  0.2823 -0.2922
14399W        W31246   1.982  18.278   5.608 -0.1045 -0.1040  0.1493
14400W        W31247  11.587   6.507  11.818  0.0733  0.0196  0.0361
14401W        W31248   5.152  11.042  14.224  0.0473  0.1685 -0.2793
14402W        W31249   3.893   4.794  11.165  0.2757 -0.0237 -0.2792
14403W        W31250   1.740   0.396   1.888 -0.0640  0.1058 -0.0679
14404W        W31251   6.238   3.264  11.865 -0.2280  0.2377 -0.0597
14405W        W31252  17.272  16.221  13.740  0.2636 -0.3002 -0.2656
14406W        W31253   4.736  17.155   3.497 -0.3839  0.2625 -0.0238
14407W        W31254  16.391  13.674  13.160  0.2811 -0.0770 -0.2091
14408W        W31255  13.335   8.087  14.546  0.0062  0.0432  0.0315
14409W        W31256   3.334   6.654   3.044  0.2042  0.0156 -0.1881
14410W        W31257  14.310  12.621  13.422  0.0066 -0.0654 -0.0619
14411W        W31258   8.471  17.892  13.080  0.0405 -0.0007 -0.2366
14412W        W31259   9.725  13.950  13.953 -0.1995  0.0318 -0.0735
14413W        W31260  18.227  13.302   3.227  0.3835  0.1626 -0.1986
14414W        W31261  13.311   6.178   0.776 -0.0957 -0.3114 -0.0112
14415W        W31262   6.586  15.241  10.983 -0.2491  0.0702 -0.2030
14416W        W31263   4.420  16.746   4.337  0.1006  0.0929 -0.2429
14417W        W31264   5.197   8.800   2.215 -0.0387  0.2034 -0.0647
14418W        W31265  12.904  12.422  12.683  0.3280  0.3067 -0.2240
14419W        W31266  12.210   1.326   3.339 -0.1230  0.1713  0.2259
14420W        W31267   6.903   0.517  12.200 -0.2023 -0.0225  0.3100
14421W        W31268   8.998  10.834   0.501 -0.4172  0.1633  0.2654
14422W        W31269  16.367  12.996   4.268 -0.1707  0.0723  0.1001
14423W        W31270  16.327  18.253  12.989 -0.1787  0.0351 -0.1420
14424W        W31271  11.192   0.287   1.894  0.2453  0.1458  0.4944
14425W        W31272   3.869   1.016   1.372  0.3828  0.0676 -0.1866
14426W        W31273  13.191  10.065   2.385  0.1076 -0.0432  0.0795
14427W        W31274   4.471   3.146  12.050  0.3168 -0.3794 -0.0680
14428W        W31275  12.380  14.466  13.681  0.0025 -0.1487 -0.0892
14429W        W31276  18.080  15.048   5.078  0.1446 -0.1379  0.0090
14430W        W31277   8.336  10.783  10.930  0.1469  0.1301  0.0641
14431W        W31278   0.576   5.583  11.711  0.2261  0.3777  0.0052
14432W        W31279   6.522   5.749   2.178 -0.0037  0.0966 -0.2158
14433W        W31280  13.754  13.430   5.263 -0.2715 -0.1836 -0.1681
14434W        W31281  17.663  12.088  12.490 -0.1032  0.4280  0.0449
14435W        W31282  13.723   1.512   0.976  0.0106 -0.0890  0.3867
14436W        W31283   9.975   8.935   0.047 -0.1559  0.1482  0.2671
14437W        W31284   4.740   5.095   4.121  0.0569  0.3538  0.0431
14438W        W31285   6.797  11.252   1.934  0.0511  0.1219  0.1263
14439W        W31286   2.637  18.479   1.697 -0.0816  0.0192  0.1215
14440W        W31287  14.273   7.677   5.590  0.0792 -0.0586 -0.2207
14441W        W31288   2.539   8.035   0.220  0.0546 -0.2465  0.0805
14442W        W31289   5.838  16.476  12.026 -0.3371  0.0622 -0.0648
14443W        W31290   4.847  13.416  11.711  0.2701 -0.0577  0.0447
14444W        W31291  15.144   3.881   3.295 -0.1892 -0.1046 -0.1757
14445W        W31292  11.778   8.479   1.410  0.2116 -0.0948 -0.1110
14446W        W31293   3.749   3.312  11.463 -0.0391 -0.1771 -0.0361
14447W        W31294   5.224  15.085   5.431  0.0152  0.1208  0.1326
14448W        W31295  15.334   1.913  13.415  0.1623 -0.1650  0.1799
14449W        W31296  14.235   5.826  12.563 -0.0362 -0.1470  0.0444
14450W        W31297   8.621  17.116   0.292 -0.1129 -0.3667  0.0633
14451W        W31298   1.274  18.853   1.424  0.1276  0.0119 -0.1992
14452W        W31299   0.880  16.309  15.384 -0.1366  0.2518 -0.1621
14453W        W31300  14.020   8.991  12.237  0.2627 -0.1317 -0.2509
14454W        W31301  14.819   7.244   1.257 -0.1734  0.1859  0.0564
14455W        W31302   2.367   4.283  14.669 -0.0096  0.0525 -0.1586
14456W        W31303   9.730  15.482  12.609  0.1283  0.2592 -0.0247
14457W        W31304  15.892   5.276   1.517 -0.0111  0.0910 -0.1267
14458W        W31305  18.733  14.390   3.026 -0.0616 -0.0279  0.3274
14459W        W31306   8.513  17.551   4.162 -0.1162  0.0002  0.1803
14460W        W31307   6.017   8.271  13.033 -0.2473  0.0418  0.3427
14461W        W31308  14.424   3.365   3.667  0.0783 -0.1310 -0.0363
14462W        W31309   0.904   6.448   4.956  0.2017 -0.2931  0.1115
14463W        W31310  17.990   2.660   5.829 -0.1450  0.1399  0.1151
14464W        W31311   6.989   7.407  13.344  0.2839 -0.0679 -0.5126
14465W        W31312  12.212   5.444   0.645  0.0906 -0.0785 -0.0804
14466W        W31313  14.121  14.707   3.195  0.1772  0.1755  0.3933
14467W        W31314   3.367   3.551   4.125 -0.0878  0.3038  0.0252
14468W        W31315   2.764   2.468   4.000  0.0500 -0.0905  0.1364
14469W        W31316  16.333  18.657   3.267  0.2230  0.0459 -0.1349
14470W        W31317   6.956  16.168   2.683 -0.0758  0.0071 -0.0891
14471W        W31318   8.157  14.048   1.652 -0.1426 -0.0235 -0.0018
14472W        W31319  17.550  11.792  13.678  0.2552  0.3650 -0.0282
14473W        W31320  16.991  13.998   3.125  0.0968  0.1301  0.0226
14474W        W31321  15.790  17.584  12.975  0.1229 -0.1588  0.1469
14475W        W31322  13.460  18.252   3.931 -0.0612 -0.0444 -0.1541
14476W        W31323   9.837   6.278  11.578 -0.0710  0.2283 -0.0287
14477W        W31324  12.271   5.145   4.695 -0.3360  0.1108 -0.2735
14478W        W31325   2.433  16.268   1.122 -0.1805  0.3048  0.0713
14479W        W31326  14.141  14.587  13.567  0.0185  0.3489 -0.2450
14480W        W31327  16.374  17.986  15.335  0.2841 -0.2255  0.0057
14481W        W31328   1.895   2.819  14.424  0.3126  0.1412  0.2207
14482W        W31329  15.505  15.809   1.574  0.0232  0.1658 -0.2592
14483W        W31330  16.956   0.370  10.532 -0.2015 -0.1829  0.1284
14484W        W31331   2.076  11.828   4.827  0.0844 -0.0912 -0.0550
14485W        W31332   5.450  10.307   3.272  0.0974  0.1133 -0.4066
14486W        W31333  10.057  11.689   1.314  0.4437 -0.0116 -0.2180
14487W        W31334  16.753  12.949   3.593  0.1401  0.2340  0.1612
14488W        W31335   8.728  16.799  15.146  0.2423  0.0810 -0.0288
14489W        W31336  18.458  12.893  11.453 -0.1979 -0.2970  0.0724
14490W        W31337  16.001  16.126  13.371  0.2213 -0.1405  0.0921
14491W        W31338   9.151  18.090  10.416 -0.1678 -0.0096  0.2906
14492W        W31339   0.040   8.905  14.365 -0.4915 -0.0834  0.0273
14493W        W31340  13.701   6.438  11.487  0.2116  0.2483  0.3047
14494W        W31341   3.398  10.010  14.682  0.1456 -0.1333  0.1572
14495W        W31342   7.672  13.938  15.249 -0.0001 -0.0024  0.0713
14496W        W31343   4.283   9.602  14.857  0.1531 -0.0949 -0.1762
14497W        W31344  12.220   3.008   1.532  0.3441  0.1747 -0.0382
14498W        W31345   4.008  11.787  11.403  0.1080 -0.1515 -0.2625
14499W        W31346   6.004  13.589   0.837  0.1057 -0.0504 -0.1301
14500W        W31347   1.675   6.944  14.513 -0.2723  0.1174 -0.1367
14501W        W31348   6.650  10.478   1.781  0.1348 -0.0142  0.3156
14502W        W31349   5.154   7.698  11.130 -0.0969 -0.2103 -0.1478
14503W        W31350   6.872   2.225  12.997 -0.1381 -0.0497 -0.0343
14504W        W31351   8.505  11.073   2.519  0.0468  0.1910  0.1311
14505W        W31352   4.114  18.483   1.504 -0.0379  0.1439 -0.2053
14506W        W31353  12.759   1.482  15.646 -0.4949  0.1574 -0.0094
14507W        W31354   0.368   2.771  11.339  0.2708  0.0033  0.5451
14508W        W31355  18.003   6.632  15.299 -0.0800 -0.2531  0.1811
14509W        W31356  16.159   8.395  13.655 -0.1539  0.0519 -0.0249
14510W        W31357   9.216  16.272  10.432  0.0683 -0.3904 -0.0241
14511W        W31358  10.154  15.020  15.201  0.0191 -0.0793 -0.0567
14512W        W31359  16.941   0.454   3.231 -0.1627  0.2562 -0.1464
14513W        W31360   9.212  16.695  14.904 -0.1764 -0.1969 -0.3231
14514W        W31361  16.146   9.864   2.377  0.0503  0.0136 -0.0692
14515W        W31362   1.619   1.656   3.333 -0.1149 -0.1658 -0.0694
14516W        W31363   2.578   3.029   5.351 -0.2091  0.0770 -0.2029
14517W        W31364   2.749   4.741   0.462 -0.0930  0.0268 -0.1264
14518W        W31365   2.561  11.246   1.108  0.3186 -0.0976 -0.1700
14519W        W31366   0.008  10.110  11.505 -0.0472 -0.2917 -0.0181
14520W        W31367   7.783  18.560  10.616 -0.1577  0.0176  0.2532
14521W        W31368   4.914   2.715   0.083 -0.0326  0.1991 -0.0723
14522W        W31369  13.540  16.835   0.929 -0.2272 -0.1081  0.1839
14523W        W31370   7.372   9.093  14.700  0.0951 -0.1495 -0.2212
14524W        W31371  15.124  12.814  12.187 -0.3490 -0.2095  0.3030
14525W        W31372  15.049   7.352   3.423  0.0349  0.1344  0.0070
14526W        W31373   8.888  14.013   2.323  0.0406 -0.0442  0.0222
14527W        W31374   9.017   2.092  12.987  0.0937 -0.2876 -0.1650
14528W        W31375   4.542   8.803  13.550 -0.0561  0.0919  0.0956
14529W        W31376  12.010  17.876   5.034  0.2163  0.3357  0.6698
14530W        W31377   0.150   6.387   3.170 -0.3086 -0.1126 -0.0188
14531W        W31378  17.521   6.978   1.829 -0.0235  0.1652  0.1517
14532W        W31379  12.868   0.621  14.189 -0.0996  0.0346  0.1855
14533W        W31380  12.391  17.942   2.917 -0.0497 -0.1741  0.1308
14534W        W31381  13.780   6.701   1.319  0.0784 -0.0336  0.4029
14535W        W31382   0.178   3.201  13.450 -0.4546 -0.1198 -0.0129
14536W        W31383   9.913  11.055  11.425  0.1596 -0.0003 -0.0357
14537W        W31384  14.258  17.841  13.745 -0.2220  0.2582  0.1737
14538W        W31385  10.638  12.902   1.378  0.2964  0.2127  0.0351
14539W        W31386   4.792  16.852  14.998 -0.1761  0.0408 -0.2064
14540W        W31387  11.651  18.163   2.930 -0.1149  0.1563  0.0334
14541W        W31388   8.331   8.274   2.165  0.1620  0.0216  0.0404
14542W        W31389  15.041   2.667   1.719  0.0094 -0.0770 -0.2009
14543W        W31390  10.370  14.107   4.031 -0.0224  0.1407  0.0198
14544W        W31391   0.066  11.346  12.622  0.3032 -0.1724 -0.0164
14545W        W31392   8.252   8.745  14.661 -0.0108 -0.0283 -0.0777
14546W        W31393   8.542  16.716   4.880 -0.0265 -0.0259  0.0250
14547W        W31394  10.015   6.298   5.384  0.0801 -0.0902  0.0261
14548W        W31395   9.872  10.164  13.840 -0.0795 -0.0723 -0.3517
14549W        W31396  10.542   1.886   1.776 -0.1112 -0.0200  0.0132
14550W        W31397   7.188  16.555  14.420  0.2097  0.0044 -0.1357
14551W        W31398  16.677  10.259  13.305  0.0575  0.2051 -0.2733
14552W        W31399  16.548   2.897  12.494 -0.0768 -0.0371 -0.0279
14553W        W31400  18.221  13.832   1.352 -0.2924 -0.0559 -0.3985
14554W        W31401   6.961   8.212  13.636  0.3884  0.3391 -0.2111
14555W        W31402   0.745  15.458   1.746 -0.2548  0.2485 -0.0957
14556W        W31403   7.114   1.746   0.108  0.2983  0.1773 -0.0110
14557W        W31404  14.485  17.239   1.645  0.2032 -0.0697  0.1438
14558W        W31405  16.707  17.442  14.526 -0.0164  0.0552 -0.0471
14559W        W31406   3.620  10.524  14.388 -0.2702  0.2082  0.0162
14560W        W31407   4.128   7.077  11.289 -0.3326  0.0749  0.1496
14561W        W31408   7.403  15.078   1.993  0.0940  0.0701 -0.1262
14562W        W31409   1.038  15.396   1.277  0.0598  0.1646 -0.0208
14563W        W31410  11.344   8.120   3.069  0.1896 -0.0211 -0.2143
14564W        W31411   3.608   0.676  11.708 -0.0424  0.0325 -0.1394
14565W        W31412  12.198  14.930  12.012  0.1299 -0.2325  0.0454
14566W        W31413   5.723  14.544   4.178  0.2706 -0.0064 -0.0819
14567W        W31414  16.843  16.915   4.688 -0.1183  0.0560  0.0916
14568W        W31415   3.638   6.161  13.056 -0.2852  0.0683  0.0906
14569W        W31416   1.804   1.682  11.615  0.1182  0.0639 -0.1063
14570W        W31417   6.444  13.128   3.087  0.0713  0.2179  0.0445
14571W        W31418  16.431  14.438   0.340 -0.3906  0.0514 -0.0350
14572W        W31419   3.929  15.102  11.291 -0.4239  0.1018  0.0913
14573W        W31420   0.310  17.570  14.918 -0.0320 -0.0101  0.1455
14574W        W31421   8.192  16.681   5.360 -0.2117 -0.5144  0.0517
14575W        W31422  17.202   0.805   3.434  0.2015  0.3638 -0.1676
14576W        W31423   9.011   9.509   4.919 -0.0908  0.0108  0.1032
14577W        W31424   0.990  11.706  12.900 -0.2070  0.2235  0.1710
14578W        W31425  17.068   3.286   3.800  0.2748  0.1684  0.0978
14579W        W31426   5.438   9.847  11.740  0.1535  0.1762 -0.0892
14580W        W31427  14.010   0.559  13.936 -0.0018 -0.0944  0.3566
14581W        W31428   9.511   7.242   0.658  0.0758 -0.3748 -0.0978
14582W        W31429   0.012   1.371   2.412 -0.2056  0.3835 -0.0105
14583W        W31430   4.318  13.034   1.360 -0.0716 -0.0349 -0.1953
14584W        W31431   7.733   5.512  14.852  0.2052  0.0209 -0.4189
14585W        W31432   2.151   6.579  14.127  0.2667 -0.1796  0.0555
14586W        W31433  17.013   8.629  11.611  0.2094 -0.3574  0.0586
14587W        W31434   9.373   4.569   3.702  0.2130  0.2746 -0.0439
14588W        W31435  14.039   6.634   0.601  0.1215 -0.0895 -0.1213
14589W        W31436   7.793   3.390  11.540 -0.0388  0.2584 -0.4807
14590W        W31437   4.607  13.880  10.320  0.0352 -0.0765 -0.0323
14591W        W31438  18.210  10.940  15.623  0.0452 -0.1130  0.1909
14592W        W31439   9.741   3.607  15.293 -0.1341 -0.1741  0.1060
14593W        W31440  10.628  18.447  11.512  0.0392 -0.3380  0.1584
14594W        W31441   1.080  15.630  13.880 -0.2200  0.0011 -0.0034
14595W        W31442  12.813  12.383   4.778  0.1007  0.1580  0.0147
14596W        W31443  12.792  17.226   2.991  0.1807  0.1497 -0.0748
14597W        W31444   5.590   9.642   4.579  0.1508  0.1535 -0.0633
14598W        W31445  16.108  11.118  14.789  0.3813 -0.2311 -0.0201
14599W        W31446   0.627   8.780   2.300 -0.2641 -0.3723 -0.2828
14600W        W31447   6.407  10.622  12.031  0.0910 -0.0765 -0.1106
14601W        W31448  10.797  14.109  13.695  0.1601 -0.2382  0.0826
14602W        W31449   0.219  13.390  11.786  0.3680  0.0740 -0.1257
14603W        W31450  15.418  18.391  11.758  0.0144 -0.0122  0.0090
14604W        W31451   0.869   7.405  14.207 -0.0866  0.0665  0.1591
14605W        W31452   2.371   6.848   2.351 -0.1515  0.2218  0.1389
14606W        W31453   7.912  18.530  15.010  0.2282 -0.0641 -0.3989
14607W        W31454  17.355  12.148  13.364  0.0963  0.1671 -0.1568
14608W        W31455  16.415   0.890   1.501 -0.4122 -0.2342  0.0082
14609W        W31456   2.703  16.056   2.235  0.0625  0.2220  0.0617
14610W        W31457   8.847  18.026   2.271  0.0593 -0.2393  0.1002
14611W        W31458  12.488   0.137  11.113  0.0429  0.0901 -0.0578
14612W        W31459   4.395   1.266   5.590 -0.1681  0.1279  0.1762
14613W        W31460   4.646  14.166  12.627 -0.1688  0.2027  0.1636
14614W        W31461   0.943   9.829   2.827 -0.0960  0.2473 -0.3626
14615W        W31462  10.550   5.117  14.520  0.0708  0.1301 -0.0482
14616W        W31463   1.700   8.032   4.809  0.3135  0.0850  0.1410
14617W        W31464  17.890  11.109   5.909  0.2219 -0.1965  0.0778
14618W        W31465  16.854  11.866  11.516  0.0834  0.0808 -0.0017
14619W        W31466   6.180  15.357   3.143  0.1190  0.0610 -0.1642
14620W        W31467  14.809  13.177   0.338 -0.2741 -0.1447  0.0028
14621W        W31468  12.405  12.193   0.301 -0.2877  0.2707  0.2609
14622W        W31469  10.331   0.377   2.041 -0.1463  0.1121  0.4204
14623W        W31470  16.767  14.255   2.390 -0.1539 -0.2058  0.0099
14624W        W31471  17.607  11.149   2.793  0.0829 -0.4283 -0.0165
14625W        W31472  11.293   4.419   2.663 -0.1108  0.1027 -0.1610
14626W        W31473   5.988  17.653   4.185  0.1890 -0.1343  0.1219
14627W        W31474   9.108   6.425  14.391  0.3319 -0.1952 -0.0649
14628W        W31475   6.569  11.386  13.213  0.1541  0.0267 -0.2361
14629W        W31476   6.251   7.969   3.195  0.4339  0.0753 -0.1973
14630W        W31477  18.301  10.370  12.575 -0.2456 -0.0804  0.2529
14631W        W31478   2.503  17.404  13.250 -0.0115  0.0753  0.0285
14632W        W31479   5.701   5.131  11.235  0.6768  0.1563 -0.2939
14633W        W31480   7.962   6.474   3.136 -0.1145 -0.0603 -0.1100
14634W        W31481  11.588   0.980   3.873  0.0755 -0.1970  0.1108
14635W        W31482  17.380  18.007   0.516 -0.0466 -0.2225  0.0433
14636W        W31483   1.405   9.846  11.482 -0.4493 -0.0253  0.2741
14637W        W31484  16.883  10.389   2.549 -0.2077 -0.0831  0.0387
14638W        W31485   4.231   2.329   5.504  0.1833 -0.0333  0.0001
14639W        W31486  13.567   3.459  13.545  0.2062 -0.0730  0.0830
14640W        W31487   7.640  12.741   2.611 -0.1468 -0.0535 -0.2441
14641W        W31488   9.854  15.277  13.597  0.0164 -0.0269  0.3050
14642W        W31489  15.639   1.271  11.472  0.2928 -0.0693 -0.0769
14643W        W31490   3.172   3.906  12.043 -0.1175 -0.0257 -0.0739
14644W        W31491   6.185   2.308  13.771 -0.0499  0.2744  0.1688
14645W        W31492   8.999   0.222  13.889 -0.1952 -0.2109 -0.3214
14646W        W31493  17.251  18.100  15.064 -0.1354  0.1913 -0.2507
14647W        W31494  15.619  14.463   1.779  0.2023 -0.1226 -0.2422
14648W        W31495   4.197   5.215  12.778  0.1467  0.2028 -0.2166
14649W        W31496  12.658  11.993   3.737 -0.0385 -0.0995  0.0698
14650W        W31497   1.537  11.852   2.895 -0.0179 -0.4012 -0.0263
14651W        W31498   8.052  13.804  10.732 -0.3475  0.0673  0.0755
14652W        W31499   1.826  18.215  13.242  0.1112 -0.2596  0.1810
14653W        W31500  11.365   3.227   1.801 -0.0977 -0.0216  0.1338
14654W        W31501   4.978   1.105  12.114  0.0041  0.0868  0.0810
14655W        W31502   5.048   9.130  12.570 -0.0735  0.2085 -0.1166
14656W        W31503  16.906  15.224  12.550 -0.1395  0.0261  0.1245
14657W        W31504  17.134   5.189   5.738  0.3674  0.0354  0.1198
14658W        W31505   3.374  15.066  11.268  0.0035 -0.0446 -0.0132
14659W        W31506   0.575  18.858   3.376 -0.1412  0.1472 -0.0415
14660W        W31507   9.013   3.031  15.246 -0.1482  0.1740 -0.2193
14661W        W31508  15.465   2.628  11.126  0.1638  0.0706 -0.0682
14662W        W31509   3.152  12.761  14.334 -0.3069 -0.0987  0.2067
14663W        W31510   2.754   2.211   4.944 -0.0426 -0.0638  0.1231
14664W        W31511  14.564   0.881   0.438  0.2316 -0.3580  0.1848
14665W        W31512   7.791  12.161  11.845 -0.0759  0.4160 -0.0240
14666W        W31513  16.240   3.160  11.166 -0.0473  0.1671  0.2667
14667W        W31514   0.119   4.611   3.214 -0.0040 -0.3230  0.2285
14668W        W31515   7.143  15.441   4.733 -0.0774  0.1161 -0.0014
14669W        W31516  17.083  13.883  12.430  0.2932  0.0222 -0.0514
14670W        W31517  14.323  17.947   5.084 -0.3543 -0.0536  0.1533
14671W        W31518  14.415   7.240  12.336 -0.0137 -0.0648 -0.0253
14672W        W31519  12.397  11.965  12.569 -0.3481 -0.2114  0.1324
14673W        W31520   2.103  18.817   3.738 -0.2028 -0.3680 -0.1220
14674W        W31521  16.682   0.383  11.526 -0.1163 -0.0193 -0.3786
14675W        W31522   9.880   6.845  14.213  0.0424 -0.2512 -0.0356
14676W        W31523  17.770   5.372  14.637  0.3201 -0.0748  0.0599
14677W        W31524  12.920   9.700  14.118 -0.1348  0.0325  0.2273
14678W        W31525  12.124   5.521   1.578  0.2061  0.0835  0.1998
14679W        W31526  18.615   8.863   2.588 -0.2153 -0.0134 -0.1494
14680W        W31527  15.523  10.150   5.438 -0.0871 -0.0799 -0.0524
14681W        W31528  12.752  15.043  14.596  0.0306  0.2825 -0.1728
14682W        W31529  11.961   1.186  15.230 -0.0578 -0.1228  0.0247
14683W        W31530  15.143  17.509   5.354 -0.2229  0.3612  0.0094
14684W        W31531   7.093  16.355   0.379 -0.1898  0.0329  0.1559
14685W        W31532   4.242  17.455   3.240  0.0652 -0.2500 -0.1869
14686W        W31533   4.863  11.468  11.516  0.1065  0.3275 -0.1365
14687W        W31534   8.014  11.041  10.667  0.3121  0.0626  0.1276
14688W        W31535  17.588   6.245   0.928  0.0721  0.2345  0.2480
14689W        W31536   7.816   6.877   4.461  0.2971  0.0119  0.0056
14690W        W31537  11.896   8.184  10.939 -0.3961  0.0987  0.0864
14691W        W31538  14.528   2.670  15.672 -0.1180 -0.0888 -0.0178
14692W        W31539  15.268  14.612   1.404 -0.1377 -0.2777 -0.1894
14693W        W31540  12.081   3.860   4.554 -0.1359  0.0983  0.1663
14694W        W31541  12.333  14.296  14.300 -0.2119  0.0245  0.3525
14695W        W31542  12.522  18.515  14.913  0.2223 -0.0823 -0.0400
14696W        W31543   5.919  10.885   0.418 -0.0174 -0.1421  0.2551
14697W        W31544  16.038  15.419   0.606  0.1938  0.1333  0.4348
14698W        W31545   1.717   1.419   2.870 -0.2502 -0.0318  0.0895
14699W        W31546   8.218   5.549   3.096 -0.1534  0.0214 -0.5521
14700W        W31547  14.487  18.746   5.721 -0.0219 -0.2306 -0.1961
14701W        W31548  17.703  13.925   4.801 -0.1825 -0.0572  0.0001
14702W        W31549   9.623   8.266   4.180  0.2806 -0.2054  0.0781
14703W        W31550  13.227  16.791  15.596  0.1096 -0.1328  0.2256
14704W        W31551   1.656   1.690   0.357 -0.2622 -0.1497  0.1697
14705W        W31552   1.421   0.048   1.936 -0.0759 -0.0036 -0.3992
14706W        W31553   2.561  14.044  13.600  0.1115 -0.1882  0.2613
14707W        W31554   2.515  13.611  13.974  0.1391 -0.0496 -0.3106
14708W        W31555   5.327  14.369   4.365  0.0852  0.1140 -0.0338
14709W        W31556   2.248   7.126  15.664  0.0697 -0.2053  0.0889
14710W        W31557  16.352   0.765   3.428 -0.1339 -0.0505  0.2912
14711W        W31558   5.471   5.953   3.375 -0.0412 -0.1378  0.0412
14712W        W31559  15.406  15.769  11.230 -0.1472  0.0622 -0.0606
14713W        W31560   1.786   7.873   4.025 -0.0655 -0.0742  0.5530
14714W        W31561   4.057  14.492  14.577  0.1876 -0.1324 -0.0163
14715W        W31562   0.902   1.721   2.298 -0.2241  0.1375 -0.3088
14716W        W31563  12.903   7.852   3.390  0.0446 -0.1869  0.1069
14717W        W31564   2.444   6.148  11.217  0.1101  0.3046 -0.2435
14718W        W31565  15.160   0.442   2.083 -0.0199  0.2211 -0.0808
14719W        W31566  12.635   4.961  13.988  0.0386 -0.3849  0.0015
14720W        W31567  16.452   1.262   3.611 -0.0742 -0.0302  0.3325
14721W        W31568   0.817   7.872   5.110  0.3078  0.0873 -0.0330
14722W        W31569   9.747  12.473  13.019 -0.2230  0.0751  0.1066
14723W        W31570  12.614  10.051  13.857  0.0030 -0.1350  0.1627
14724W        W31571   7.768   6.937  14.948  0.2225  0.2236 -0.0758
14725W        W31572   1.810  10.750  13.593  0.0961  0.3645  0.0929
14726W        W31573  16.387   1.235   2.604  0.0482 -0.1796  0.1122
14727W        W31574   3.475   5.650  12.974  0.3284 -0.1721 -0.0900
14728W        W31575   7.644  15.548  13.323  0.0346  0.0506 -0.1784
14729W        W31576   9.944  16.007  12.744  0.1344  0.1174 -0.1142
14730W        W31577   9.924  14.611   5.093  0.1953  0.0209  0.2921
14731W        W31578  16.705  15.327  14.538 -0.0185 -0.1093 -0.2805
14732W        W31579   8.326   0.014  14.826 -0.1051 -0.1575  0.0634
14733W        W31580  17.855  14.975   2.940 -0.1502  0.0272  0.0834
14734W        W31581   1.837  18.267  12.701 -0.0590 -0.1498 -0.3766
14735W        W31582  10.785   9.883  10.732 -0.0573  0.0927 -0.0690
14736W        W31583   5.427  10.137   0.011 -0.1350 -0.2422 -0.2529
14737W        W31584   8.522  12.954  14.738  0.0867 -0.2996  0.4657
14738W        W31585   2.678  13.637   1.740 -0.2336  0.1112 -0.2461
14739W        W31586  10.622  18.849   2.671  0.0849  0.1052  0.4001
14740W        W31587   2.031   8.117   2.668 -0.2151  0.0985  0.2395
14741W        W31588  16.645  14.027  15.763 -0.1194 -0.0922 -0.0789
14742W        W31589  17.696  12.399   5.228 -0.1908  0.1383  0.0659
14743W        W31590  14.475   1.557   4.590 -0.0461  0.1645 -0.4212
14744W        W31591   3.384   8.461   0.841  0.1112  0.0243 -0.0327
14745W        W31592   0.495   5.068   5.277 -0.1363 -0.3574 -0.2832
14746W        W31593   7.342  12.399   4.920  0.1303 -0.0454  0.1238
14747W        W31594   8.950  17.913  14.327 -0.0433  0.0196  0.1395
14748W        W31595   6.911   2.509  11.794  0.1925 -0.4064  0.0968
14749W        W31596  12.713   0.231  14.654  0.3978 -0.0644 -0.1955
14750W        W31597   5.217  17.971   3.555 -0.0651 -0.1131  0.0900
14751W        W31598   1.293  12.015   3.512 -0.1058  0.1340  0.0701
14752W        W31599   6.679   0.880  11.237 -0.0435 -0.2142  0.0548
14753W        W31600  16.962   1.316  14.070 -0.0178  0.0676  0.4473
14754W        W31601  14.964  11.876  15.128 -0.1788 -0.1059 -0.1040
14755W        W31602  10.556  13.155   3.413 -0.1455  0.0920 -0.1118
14756W        W31603   0.240   0.946   3.036  0.1245  0.0659 -0.1986
14757W        W31604  15.135  13.578   0.386 -0.0589 -0.1862 -0.1479
14758W        W31605   0.829   6.290   0.560 -0.0598  0.0044 -0.1007
14759W        W31606   0.095  18.416  10.450 -0.0277 -0.1616 -0.2008
14760W        W31607  12.193   3.061  12.296  0.2226 -0.2815  0.1082
14761W        W31608   4.561   8.528  12.030 -0.0825  0.3165 -0.0553
14762W        W31609   7.612  11.327   4.332  0.2593  0.0609 -0.1913
14763W        W31610  12.695   3.058   4.289 -0.0805  0.0021 -0.1259
14764W        W31611   9.035  17.674   2.552  0.0068 -0.2637 -0.2066
14765W        W31612   2.711   1.312  12.931  0.3242 -0.2146 -0.2625
14766W        W31613  16.159  12.956   2.332 -0.0768  0.3203  0.0475
14767W        W31614  16.782  17.504  12.797  0.0206 -0.1638  0.2103
14768W        W31615  18.496   6.946   1.910  0.1087 -0.1313 -0.0664
14769W        W31616   7.670  10.627   1.460 -0.1426  0.5001 -0.1259
14770W        W31617   8.238  11.789   2.248  0.0510  0.0760 -0.2942
14771W        W31618  10.528  15.254  10.573  0.3808 -0.0179 -0.1956
14772W        W31619   8.036   0.396   0.920  0.3033  0.0681  0.0397
14773W        W31620   4.323   5.218   5.264  0.1093  0.1376  0.0243
14774W        W31621  11.168  13.275   0.007 -0.0400 -0.0651 -0.1634
14775W        W31622   2.350   4.144   3.387  0.3488  0.0800 -0.0174
14776W        W31623  10.752   4.840   4.767 -0.1754 -0.1409 -0.1838
14777W        W31624   9.463   6.549  14.052 -0.4050  0.0089  0.0645
14778W        W31625   1.980   1.649  13.263 -0.1621  0.2056 -0.0522
14779W        W31626  13.693   0.032   4.729 -0.3111  0.2213  0.0173
14780W        W31627  11.845  17.508  14.573 -0.0112 -0.0395 -0.1082
14781W        W31628   2.389  14.081   9.793  0.1530 -0.1190  0.2548
14782W        W31629  17.698  14.625  10.854  0.1842 -0.0863  0.1948
14783W        W31630   3.187  11.730   4.198 -0.4725 -0.1785  0.4056
14784W        W31631  14.581   6.935   3.556  0.3648  0.0326 -0.0911
14785W        W31632  16.840   0.166  13.992  0.2028  0.1135  0.2323
14786W        W31633  15.091   9.201  10.895  0.1595  0.2378 -0.4134
14787W        W31634   4.331   2.163   2.715  0.0034 -0.2022  0.4283
14788W        W31635   8.180   8.433  12.766 -0.2550  0.1313 -0.3691
14789W        W31636  12.351  18.795   4.283  0.1234  0.0911  0.1171
14790W        W31637   6.256   8.049  13.790 -0.0278  0.0380  0.3319
14791W        W31638   5.370   4.350   4.415 -0.4663 -0.1776 -0.2738
14792W        W31639   4.007  10.132  13.569  0.0610  0.0957 -0.1558
14793W        W31640  16.949  15.702  15.110  0.1201 -0.3304 -0.0492
14794W        W31641  15.667   6.533   4.251 -0.0203 -0.1995  0.4896
14795W        W31642  17.702   0.582   0.549 -0.1436 -0.3304 -0.0550
14796W        W31643  17.625  18.850   1.792  0.4207  0.0058 -0.3513
14797W        W31644  10.669  17.481  11.178  0.0948 -0.0291 -0.2416
14798W        W31645   2.031  14.233   2.734  0.0818 -0.1964  0.1496
14799W        W31646  15.603   8.149   1.455 -0.2363 -0.2052 -0.0459
14800W        W31647   8.607   2.114   3.825  0.1490  0.1442  0.2178
14801W        W31648  18.753  13.700   2.000  0.0552 -0.2218  0.2379
14802W        W31649   8.414   2.800   3.434  0.2530  0.0492  0.4469
14803W        W31650   9.369   3.097  14.232 -0.0532  0.2704 -0.0569
14804W        W31651  13.091  11.735  14.475 -0.1078 -0.1750  0.0367
14805W        W31652   6.937   6.387   3.207 -0.2137 -0.1789 -0.0482
14806W        W31653   7.205   8.686  14.396 -0.4327 -0.1693 -0.2447
14807W        W31654  14.348   2.485  15.212 -0.0149  0.2701  0.1052
14808W        W31655   6.610  10.913  12.914  0.0752 -0.2631  0.2432
14809W        W31656   9.480  12.081  10.141  0.0583 -0.1409  0.2240
14810W        W31657   7.019   7.615   0.502 -0.2874  0.0579  0.2047
14811W        W31658   2.115   2.888   4.521  0.0652 -0.0417 -0.2184
14812W        W31659   1.770   7.503   5.000 -0.3920 -0.1442 -0.0107
14813W        W31660  10.657   6.109   4.492 -0.2491 -0.3945  0.1238
14814W        W31661   6.932   3.359   2.653 -0.0284  0.0034 -0.0069
14815W        W31662  18.484  10.779   0.356 -0.1070  0.2382  0.1613
14816W        W31663  15.785   4.784   5.276 -0.0021  0.0175  0.2914
14817W        W31664  16.603   7.994   3.680  0.3326  0.3940  0.2426
14818W        W31665   7.365   6.242  15.304 -0.2093 -0.0745  0.1081
14819W        W31666   9.031  16.896  12.014  0.0456 -0.0254  0.1317
14820W        W31667  17.488  16.505   0.396 -0.2282 -0.0487  0.3137
14821W        W31668   6.124  13.210   1.156  0.0207  0.0491 -0.0603
14822W        W31669  18.084   5.735  13.787 -0.0894 -0.1490 -0.0473
14823W        W31670  18.718   2.827  12.973 -0.2025 -0.3151  0.1299
14824W        W31671  18.302   5.473  14.553  0.0832 -0.2366 -0.1920
14825W        W31672   7.655   0.460  14.494 -0.0864 -0.4205 -0.0994
14826W        W31673  15.905  14.651   2.252 -0.1148 -0.0573  0.2385
14827W        W31674   4.342   5.132  12.230  0.0766 -0.1659  0.0717
14828W        W31675  15.377   2.179   5.165  0.2000  0.0672 -0.0486
14829W        W31676  12.517  12.659  15.774 -0.1255  0.1020  0.0924
14830W        W31677  18.462   4.989  14.744 -0.2860  0.0743  0.1139
14831W        W31678   9.036   0.767   3.078  0.2584  0.2204 -0.0692
14832W        W31679  18.301   1.417   2.568 -0.3025 -0.2210  0.0963
14833W        W31680  18.113   9.976   1.440  0.2255  0.1980  0.3935
14834W        W31681  13.663  13.584  13.807 -0.1202 -0.2332 -0.0697
14835W        W31682  14.408  17.046   4.182 -0.0315  0.3891  0.1197
14836W        W31683   4.100   0.131  12.828 -0.0764  0.2484  0.2682
14837W        W31684   9.970  14.358  14.210  0.2701  0.1766 -0.0326
14838W        W31685   1.228   5.840   4.392  0.1201 -0.1548  0.0507
14839W        W31686  16.038   8.579  14.145 -0.1080 -0.2101  0.1973
14840W        W31687  12.487  14.892   4.871 -0.0489  0.0026 -0.2289
14841W        W31688  16.006   2.813  14.920 -0.2457 -0.0664 -0.1527
14842W        W31689   0.564   4.877   2.423 -0.1363 -0.0220  0.0818
14843W        W31690   3.753  17.834  13.339  0.0188  0.0332 -0.1591
14844W        W31691   0.571   0.584  11.406 -0.0149  0.4159  0.2555
14845W        W31692  12.034  11.078  11.417 -0.1010 -0.0862 -0.3415
14846W        W31693  13.509  15.898   1.817  0.1558  0.2581 -0.0940
14847W        W31694   1.092   1.222   2.387 -0.1408  0.0289  0.0201
14848W        W31695   6.757  10.076  11.693 -0.2102  0.0159  0.2875
14849W        W31696  12.611   8.534  11.121  0.4118 -0.2534 -0.2401
14850W        W31697   4.145   7.528   2.282 -0.2708 -0.1163  0.1041
14851W        W31698  15.005  13.777   1.215  0.4737  0.1418 -0.1528
14852W        W31699   6.264  11.928  14.540  0.1098  0.1023 -0.1568
14853W        W31700  11.351   5.380  12.970  0.4036 -0.0851  0.1549
14854W        W31701   9.147   4.160  15.513 -0.0536  0.0997 -0.0326
14855W        W31702  17.379   2.323  13.585 -0.2981  0.0967 -0.1564
14856W        W31703  11.636   1.504  15.544 -0.2571  0.0867  0.0178
14857W        W31704  18.692   5.952   4.597  0.3474 -0.1481 -0.0132
14858W        W31705   4.271  13.048   0.031  0.1755 -0.0704  0.0295
14859W        W31706   8.751   6.572   4.794 -0.1455 -0.0099 -0.3914
14860W        W31707   5.469  16.411   4.976 -0.2124 -0.1219 -0.1445
14861W        W31708   0.778   7.438   1.035 -0.2228 -0.0201 -0.0626
14862W        W31709  18.271  16.168   0.335 -0.2439  0.1166  0.1245
14863W        W31710  17.378  13.814  11.178  0.1145 -0.0580 -0.0084
14864W        W31711   3.146  16.370  14.308 -0.1672  0.2542  0.0104
14865W        W31712   1.443   9.908  14.138 -0.1991  0.0388  0.1857
14866W        W31713   4.676   9.257  14.768 -0.0750  0.2671 -0.0717
14867W        W31714   0.480  15.642   2.592  0.2027  0.2984 -0.0509
14868W        W31715  10.724   1.714   4.163 -0.2796  0.1140  0.3324
14869W        W31716  11.461  17.519  10.498 -0.2882 -0.2160  0.2721
14870W        W31717   9.464   2.098  12.739  0.0521  0.0937 -0.2440
14871W        W31718  18.162  14.157  11.752  0.0555  0.0857  0.2099
14872W        W31719   9.391   3.396  15.572 -0.0067 -0.0335  0.0963
14873W        W31720  14.263  13.129   2.914  0.4107 -0.0319 -0.2848
14874W        W31721   9.192  11.311  13.658 -0.0784  0.0263 -0.1270
14875W        W31722   5.605  18.370  12.945  0.0230  0.2802 -0.1014
14876W        W31723  16.696   5.910  13.980  0.0404  0.1165  0.5100
14877W        W31724  11.087   2.702   1.955  0.1476  0.2226 -0.1260
14878W        W31725   4.369   7.337   3.174  0.2368 -0.0686 -0.0497
14879W        W31726  15.854   4.648  12.910  0.0606  0.1093 -0.0749
14880W        W31727  15.630  16.718   5.831 -0.0632  0.0942 -0.0214
14881W        W31728  17.835  13.078  12.594  0.0852 -0.2690 -0.1644
14882W        W31729  11.915   6.419   4.943  0.1738 -0.0025 -0.2814
14883W        W31730   8.976   3.406  13.873  0.0388  0.0066 -0.1568
14884W        W31731   6.374  17.404   3.101 -0.1235  0.2280  0.1187
14885W        W31732  10.445   2.624   3.940  0.1822  0.0783  0.2322
14886W        W31733  18.810  11.725   4.999 -0.0243  0.0613 -0.4158
14887W        W31734   6.349  17.670   2.675 -0.1021  0.0849 -0.0421
14888W        W31735   4.638  18.521   3.682 -0.0724  0.1132  0.1024
14889W        W31736   1.675   6.902  15.113 -0.3323 -0.2170  0.1335
14890W        W31737  12.483   9.233   1.745 -0.0914  0.1549 -0.0186
14891W        W31738  13.568  14.339   0.824 -0.0931 -0.1552 -0.1158
14892W        W31739   2.854   4.297  14.882 -0.1690  0.1311  0.1607
14893W        W31740   8.229   1.911   0.978  0.2071  0.3809  0.0737
14894W        W31741   2.702   5.710  14.395 -0.0173  0.2292  0.3667
14895W        W31742  13.402  10.961   0.166  0.1245  0.1524  0.0748
14896W        W31743   5.786   1.057   4.083 -0.5085  0.2153  0.1994
14897W        W31744   4.926  11.523   0.541 -0.2772 -0.0046  0.1032
14898W        W31745   1.091   0.897   5.713 -0.0252  0.1608  0.0805
14899W        W31746   3.983   3.630   1.784 -0.2459 -0.0557  0.2461
14900W        W31747   8.095  12.812  15.484 -0.3097 -0.0938  0.1118
14901W        W31748  16.765  12.639  15.101  0.1385  0.2769  0.2010
14902W        W31749  15.202   6.462   3.159 -0.0923 -0.1613 -0.0605
14903W        W31750   3.890  14.960  14.296 -0.0686  0.0473 -0.0665
14904W        W31751  18.064  11.550  11.512  0.2473  0.0534 -0.0134
14905W        W31752   2.479   8.330   1.525  0.1540  0.2570  0.3361
14906W        W31753   4.932   2.818   3.068 -0.0016  0.2223  0.0723
14907W        W31754  11.367   9.059  11.763  0.1454  0.0378  0.0836
14908W        W31755   6.597   0.206  15.168 -0.2512  0.3293 -0.0584
14909W        W31756   0.559  17.178  15.029 -0.0453  0.2035 -0.0095
14910W        W31757  17.993   8.294   1.596 -0.0412  0.0315 -0.0121
14911W        W31758   7.654  13.552   1.130  0.0164 -0.2370  0.0365
14912W        W31759   8.503   4.700   1.843  0.2953 -0.0272 -0.3341
14913W        W31760   5.701   5.889  13.898  0.0824 -0.2725  0.2074
14914W        W31761   3.206   0.953   0.887 -0.2196  0.0776 -0.1906
14915W        W31762  15.115  17.040  15.215 -0.2994 -0.0117  0.0342
14916W        W31763  18.304  16.696   2.353 -0.0842  0.0715  0.3288
14917W        W31764  10.774   4.796   3.875 -0.1193  0.0648 -0.3241
14918W        W31765   8.088  10.422  13.025 -0.2075  0.2528 -0.0460
14919W        W31766   4.683  10.763  15.735  0.2314  0.1621  0.1535
14920W        W31767  10.473   7.980   2.765  0.3916  0.2249 -0.0702
14921W        W31768   0.383   3.568  13.725 -0.1814 -0.2458 -0.2719
14922W        W31769  12.832   9.471   1.302 -0.0723 -0.1512  0.2329
14923W        W31770   4.004  16.203   1.016  0.1558  0.3419  0.0314
14924W        W31771  15.004  16.432   1.916 -0.2206  0.1933 -0.1987
14925W        W31772  12.935   6.102  14.653 -0.2339  0.2936 -0.0418
14926W        W31773  17.655  16.736  15.083 -0.4594  0.0001 -0.1593
14927W        W31774   4.474   6.294   4.933  0.0914 -0.2029  0.1183
14928W        W31775  18.476  11.037   3.811  0.0879  0.3788  0.0159
14929W        W31776   5.025  12.743  14.060 -0.0931 -0.0867 -0.3782
14930W        W31777  18.635   5.707   5.066 -0.1704 -0.0742  0.0481
14931W        W31778   8.328  11.319   3.509  0.0735  0.1348 -0.3935
14932W        W31779   7.227  17.149  14.601 -0.3753  0.2949  0.0713
14933W        W31780   8.658   5.958   2.845  0.0704 -0.1229 -0.1751
14934W        W31781  17.229   0.198   1.241  0.0356  0.1636 -0.1210
14935W        W31782   6.099  17.105   0.779 -0.1581  0.0248 -0.1826
14936W        W31783  10.818   0.958  12.315 -0.1855 -0.1121 -0.0501
14937W        W31784  15.996  17.400  11.000 -0.1226  0.0095  0.0595
14938W        W31785   6.660  13.161  15.328  0.2529 -0.1304 -0.2221
14939W        W31786   4.133   5.125  11.774 -0.0563  0.2449  0.1654
14940W        W31787   9.934  11.878  10.250  0.1447  0.1458 -0.1567
14941W        W31788   3.876  14.846  10.679  0.0812  0.1845 -0.1946
14942W        W31789   4.422  12.563   3.284 -0.0543  0.0145  0.1812
14943W        W31790   3.308  13.414   4.713  0.0188 -0.1303  0.1441
14944W        W31791   5.120   5.746  11.253 -0.1447 -0.1063 -0.0195
14945W        W31792   4.587  16.666  12.932  0.1120 -0.1475  0.2970
14946W        W31793   6.649  15.149  11.476  0.0258 -0.1770 -0.3113
14947W        W31794   4.522   0.578   1.792  0.0990  0.3163 -0.2251
14948W        W31795   3.446   1.134   5.379 -0.3494 -0.2274  0.0824
14949W        W31796  10.418   0.817   1.084 -0.1907  0.0636  0.0307
14950W        W31797  17.781  12.411  14.197 -0.1814  0.1907  0.2350
14951W        W31798   0.159  17.498  12.746 -0.0024 -0.0984 -0.1927
14952W        W31799   5.557   0.794  14.743 -0.2563 -0.1281  0.0256
14953W        W31800   8.804   4.518  14.097  0.0531  0.1643  0.2175
14954W        W31801   5.004  16.517   1.449 -0.0486 -0.1069  0.0141
14955W        W31802   6.523  12.504   0.751  0.1951 -0.2291  0.3851
14956W        W31803  17.875   1.404   0.447  0.0610  0.0581 -0.3106
14957W        W31804   4.613  12.692  12.443  0.2111  0.0312 -0.1536
14958W        W31805   0.311   8.733   1.948 -0.3270 -0.0869 -0.1310
14959W        W31806  17.920  18.603  11.402  0.2404  0.3810 -0.0627
14960W        W31807  16.162  14.772   4.471  0.1120  0.1950  0.0150
14961W        W31808   8.397  18.033   1.618 -0.0733 -0.2008 -0.5048
14962W        W31809   4.099   3.981   3.618 -0.5934  0.0556 -0.0371
14963W        W31810  11.077   3.528   1.433  0.0863 -0.0491  0.5390
14964W        W31811  13.649  10.218  11.227 -0.0099 -0.2083 -0.0700
14965W        W31812   7.898  11.579   1.393  0.0219 -0.2332  0.0092
14966W        W31813  12.204   9.324   4.984  0.1129 -0.0139 -0.0231
14967W        W31814   4.097  17.305  15.663 -0.2237 -0.1875  0.1194
14968W        W31815  16.498   5.977   5.011 -0.1673  0.0610  0.1409
14969W        W31816   3.545   6.694   1.273  0.1240 -0.0882 -0.3061
14970W        W31817  16.345   3.098   1.640  0.2182 -0.0352  0.3877
14971W        W31818  10.829   0.384   0.939  0.0379 -0.0697  0.1831
14972W        W31819  16.232   0.443   3.994 -0.3363  0.0533 -0.0326
14973W        W31820   2.767  10.763   1.061 -0.4439 -0.0971  0.2498
14974W        W31821  11.037   5.882  14.592  0.1721 -0.1708  0.3963
14975W        W31822   5.425  18.550  14.151 -0.2405 -0.3477 -0.0004
14976W        W31823  15.790  17.502   4.676 -0.0324  0.1163 -0.1058
14977W        W31824  15.113  13.845   4.046  0.1694 -0.1551 -0.1244
14978W        W31825  10.119  14.412   2.439 -0.1334  0.2232 -0.1504
14979W        W31826   8.237  16.692   2.071 -0.0416 -0.2225 -0.1086
14980W        W31827  11.260  14.146  13.044 -0.4731 -0.0070  0.1881
14981W        W31828   6.809  16.454  15.269 -0.0231  0.2402 -0.1022
14982W        W31829   5.596  13.717  12.402 -0.1154  0.1280 -0.2970
14983W        W31830   6.482  16.270   2.935  0.1416 -0.1282  0.1160
14984W        W31831  17.483   8.692  13.556 -0.2941 -0.0001 -0.0050
14985W        W31832   6.507  16.097  12.884  0.0018  0.1902 -0.1289
14986W        W31833   2.039  13.013   5.518  0.2597 -0.0174 -0.1159
14987W        W31834   7.286   4.645  13.063 -0.0042  0.1093 -0.2753
14988W        W31835   1.557   9.420   0.070  0.2272 -0.0886 -0.2855
14989W        W31836   0.877  17.783  13.727 -0.3863 -0.2092 -0.1325
14990W        W31837   2.823   7.698  13.938  0.0911 -0.0305 -0.1591
14991W        W31838  13.280  12.923   4.840  0.2288  0.0620 -0.0301
14992W        W31839  18.485   9.666  15.106  0.3041  0.2731  0.1293
14993W        W31840  15.595   3.043   4.101 -0.2992  0.3082 -0.0791
14994W        W31841  11.675   2.005  15.471  0.1151 -0.1368 -0.1138
14995W        W31842   6.485   8.830   0.583  0.2285 -0.0242  0.1598
14996W        W31843  18.084   7.673  14.869  0.1057  0.3116  0.1045
14997W        W31844   8.506  10.540  11.939 -0.2038 -0.2603  0.2714
14998W        W31845  17.749   2.767   1.478 -0.1207 -0.1667 -0.2565
14999W        W31846  12.128  15.081   5.288  0.1195  0.1462  0.1340
15000W        W31847  13.996  16.642  12.276 -0.1060  0.1989  0.1892
15001W        W31848  11.775  15.312  13.060  0.0518  0.1036 -0.2024
15002W        W31849   5.716   0.067   4.736 -0.0095 -0.2267  0.2609
15003W        W31850   1.814   0.942  13.885 -0.0129  0.0338 -0.1564
15004W        W31851  18.584  16.640  13.693 -0.0654  0.1520  0.0876
15005W        W31852   4.094   0.601  12.589 -0.0055  0.0351 -0.0073
15006W        W31853  13.983  10.165  15.639 -0.0143 -0.0074 -0.1764
15007W        W31854  11.918   7.130  14.193  0.1609 -0.1070 -0.0213
15008W        W31855  10.876   1.228  11.867 -0.1220 -0.3613 -0.2859
15009W        W31856   6.233  13.513   2.687 -0.5254  0.3508 -0.0388
15010W        W31857  16.986   9.966   2.808 -0.1839 -0.0719  0.3087
15011W        W31858   5.213  11.815   0.038 -0.3607  0.1556 -0.0462
15012W        W31859  17.651   5.935  14.139  0.0677  0.4683  0.0267
15013W        W31860   1.008  18.625  14.302 -0.2601  0.1867 -0.1070
15014W        W31861   2.431   0.639  15.610  0.1385 -0.3572 -0.0137
15015W        W31862   2.302   4.096  11.065  0.1137 -0.2348 -0.1001
15016W        W31863   9.305  11.094  15.595  0.2373  0.1593 -0.1367
15017W        W31864   1.652   5.842  14.688  0.3766  0.2855 -0.1735
15018W        W31865  12.054   2.395   1.043  0.0008 -0.1912  0.0274
15019W        W31866  17.428  14.359   3.817  0.2345  0.1051  0.0020
15020W        W31867  15.332   2.019   0.076  0.3553 -0.1956  0.2734
15021W        W31868   1.049  14.177  13.161  0.1895  0.2660 -0.0774
15022W        W31869   0.631   1.575   3.308  0.2517 -0.0338  0.0468
15023W        W31870  13.666   8.649   0.633 -0.0871 -0.0477 -0.0426
15024W        W31871  12.678   0.142  13.792  0.0636 -0.0706 -0.2670
15025W        W31872  10.353  10.165  13.220 -0.1121 -0.0071 -0.0204
15026W        W31873   9.022  16.864  15.570  0.3284 -0.2589  0.1136
15027W        W31874  12.422   5.493   0.073  0.1342  0.0039 -0.1434
15028W        W31875   8.470   3.213   0.651  0.0474 -0.1808 -0.1518
15029W        W31876  11.248  15.356  12.451  0.2566 -0.2194  0.4951
15030W        W31877   7.214  17.732   4.206  0.1814 -0.1568  0.1974
15031W        W31878  17.986  16.694   5.689 -0.2279 -0.1416  0.3972
15032W        W31879  17.146  10.633   0.269  0.0883  0.0388 -0.4064
15033W        W31880  13.701  17.582   0.614  0.0073 -0.0325  0.0449
15034W        W31881  16.311  12.431   2.374 -0.0688 -0.0101  0.0231
15035W        W31882   6.917   0.528   1.595 -0.0689  0.2128  0.1835
15036W        W31883  17.389  13.543   2.120  0.3011  0.0241 -0.4191
15037W        W31884  13.446  11.929  12.471  0.2066  0.0539 -0.2462
15038W        W31885  12.885   8.516   0.093 -0.2389 -0.0340  0.2808
15039W        W31886  18.780   0.162   3.190 -0.0724 -0.0812  0.0009
15040W        W31887   5.048   0.751  12.569  0.2644 -0.0223 -0.2771
15041W        W31888   6.841   9.283   0.557  0.0854 -0.0953  0.0664
15042W        W31889  16.417  14.027   3.244 -0.0313  0.1076 -0.2538
15043W        W31890  16.023  17.331   5.675 -0.1972  0.1553  0.1612
15044W        W31891   6.106  12.212  11.195 -0.0060  0.0188  0.0141
15045W        W31892  15.337   8.195   3.658 -0.0924  0.0159  0.0269
15046W        W31893   1.958   3.884  11.492 -0.0048  0.1299  0.0668
15047W        W31894  12.321  17.987   1.017  0.0704  0.0383 -0.0986
15048W        W31895  10.761   7.094  14.235 -0.3914  0.1582  0.0252
15049W        W31896   4.438  11.791   4.950  0.2003  0.0923 -0.0926
15050W        W31897   0.432  15.570  13.258  0.1988 -0.0171 -0.3901
15051W        W31898  15.705  11.506  11.096  0.0006 -0.4180 -0.0052
15052W        W31899   7.744  10.295   1.803  0.5079 -0.1139  0.0261
15053W        W31900   6.898   3.996   0.308  0.0870  0.1869 -0.0780
15054W        W31901  11.861   7.834   5.081 -0.0824 -0.1688 -0.0072
15055W        W31902  17.472  11.735  15.106  0.1642 -0.1771 -0.0087
15056W        W31903  10.180  11.307   3.534 -0.1107  0.1349  0.3480
15057W        W31904  13.386   6.067  13.773 -0.2319  0.0540 -0.0129
15058W        W31905   9.767   9.353   1.102 -0.3257  0.1258  0.1518
15059W        W31906   4.804   5.956   0.447 -0.0891 -0.1816  0.2381
15060W        W31907  16.185   0.816  13.857 -0.0082 -0.1544 -0.2918
15061W        W31908   3.650  16.641  14.312  0.1142  0.0053  0.1497
15062W        W31909  14.495  17.407  15.753  0.1270 -0.0813 -0.1607
15063W        W31910  16.024  13.038  11.592  0.1340 -0.3934  0.3670
15064W        W31911   4.406   9.446   3.181 -0.0670 -0.0933  0.3637
15065W        W31912   8.354  17.355   5.455 -0.3232 -0.1311 -0.2607
15066W        W31913  12.367   8.676   4.378  0.1507  0.0863  0.2384
15067W        W31914   0.504  10.683  12.288  0.1159  0.2856  0.0634
15068W        W31915   7.539  14.467   2.471 -0.0165  0.3046 -0.1000
15069W        W31916  13.580  16.752  14.199  0.0162  0.0234  0.2282
15070W        W31917   7.014  15.446  10.815 -0.1129  0.1124  0.0316
15071W        W31918   0.504  15.491   3.858  0.1242  0.0899 -0.0889
15072W        W31919  13.648  15.550  15.742 -0.2235  0.0885  0.1013
15073W        W31920   5.644  10.172   3.735 -0.2253  0.0836 -0.2700
15074W        W31921  11.484  18.410  14.995 -0.2672  0.1425 -0.1148
15075W        W31922   4.880  10.992  15.358 -0.2562 -0.1469 -0.1709
15076W        W31923   7.082   8.162   2.217  0.0361  0.1417 -0.2654
15077W        W31924   1.512   6.252   4.532  0.2274 -0.1382 -0.0201
15078W        W31925   8.359   7.294  14.168 -0.0268 -0.0807  0.1049
15079W        W31926   0.758  15.691  12.771 -0.1390 -0.2884 -0.1897
15080W        W31927   5.944   4.750   1.587  0.0413  0.1413 -0.0075
15081W        W31928   3.671  16.526   0.107 -0.2861  0.0739  0.0184
15082W        W31929  11.024   1.258   4.911 -0.3301 -0.1100  0.0816
15083W        W31930   0.392  18.490   1.065  0.0150  0.0313  0.0848
15084W        W31931  13.534  11.475  12.247  0.0035  0.1285 -0.2594
15085W        W31932  18.468  11.284  15.383 -0.0910 -0.0461  0.1638
15086W        W31933   2.027   7.905   5.222 -0.0140  0.3533  0.1151
15087W        W31934   7.020   2.038  15.437 -0.1383 -0.1299 -0.3273
15088W        W31935  10.572  11.242  15.162 -0.1453  0.1807 -0.0465
15089W        W31936   8.358  13.630   0.522  0.2873  0.0355 -0.1328
15090W        W31937  15.511  15.046  13.870 -0.3034  0.0283  0.1371
15091W        W31938   5.654  13.117  11.663  0.1911  0.2115  0.1698
15092W        W31939  13.735  14.963   3.482 -0.0533 -0.0596  0.2173
15093W        W31940  17.464   6.330  13.765 -0.0280  0.0701  0.2556
15094W        W31941   4.730  13.102  14.010  0.0112  0.0009  0.0966
15095W        W31942  18.310   3.028  15.068 -0.0372  0.3282 -0.0209
15096W        W31943  14.667   4.441  12.968  0.0205  0.1585 -0.2471
15097W        W31944  16.704  15.193  12.100  0.2122  0.1281  0.4882
15098W        W31945   7.949  18.182   9.799  0.2026  0.2772 -0.0894
15099W        W31946   9.679   7.009  13.266  0.3335 -0.0317 -0.2728
15100W        W31947   2.268   8.572   2.603 -0.0016 -0.0444  0.0237
15101W        W31948  10.305  18.037   1.897 -0.2007 -0.1445 -0.1272
15102W        W31949   1.189  14.162   1.785 -0.2004  0.0986  0.1206
15103W        W31950   0.062   6.947  14.944 -0.1074  0.1138 -0.1184
15104W        W31951   6.022   4.089   4.551  0.1072 -0.0105  0.0339
15105W        W31952   3.958   4.476   3.601 -0.0520  0.1319 -0.0601
15106W        W31953  13.444  15.147   3.849 -0.1249  0.0397  0.1127
15107W        W31954  10.275   0.314   2.964 -0.0593 -0.1907 -0.2197
15108W        W31955   7.826   2.465  12.320  0.2988  0.0204 -0.5117
15109W        W31956   8.270  10.876   5.685  0.1119 -0.0069  0.3233
15110W        W31957  15.299   9.114   3.210 -0.0536  0.2809 -0.0208
15111W        W31958   8.309   8.610  12.348  0.0625 -0.0776  0.1221
15112W        W31959  10.384   1.548  12.638  0.0447  0.0030 -0.3179
15113W        W31960   0.505   3.661  15.520  0.0304  0.2774  0.1227
15114W        W31961   5.104   8.520   0.870  0.0392 -0.0739  0.0515
15115W        W31962   7.061   4.381  12.010  0.0809  0.1071 -0.3316
15116W        W31963   6.274   7.524  14.675 -0.1453  0.1914  0.0927
15117W        W31964   2.732  11.193  12.304 -0.1946 -0.2710  0.0605
15118W        W31965  13.527   2.255  12.791  0.0837 -0.0561  0.2762
15119W        W31966   0.623   4.598  15.373  0.1571  0.0854 -0.1208
15120W        W31967  16.543  18.794   1.503  0.2663  0.0720 -0.0731
15121W        W31968   4.135  12.252   4.934 -0.1277  0.0634  0.0910
15122W        W31969   7.052  15.626   1.664  0.1745  0.1522 -0.0766
15123W        W31970   6.335   3.267   0.089 -0.2497  0.2940 -0.0825
15124W        W31971   3.238  17.116   2.388  0.4707 -0.2006 -0.2515
15125W        W31972  16.959  13.840   2.622  0.1088  0.3319 -0.0052
15126W        W31973   8.375   4.587  15.504  0.0205  0.2923  0.0907
15127W        W31974  11.321  11.540  13.601  0.1051 -0.0976  0.0717
15128W        W31975   3.572   4.584  10.763 -0.1449  0.3123 -0.1364
15129W        W31976   2.620   9.871   2.276  0.2093  0.3233 -0.1142
15130W        W31977   3.299   6.820  15.412 -0.0396 -0.1092  0.4546
15131W        W31978  11.932  17.133   5.028  0.1262  0.2266 -0.0065
15132W        W31979  17.814   1.827  12.916  0.0783 -0.2629  0.1544
15133W        W31980   3.589  18.073  14.679 -0.0049 -0.5359 -0.1975
15134W        W31981   8.218  12.383   2.628 -0.0279  0.1166  0.1902
15135W        W31982   0.936   2.368  13.300 -0.0959  0.0783 -0.2762
15136W        W31983   5.737   4.179   2.434  0.1311 -0.1227 -0.1525
15137W        W31984   7.774   7.954  12.698 -0.3718  0.1197 -0.1188
15138W        W31985  16.349   6.835  14.385 -0.1930  0.1045  0.1138
15139W        W31986   4.503   7.067  14.794 -0.4261  0.3329 -0.0214
15140W        W31987   3.439  10.512   1.728  0.2457 -0.3799  0.3064
15141W        W31988   9.896   2.678   3.677 -0.3150  0.2404 -0.2102
15142W        W31989  18.158   0.026   6.172 -0.1862 -0.1881 -0.0266
15143W        W31990  10.673  17.356  11.721  0.1013  0.1468  0.3278
15144W        W31991  18.113   3.607   1.580 -0.0718 -0.1506 -0.0223
15145W        W31992  12.168  16.368   2.028  0.1458 -0.1632  0.0993
15146W        W31993  16.373   5.628  12.313  0.2339 -0.0308  0.1142
15147W        W31994   2.978  18.180  11.554  0.2224  0.0702  0.1788
15148W        W31995   8.531   0.423  12.409  0.0182  0.0401  0.0344
15149W        W31996   3.512   3.894  11.491 -0.0049  0.0982  0.2278
15150W        W31997   5.282  13.881   0.139 -0.0892 -0.3567  0.0835
15151W        W31998  10.265  14.165   4.890 -0.0278 -0.0507 -0.0651
15152W        W31999   0.989   8.890   3.856 -0.0907  0.0365 -0.1013
15153W        W32000  15.866  17.536  12.356 -0.2406 -0.1104 -0.2840
15154W        W32001  12.409  15.755  15.258 -0.0225 -0.0814  0.6530
15155W        W32002   8.718  15.153  11.036 -0.3750  0.0475 -0.1452
15156W        W32003   1.006  18.660   3.646  0.1609  0.3109  0.0428
15157W        W32004  11.150   1.655   1.537  0.2240 -0.2149 -0.1654
15158W        W32005  15.305   9.951   2.822 -0.1346 -0.3506 -0.2659
15159W        W32006  14.071  13.735  15.556  0.1006 -0.3012  0.4062
15160W        W32007  12.204   6.173  11.181  0.0697 -0.1226 -0.0588
15161W        W32008   9.450   6.406   1.566 -0.0150 -0.1559  0.1631
15162W        W32009   8.335  15.468  15.176 -0.3674  0.2239  0.0309
15163W        W32010  17.416  17.922   5.373  0.0348 -0.3530 -0.1145
15164W        W32011   6.702   5.728  14.702  0.5430  0.2547  0.0636
15165W        W32012  12.540   8.919   2.583 -0.1149  0.0322  0.1297
15166W        W32013  13.871   4.725  15.663  0.1490  0.0569 -0.0101
15167W        W32014  11.303   1.661   4.997  0.0088 -0.0549 -0.0612
15168W        W32015   7.368  10.463  13.458 -0.0945 -0.2544 -0.1320
15169W        W32016  16.562  15.182  14.992  0.0016  0.0013  0.3407
15170W        W32017   1.610   4.261  15.754  0.0158  0.1612  0.0631
15171W        W32018  14.798   8.336   4.555  0.3567 -0.0360 -0.1839
15172W        W32019   9.398   9.815   3.759 -0.2216  0.2044 -0.1063
15173W        W32020   1.064   4.547   5.719  0.1905  0.2635  0.3525
15174W        W32021  15.250   7.139   0.954 -0.1843  0.1612  0.3543
15175W        W32022  10.333   4.605   4.671  0.2363  0.1101  0.1726
15176W        W32023   7.475  16.935  12.982  0.1811  0.1177 -0.0276
15177W        W32024  10.738   8.693  14.751 -0.1147  0.0791  0.1512
15178W        W32025  17.872   9.121  15.205  0.2061  0.1754  0.0577
15179W        W32026   9.576   8.588  14.862 -0.1162  0.0272  0.0131
15180W        W32027  17.211  15.377   3.483 -0.0703  0.0935  0.2250
15181W        W32028   5.101   1.648  13.638 -0.3100 -0.0342  0.4057
15182W        W32029  10.101   5.392   1.623  0.1115  0.0615  0.1897
15183W        W32030  14.555   3.689   3.322 -0.2076  0.1882 -0.3375
15184W        W32031   2.337  14.588   1.564  0.0140 -0.0994  0.2009
15185W        W32032   9.972  16.042   1.083  0.1185 -0.2104  0.1023
15186W        W32033   8.734  12.594  11.096  0.0257  0.0664 -0.1845
15187W        W32034  16.363   5.103   1.490  0.1246  0.3896 -0.2916
15188W        W32035   9.341   3.639  11.860 -0.1267 -0.2032  0.3967
15189W        W32036   8.214   0.284   3.156  0.0187 -0.1468  0.2901
15190W        W32037   7.124   1.355  12.911 -0.0620 -0.1692 -0.1783
15191W        W32038  16.744  13.574  12.795 -0.0900  0.1803 -0.4797
15192W        W32039  17.099   9.492  13.758 -0.1395 -0.0420  0.0562
15193W        W32040  11.835  11.882  11.237  0.3945  0.3939  0.1961
15194W        W32041   3.116   7.818   0.358  0.0766  0.0798 -0.0061
15195W        W32042  12.108  15.686   4.558 -0.2148  0.0352 -0.2563
15196W        W32043   4.420  12.157   0.162  0.2283  0.1128  0.1099
15197W        W32044  12.981  13.415   4.854 -0.0286 -0.2018  0.2640
15198W        W32045  13.364  15.341  14.556 -0.1956 -0.0775 -0.3039
15199W        W32046  12.128  10.651   1.638  0.2613  0.3320 -0.2171
15200W        W32047  12.247   7.465  13.962  0.0863  0.1945 -0.3365
15201W        W32048   5.835  11.866   4.802 -0.0710  0.1360  0.2685
15202W        W32049   4.312  13.623   3.535  0.2395  0.0746  0.2476
15203W        W32050   7.322  11.038   0.354  0.0556 -0.0599  0.0004
15204W        W32051  13.032   8.338  14.229  0.1264  0.1217  0.2048
15205W        W32052   9.087  10.352  11.039  0.0087 -0.0906  0.0448
15206W        W32053   8.607  15.418   3.041 -0.0147  0.2072 -0.0163
15207W        W32054  18.370   1.914   4.894 -0.0791  0.1195  0.0792
15208W        W32055   9.761   3.306   2.239  0.2976  0.0230 -0.0018
15209W        W32056   9.697   7.350   2.338 -0.0702 -0.0317  0.3251
15210W        W32057  16.514  16.476  14.169 -0.1749 -0.3592  0.5256
15211W        W32058  11.416   7.180   2.722  0.4676 -0.0480 -0.0706
15212W        W32059   9.316   8.679   4.107 -0.1433 -0.0489 -0.1279
15213W        W32060   5.353   5.185   5.429  0.1437  0.1362  0.2897
15214W        W32061  15.289   9.462   1.001 -0.2567 -0.0558  0.1256
15215W        W32062   3.000  17.727   1.294  0.5841  0.1922  0.0389
15216W        W32063   2.758  13.885  15.092 -0.1232 -0.2998  0.1787
15217W        W32064  12.401  16.241   4.521  0.1081  0.3897 -0.3296
15218W        W32065   7.059   1.353   0.402  0.0301 -0.0293  0.0324
15219W        W32066  15.429  13.460  14.312  0.0763 -0.3052  0.0467
15220W        W32067   1.449   5.785   1.237  0.0311 -0.2078  0.1391
15221W        W32068   1.679  16.405   3.776  0.2345  0.0393 -0.1047
15222W        W32069  18.507   2.758  15.446 -0.1941 -0.0924 -0.0937
15223W        W32070  18.538   5.841   1.303  0.0333  0.1282 -0.1586
15224W        W32071   9.205  17.888  15.515  0.1875 -0.0448  0.1671
15225W        W32072   5.304  10.509   3.795 -0.0915 -0.2405 -0.1484
15226W        W32073   8.081  14.673  13.716  0.1081  0.0748 -0.0456
15227W        W32074  15.183  13.607  12.704  0.1058 -0.0904  0.0648
15228W        W32075  13.106   4.422  10.118 -0.0716 -0.1440  0.0460
15229W        W32076   5.620   5.698   1.804  0.1811  0.0259 -0.1223
15230W        W32077  10.276  16.282  13.089  0.0942  0.0927  0.1442
15231W        W32078   1.514   4.763   2.495  0.0933  0.1429  0.0893
15232W        W32079  16.297  15.590  14.169  0.2148 -0.3088  0.2217
15233W        W32080   5.595  11.458   5.501  0.0394  0.0784  0.1322
15234W        W32081   1.138  15.643   3.384 -0.5475  0.0804 -0.3154
15235W        W32082  11.210  16.618   5.247  0.2106  0.0249  0.0362
15236W        W32083  18.680  12.057   1.825 -0.0115 -0.0815 -0.0059
15237W        W32084   1.264  15.402   0.396  0.1815 -0.0738  0.1972
15238W        W32085  10.541   6.900  11.934  0.0331 -0.1693 -0.1649
15239W        W32086  11.758  15.157  12.190  0.0402 -0.0684 -0.2050
15240W        W32087   9.013  14.146   5.088  0.4934 -0.2025 -0.0924
15241W        W32088   4.144   9.655   1.367  0.1996  0.2432 -0.1522
15242W        W32089   7.001   3.083  11.973  0.4048 -0.0805  0.0164
15243W        W32090   1.349  18.059  14.717  0.0997 -0.0478  0.3157
15244W        W32091  12.664   4.959  12.177 -0.1514  0.2259 -0.1947
15245W        W32092  14.705   5.686  13.050 -0.2870  0.0675 -0.1628
15246W        W32093   0.141  10.305   4.194  0.0246  0.3374  0.2420
15247W        W32094   3.435   7.963   2.560  0.1579 -0.2517  0.1189
15248W        W32095  14.749  13.991  12.939  0.1194 -0.1195  0.2852
15249W        W32096   4.145   7.786   1.827 -0.1369 -0.3313  0.0536
15250W        W32097   4.567   0.139   2.142 -0.3269  0.1252 -0.2055
15251W        W32098   7.357  15.776   2.623 -0.1663 -0.1242  0.0127
15252W        W32099  12.454   4.084  15.274 -0.0026  0.0008 -0.4059
15253W        W32100   9.197   3.795   0.123  0.1421  0.1670 -0.2068
15254W        W32101   5.922   0.208  12.106 -0.1768  0.3098 -0.0470
15255W        W32102  17.063  12.048  14.933 -0.1217 -0.3088  0.0153
15256W        W32103  18.331  13.328   0.828  0.1341 -0.1628 -0.1012
15257W        W32104   0.101   9.605  13.773  0.0855 -0.1367  0.1690
15258W        W32105  10.310   7.940  11.724  0.4121 -0.0178  0.2504
15259W        W32106   6.767  17.215  13.542  0.2474 -0.3483  0.0545
15260W        W32107  17.578   5.328   4.155 -0.0682  0.1001  0.1050
15261W        W32108   1.641   7.455  15.763 -0.0207  0.0206  0.0516
15262W        W32109   6.486   6.622  10.799 -0.0474 -0.1188  0.0137
15263W        W32110  13.620   1.815   2.534 -0.1265 -0.1590 -0.1343
15264W        W32111   2.022  14.954   0.006  0.1335  0.1331  0.2430
15265W        W32112   6.770  17.683   2.981 -0.0229  0.1038  0.1084
15266W        W32113   9.380  13.859   2.545  0.1303 -0.2998 -0.3037
15267W        W32114   6.959  15.288   3.049  0.0824  0.1004 -0.1907
15268W        W32115   0.526   6.124   4.040  0.1893  0.2191  0.1886
15269W        W32116  11.163  14.307   0.181  0.2488 -0.0073  0.2164
15270W        W32117  16.122  11.088  15.344  0.0005  0.1406 -0.1702
15271W        W32118  16.631   1.133   0.612  0.0711  0.1775  0.1650
15272W        W32119  11.248   9.296   3.520 -0.0159  0.1243  0.0437
15273W        W32120   5.837   9.661  13.315 -0.3041 -0.1260 -0.0733
15274W        W32121   3.324   9.838   0.134 -0.4815  0.1033  0.0819
15275W        W32122   9.409   9.041  14.513  0.1343  0.3539  0.1609
15276W        W32123  12.746   1.466   6.013 -0.1087  0.1935 -0.1648
15277W        W32124   8.163   4.965   3.384 -0.1062 -0.0706  0.3166
15278W        W32125  15.153   0.723  14.760  0.0516  0.0776  0.2405
15279W        W32126  12.742   9.924   2.655  0.0993  0.3169  0.3195
15280W        W32127  13.191  18.798   2.514  0.2836 -0.2371 -0.2372
15281W        W32128   4.678   5.375   1.354  0.1084  0.2223  0.2170
15282W        W32129  11.953  17.039   2.941 -0.0483 -0.1997 -0.0784
15283W        W32130   5.095  14.195  12.943  0.3178 -0.2590  0.0008
15284W        W32131   8.813  17.468  12.926  0.0655 -0.0705 -0.0593
15285W        W32132  18.110   6.159  11.264 -0.0351  0.3194  0.3044
15286W        W32133  16.331   6.956  15.451 -0.0844 -0.3122  0.1667
15287W        W32134  10.811   1.447  14.086 -0.0540  0.0704 -0.0388
15288W        W32135  12.937   4.348   3.179  0.2443 -0.4477 -0.2362
15289W        W32136  14.425   3.861  12.641 -0.0214  0.2557  0.0162
15290W        W32137  13.271  14.341  14.435  0.4063 -0.1830 -0.3731
15291W        W32138  17.907   0.537  12.416 -0.0202 -0.0451 -0.0526
15292W        W32139  13.147   2.877   5.473  0.0190  0.0643  0.3309
15293W        W32140  17.337   7.035  12.949  0.1605  0.1301 -0.3165
15294W        W32141  11.902   0.822  11.327 -0.0883  0.0089  0.0909
15295W        W32142   6.282   3.716   5.615  0.0919  0.0250 -0.3100
15296W        W32143  13.962  11.259   4.109 -0.1354  0.1223  0.1768
15297W        W32144  18.473   6.181  13.751  0.0213  0.3210 -0.0091
15298W        W32145  12.071   3.315   1.888 -0.0447 -0.3472 -0.0825
15299W        W32146   5.443   0.903   2.688 -0.4311  0.0876 -0.0241
15300W        W32147   0.377  11.678   1.051  0.0112 -0.1406  0.2377
15301W        W32148  10.016   4.499   1.614 -0.0138 -0.0018 -0.0015
15302W        W32149   9.844   2.432  11.735  0.0530  0.3493 -0.0401
15303W        W32150   9.902  12.360   2.086 -0.1312  0.0677  0.2872
15304W        W32151   0.416  16.042  11.762 -0.0040  0.1031 -0.0164
15305W        W32152  13.873  10.946  15.141 -0.3224  0.0404 -0.0945
15306W        W32153   9.895   0.704   4.273  0.2166 -0.3237  0.2121
15307W        W32154  13.360  18.143   1.438 -0.1781  0.1889  0.0395
15308W        W32155  11.299   8.281   2.551 -0.2080  0.3456  0.2123
15309W        W32156   7.810   6.377   5.583 -0.1445 -0.2686  0.3085
15310W        W32157   2.584   2.830  12.673  0.1576 -0.3848 -0.2175
15311W        W32158   2.481   5.816  15.738 -0.2025  0.0299  0.2110
15312W        W32159   0.771  10.845   0.040 -0.1481 -0.0874  0.0661
15313W        W32160   8.389  17.877   0.873  0.1072 -0.1451 -0.1702
15314W        W32161   2.006   9.994   2.109 -0.0855  0.1190  0.2317
15315W        W32162   6.621   4.790  14.124  0.1901  0.6293  0.3863
15316W        W32163   5.287  13.699  15.108 -0.2517 -0.1499 -0.0539
15317W        W32164  11.173  14.400   4.125  0.0259 -0.3523  0.0015
15318W        W32165   8.677   3.409  11.134  0.1360 -0.0284 -0.1923
15319W        W32166   9.226   2.108   3.232 -0.0502 -0.1379  0.1609
15320W        W32167   0.916  13.245   0.262 -0.1129  0.1705 -0.1612
15321W        W32168   1.887  12.363  13.963 -0.0277 -0.0347 -0.2272
15322W        W32169   2.839   1.425  15.098 -0.3493 -0.3092  0.0186
15323W        W32170   6.824  16.841  10.286  0.2068 -0.0175  0.1326
15324W        W32171  10.917   5.467  12.094 -0.0872 -0.0497 -0.2064
15325W        W32172   1.317  11.863  14.317 -0.0103 -0.1161  0.1495
15326W        W32173  17.125  14.067  13.489 -0.0109  0.2087 -0.0887
15327W        W32174  17.352   0.610   0.996  0.3222 -0.1981 -0.0928
15328W        W32175   7.340   5.128   1.745 -0.2362 -0.1168 -0.0042
15329W        W32176   5.079  13.196   3.847  0.0797  0.2348 -0.1360
15330W        W32177   7.530   2.263  15.609  0.2119  0.1223 -0.2334
15331W        W32178   7.332   2.727   4.724 -0.0806  0.2846  0.0065
15332W        W32179   6.496  10.483   2.309 -0.0366  0.0033 -0.2597
15333W        W32180  10.169  17.739   1.548 -0.0411 -0.0298  0.1602
15334W        W32181  13.742   9.076   0.177 -0.1932  0.0940 -0.4237
15335W        W32182   8.710   2.065  13.972 -0.0841  0.2428 -0.0242
15336W        W32183   9.080   9.718  11.133  0.2324  0.1684 -0.3526
15337W        W32184   7.836   9.779   3.767  0.0156 -0.2052 -0.2856
15338W        W32185  16.669   4.921  14.172 -0.0277  0.0911 -0.0145
15339W        W32186  17.881   2.276   3.645 -0.0620 -0.3569 -0.2177
15340W        W32187  15.412   3.201   2.816 -0.0358 -0.3025  0.0254
15341W        W32188  17.123   6.167   3.930  0.2798  0.2510 -0.0016
15342W        W32189  18.039  17.524  14.158  0.0472  0.1798  0.1089
15343W        W32190   5.557   8.389  13.109 -0.1339  0.1017  0.0488
15344W        W32191  15.656   8.563   2.544 -0.0554 -0.1159 -0.2260
15345W        W32192  14.113   1.727   5.393  0.1557 -0.0229 -0.4172
15346W        W32193   9.930   2.202   0.535 -0.0131  0.2227 -0.2586
15347W        W32194   2.113  12.228   1.265 -0.0759  0.0653  0.0484
15348W        W32195  17.249  13.510  13.711  0.0829 -0.0215  0.3201
15349W        W32196   1.427   2.158   3.303 -0.1969 -0.0007  0.1380
15350W        W32197  15.791  13.204  14.587  0.0024  0.1009  0.0994
15351W        W32198   9.820   1.416  13.209  0.0918  0.0799  0.1117
15352W        W32199  12.770   4.110  12.028  0.0313 -0.3536  0.0712
15353W        W32200   7.089  17.593  13.355  0.2687  0.0508 -0.0913
15354W        W32201   5.094  13.907   3.097 -0.0477  0.2168  0.2532
15355W        W32202   4.035   7.955   0.013 -0.2282 -0.1253 -0.1744
15356W        W32203  12.323   3.615   1.013  0.2920 -0.1626 -0.3376
15357W        W32204   4.279  12.296   0.640 -0.0428  0.0242 -0.0422
15358W        W32205   2.570   2.039  13.460 -0.0131  0.2503 -0.3242
15359W        W32206  16.273  17.464  11.670  0.1079 -0.1328  0.1625
15360W        W32207   7.707  15.668   3.643 -0.0754  0.0082 -0.1707
15361W        W32208   1.882   1.275   4.882 -0.0728  0.3423 -0.1007
15362W        W32209   4.746  16.781   2.297 -0.0537 -0.0611 -0.2614
15363W        W32210   3.985  10.765   0.899 -0.0515 -0.1689  0.0764
15364W        W32211  13.928  16.790   1.276  0.1587  0.0456  0.0559
15365W        W32212  12.329   6.819   2.706 -0.1449 -0.0611 -0.1883
15366W        W32213  18.653   7.044   2.699 -0.1302  0.1542  0.1833
15367W        W32214   2.517  14.177   2.547  0.0799 -0.0879  0.1970
15368W        W32215   9.120   5.207  13.441 -0.2078 -0.1052  0.0480
15369W        W32216  10.370   4.998   0.813 -0.2208 -0.0827 -0.2195
15370W        W32217   2.466  16.903  15.304  0.0961  0.0129 -0.3363
15371W        W32218   7.329   9.841  11.593 -0.3071  0.2630 -0.1317
15372W        W32219   6.134   9.241  12.002  0.0528 -0.0834  0.1383
15373W        W32220   5.397  11.290   3.325 -0.1271 -0.0213  0.3412
15374W        W32221  17.826   3.120   4.324 -0.0722 -0.3752  0.2023
15375W        W32222  17.910  15.460   2.665 -0.0420  0.3724 -0.1908
15376W        W32223  17.354   8.507   2.107 -0.2760 -0.1247  0.4290
15377W        W32224   7.206   0.073   5.241  0.2839  0.0661  0.0326
15378W        W32225  18.354   8.343   4.862 -0.1369 -0.1916 -0.0591
15379W        W32226  10.062   6.180  12.581 -0.2213  0.0710  0.1159
15380W        W32227  16.638  11.595   5.988  0.0280 -0.2684  0.1390
15381W        W32228  18.299   4.412  12.648 -0.3592 -0.0925 -0.3672
15382W        W32229  14.712  17.303  14.987 -0.2156  0.0930  0.2176
15383W        W32230  15.337  15.596  14.734 -0.1246 -0.0007 -0.0784
15384W        W32231   2.690   4.136   4.671  0.0740 -0.0940  0.2401
15385W        W32232  12.790  13.968   0.222  0.1158  0.0576 -0.0503
15386W        W32233  15.849  10.932  11.842 -0.1808 -0.0453 -0.1453
15387W        W32234   9.571   8.111   2.926  0.0172  0.1542  0.0187
15388W        W32235   0.059  14.214   1.931 -0.0001  0.6369 -0.1710
15389W        W32236   9.604  13.816   2.131  0.1317  0.1895 -0.5343
15390W        W32237  11.450  16.954   0.451 -0.3989  0.2153 -0.1066
15391W        W32238   6.518  12.791   5.065  0.2369  0.0086  0.0385
15392W        W32239  12.975   4.928   4.472 -0.2144  0.4258 -0.2100
15393W        W32240   2.086  15.491   4.115 -0.0252  0.3995  0.0454
15394W        W32241   2.155  13.624   3.804 -0.0969  0.0080  0.2511
15395W        W32242  15.363  11.455   2.133  0.2588  0.0219  0.0481
15396W        W32243   2.473  11.214  15.022  0.0320  0.2570 -0.2019
15397W        W32244  13.237  12.670  14.197  0.2874  0.0644 -0.1794
15398W        W32245  10.316   0.955   5.451  0.1012  0.3692 -0.0136
15399W        W32246   5.275   4.808   2.980 -0.0193 -0.0790  0.1066
15400W        W32247   9.955  13.072   2.597  0.2585 -0.0777  0.2669
15401W        W32248   1.713  12.197  13.321  0.0481  0.0169 -0.1004
15402W        W32249  13.075   9.882  13.033 -0.1228 -0.6131  0.0293
15403W        W32250   5.784   9.301  15.149  0.2223 -0.1988 -0.1066
15404W        W32251  14.758   8.962   1.336  0.1909 -0.0547  0.4174
15405W        W32252  18.705   3.213  13.867  0.0443 -0.1696  0.0749
15406W        W32253   6.084   2.441  15.446  0.1829 -0.1085 -0.3051
15407W        W32254   0.538  12.758   1.058 -0.2801 -0.1010 -0.0287
15408W        W32255   1.116  14.300   2.865 -0.4567  0.1274  0.0026
15409W        W32256   5.756   2.130  12.951  0.0870 -0.2019  0.2794
15410W        W32257   6.305   8.918  15.392 -0.0601 -0.1310  0.0667
15411W        W32258   3.125   2.806   3.291  0.2522  0.3604 -0.1073
15412W        W32259   5.968   6.904   0.189  0.1639 -0.1535  0.1455
15413W        W32260   7.589   0.953   2.700  0.0224 -0.5108 -0.0340
15414W        W32261   9.771   3.463   1.684  0.0874 -0.1993  0.1939
15415W        W32262  10.053  18.347   0.649  0.1084  0.1212 -0.1266
15416W        W32263   1.504   8.506   3.276 -0.1091  0.1105  0.1514
15417W        W32264  17.016  17.739   4.135 -0.2732  0.2399 -0.2435
15418W        W32265   3.257   0.060  15.233  0.3266  0.1090 -0.0048
15419W        W32266   6.265  11.606   0.894 -0.1310  0.0790 -0.0135
15420W        W32267   0.871  15.638   0.867 -0.4894 -0.0572  0.1140
15421W        W32268   9.068  14.845   4.604  0.0487  0.0433 -0.3009
15422W        W32269  15.239  17.837   1.631 -0.0438 -0.0053  0.0123
15423W        W32270   1.928  11.279   5.506 -0.0184  0.3225 -0.1622
15424W        W32271   9.068   0.076  15.422  0.0047  0.0489 -0.0482
15425W        W32272   4.139  13.606   4.076 -0.0196 -0.2472  0.0266
15426W        W32273   3.281   8.692   1.281  0.0419 -0.3062 -0.0010
15427W        W32274   6.198   4.254   1.578  0.0731  0.0987 -0.0779
15428W        W32275   0.646   5.223   4.797 -0.0565  0.0097  0.0536
15429W        W32276   8.646  13.838   5.118 -0.0630 -0.1613 -0.1615
15430W        W32277  15.686   8.316  13.695 -0.0100 -0.0687  0.0347
15431W        W32278  14.849  11.648  13.555 -0.0887  0.0739 -0.0543
15432W        W32279  12.287   0.752   0.919 -0.1009  0.1775  0.0955
15433W        W32280   0.417  13.546  13.927  0.0703 -0.3961  0.4709
15434W        W32281   6.042  17.706   1.301 -0.0157 -0.0554 -0.0847
15435W        W32282   6.863  18.809  13.776  0.3421 -0.0862 -0.1180
15436W        W32283  17.366   0.698  12.184  0.0959 -0.1942  0.1012
15437W        W32284  11.239  17.865  13.659 -0.3276  0.2096  0.0905
15438W        W32285   7.589   1.818   2.121  0.2675 -0.2120  0.0978
15439W        W32286  10.157   5.419  12.287 -0.0824  0.2965  0.2380
15440W        W32287  12.804   3.092   0.449  0.0799 -0.0254  0.0050
15441W        W32288  12.861   8.625   1.918  0.0704  0.3944 -0.0481
15442W        W32289   4.880  11.095  11.173  0.0124  0.3410  0.1657
15443W        W32290  12.530   5.781  14.055 -0.1238 -0.0504  0.1182
15444W        W32291   2.474  17.811  11.057  0.2313 -0.1834  0.2561
15445W        W32292  12.432   0.295  11.954 -0.1322 -0.2017  0.0533
15446W        W32293  16.459  17.909  12.095 -0.6780 -0.0373  0.1496
15447W        W32294  11.066   1.437   2.641 -0.0683  0.2248  0.1384
15448W        W32295   9.188  11.635   5.051  0.1486 -0.1181  0.1880
15449W        W32296  13.542  15.565   2.975 -0.0349 -0.1776  0.0455
15450W        W32297  11.318   5.812   1.464 -0.0536  0.1295  0.1756
15451W        W32298  11.511   2.792  10.991 -0.0612 -0.3174  0.0484
15452W        W32299  16.002   6.737  11.953  0.3381 -0.2619 -0.5880
15453W        W32300  14.177   3.659  11.777 -0.0457  0.2086 -0.1028
15454W        W32301   3.902  18.242   1.940  0.3047  0.1747 -0.0376
15455W        W32302  16.034  18.064   3.701  0.0089  0.2813  0.1980
15456W        W32303   3.471   1.935   1.764 -0.1869  0.1220  0.0935
15457W        W32304  13.795   6.796  11.819  0.0552 -0.2944  0.1747
15458W        W32305  11.241   4.193  15.101 -0.0503  0.1880 -0.2994
15459W        W32306   4.965   0.517   2.841 -0.2159  0.4402 -0.2513
15460W        W32307  10.058   7.834   2.530  0.3397  0.1028  0.3149
15461W        W32308   9.887  17.071   3.664 -0.3477  0.2472  0.0190
15462W        W32309   8.650  14.642   1.485  0.0041  0.0615  0.1034
15463W        W32310  15.915   3.124   3.758 -0.0209  0.3000 -0.1003
15464W        W32311   6.636   6.725  13.422 -0.0128 -0.0888  0.1337
15465W        W32312   1.731  17.585  14.164  0.3166 -0.0637  0.0186
15466W        W32313   5.865   5.660   3.402 -0.2017  0.0842  0.0014
15467W        W32314   9.347   2.682  15.465 -0.4074  0.0288 -0.0871
15468W        W32315  12.288   0.702   2.697  0.3641  0.0848  0.3247
15469W        W32316  12.345   9.174  11.858 -0.2618  0.3840  0.3726
15470W        W32317   0.962   3.709   4.572 -0.0825  0.1395  0.3042
15471W        W32318  14.455   4.973  14.416 -0.1416  0.1757 -0.4758
15472W        W32319  14.362   8.058   4.364 -0.1750  0.2724 -0.0930
15473W        W32320   7.438   0.965   0.190 -0.2520 -0.0345 -0.1819
15474W        W32321   5.806   7.419  12.479  0.0630 -0.0162  0.0878
15475W        W32322   3.651   8.033  13.747 -0.0492  0.1788 -0.0921
15476W        W32323   5.604   2.217   5.640  0.2571 -0.0117  0.1175
15477W        W32324  13.627  13.309  12.351 -0.1708 -0.1359  0.2109
15478W        W32325   3.675  14.765  13.368  0.1339  0.1488 -0.0450
15479W        W32326  16.440  12.700   5.524  0.2170 -0.0217  0.1864
15480W        W32327   4.903   4.126  10.796 -0.0449  0.1752 -0.0403
15481W        W32328   9.582   3.422  11.404  0.2606 -0.0582 -0.0164
15482W        W32329  10.976  15.949   0.911  0.1701 -0.3727  0.3297
15483W        W32330  10.023   9.249   2.139  0.3018 -0.0957  0.2320
15484W        W32331   7.746  17.311   2.695  0.1940 -0.1067  0.0143
15485W        W32332  17.840   7.574   5.595  0.4013 -0.1867  0.3374
15486W        W32333  10.912   6.384  14.393  0.4377  0.1239 -0.1569
15487W        W32334  13.251   5.615  11.429 -0.1013 -0.0542 -0.3122
15488W        W32335   6.119  16.606  10.595  0.3190 -0.0156 -0.0210
15489W        W32336   4.083   0.902   3.370  0.1775  0.0756 -0.0967
15490W        W32337   9.052   3.604  12.340 -0.1150 -0.0556  0.3779
15491W        W32338   2.734   8.623   0.618  0.1914 -0.1448 -0.0314
15492W        W32339  17.880  12.503   2.084  0.0193 -0.1536 -0.2488
15493W        W32340   8.428   4.020  14.436  0.0297  0.2418 -0.1934
15494W        W32341  18.058   2.602  14.170  0.0419 -0.1088  0.2042
15495W        W32342  13.776  17.532  11.419  0.0899 -0.0893 -0.0795
15496W        W32343   9.149   6.232   2.002  0.1706  0.0463  0.1651
15497W        W32344  13.528   1.700  11.419 -0.0405 -0.4158 -0.3898
15498W        W32345   8.888   7.529  13.394  0.0417  0.3460  0.1251
15499W        W32346   4.048  11.147  11.542  0.2376 -0.3069  0.3217
15500W        W32347  11.475   5.796   3.698  0.4181 -0.0332 -0.1141
15501W        W32348  13.443   8.267  11.179 -0.1294  0.2260  0.2049
15502W        W32349  14.907  11.957   3.251  0.0082  0.0495 -0.1586
15503W        W32350   3.487  11.274  12.206 -0.0506  0.1082  0.2163
15504W        W32351   3.749   0.520   4.219  0.1915 -0.0094 -0.1548
15505W        W32352   7.313   3.272  14.865  0.3570 -0.0005  0.4235
15506W        W32353  13.889   1.659   4.862 -0.0218  0.0815 -0.1178
15507W        W32354  12.609  15.266   1.640 -0.1951  0.2735 -0.0438
15508W        W32355   0.647  10.433   2.542 -0.3783 -0.0757 -0.0322
15509W        W32356  14.504   1.865   2.815  0.1125  0.1787  0.0413
15510W        W32357  15.303   7.126   2.001  0.2588 -0.0947 -0.3746
15511W        W32358  17.682   7.936   5.032  0.3581  0.1360 -0.1013
15512W        W32359   4.182  16.064  11.799 -0.4845  0.3182  0.2155
15513W        W32360   6.848   2.183   1.510  0.0408  0.0775  0.1495
15514W        W32361   4.607   5.176   1.875 -0.0874  0.1736  0.0093
15515W        W32362  11.239   2.088   4.782 -0.1916 -0.0148 -0.3432
15516W        W32363   6.788  18.416   0.387  0.0029  0.0084  0.2072
15517W        W32364   1.325   2.297   3.844  0.3848 -0.1465 -0.0886
15518W        W32365   3.150  13.636   4.183 -0.0223 -0.1548  0.1135
15519W        W32366  14.132   9.495   4.722  0.3093 -0.0064  0.3861
15520W        W32367  13.884   9.877  12.041 -0.1757 -0.5255 -0.2170
15521W        W32368  12.471  11.542   3.958 -0.0810  0.1375  0.0562
15522W        W32369  14.690   4.122   1.845 -0.2321  0.1857  0.1304
15523W        W32370  16.336   3.504   0.088  0.0155 -0.3258 -0.4921
15524W        W32371   2.033   5.370   2.346  0.4265 -0.1522  0.2073
15525W        W32372   7.449  11.834   5.068  0.0911  0.1175 -0.3007
15526W        W32373   7.253   6.231  12.418  0.1831 -0.1278 -0.1679
15527W        W32374   9.183   7.171  11.844  0.0166  0.3419  0.1219
15528W        W32375  13.196  11.650  11.972  0.3605 -0.1885 -0.0527
15529W        W32376  11.924  14.778   2.842  0.0199 -0.0192  0.1728
15530W        W32377   3.041  16.835  14.734 -0.1233  0.0643  0.0498
15531W        W32378   2.004   5.649  13.941 -0.2270 -0.0811 -0.0749
15532W        W32379   7.351   1.681   0.658 -0.3700 -0.0957 -0.1009
15533W        W32380   7.941  14.227  11.393 -0.0337 -0.0624 -0.1551
15534W        W32381  12.374   7.409  11.334 -0.1073  0.0578  0.0030
15535W        W32382  18.013   9.447   4.204  0.1456 -0.0930  0.0611
15536W        W32383   4.625   3.043   4.150  0.0027  0.0588 -0.2244
15537W        W32384   1.889   5.000   0.991 -0.0558 -0.0320 -0.1033
15538W        W32385   8.096   6.127   5.313 -0.2701 -0.0184 -0.0825
15539W        W32386   8.229  16.023  10.703  0.1024  0.1840  0.1966
15540W        W32387  18.665  16.398   2.667  0.4889  0.4387  0.0454
15541W        W32388   7.446   8.644   4.469 -0.0814  0.0763  0.0139
15542W        W32389   6.984  16.030  12.094 -0.0378  0.1546 -0.1960
15543W        W32390  13.755  10.320   4.720  0.1763  0.2384  0.0117
15544W        W32391  15.860   5.891   0.372  0.0995  0.4061  0.0385
15545W        W32392  12.688  16.381  12.397  0.3974  0.0377 -0.0529
15546W        W32393   6.894   6.773  11.110 -0.0986  0.0855 -0.0879
15547W        W32394  14.382   8.483  11.653 -0.0878  0.1109  0.0380
15548W        W32395  18.465   6.081  11.948  0.2195 -0.4076  0.1813
15549W        W32396  15.198   1.810  14.955 -0.1428  0.2983 -0.2337
15550W        W32397   1.255  14.651  11.138  0.1382  0.0110 -0.1828
15551W        W32398   4.826   1.614   4.314 -0.2429 -0.0976  0.0479
15552W        W32399  14.819   6.839   5.407 -0.1568  0.3074  0.0447
15553W        W32400  11.511  18.337   1.653  0.3488 -0.0619 -0.1849
15554W        W32401  10.143  14.233   3.249 -0.1541  0.2360  0.2898
15555W        W32402  18.535  14.697   2.388 -0.0700  0.4599  0.0179
15556W        W32403  14.120   3.437   5.070 -0.2789 -0.2773  0.0135
15557W        W32404   8.806   7.914  12.399 -0.1163 -0.2196  0.2113
15558W        W32405   0.865   3.538  13.418 -0.4061  0.1822  0.3442
15559W        W32406  14.252  16.704  13.620  0.0933 -0.1128 -0.1846
15560W        W32407  16.049   6.915  12.934  0.1672 -0.0854 -0.0987
15561W        W32408  14.642   3.223  12.775 -0.1846 -0.2507 -0.3691
15562W        W32409  18.454  11.772  11.127  0.0838 -0.1629  0.0847
15563W        W32410  15.635   9.929  14.198  0.1291 -0.0372 -0.4869
15564W        W32411  18.152  17.835   1.890  0.2313  0.3157  0.3326
15565W        W32412  14.794  15.796  13.188 -0.1402 -0.2370 -0.4627
15566W        W32413  10.880   7.496  15.039 -0.3535 -0.2233  0.1162
15567W        W32414  15.986   1.064   1.438  0.0854  0.1691  0.2714
15568W        W32415   7.662  15.803  11.452  0.2496 -0.1602  0.0972
15569W        W32416   1.221  12.297   3.072  0.0199 -0.1536  0.1588
15570W        W32417   0.628   4.006  13.595  0.4585  0.0135 -0.1606
15571W        W32418   2.395  17.260   2.556 -0.0066 -0.0602  0.0132
15572W        W32419   5.471   2.836   3.003 -0.2597 -0.0918 -0.0467
15573W        W32420   1.816   4.896  13.226 -0.0824 -0.0768  0.1075
15574W        W32421   5.770  10.536   1.645  0.2456  0.3426  0.1158
15575W        W32422  17.087  18.009   1.999 -0.2448 -0.0295  0.3865
15576W        W32423  10.599   4.307  13.370 -0.0953 -0.1275  0.0458
15577W        W32424   7.838  16.404   3.576  0.0868 -0.2146  0.2040
15578W        W32425   8.174   3.514  11.242  0.1988  0.1065  0.0221
15579W        W32426  11.196   8.726   2.719 -0.1600  0.1397 -0.1321
15580W        W32427   2.152   2.216  15.023 -0.0489 -0.2025  0.0575
15581W        W32428  16.690  18.136  11.026  0.1811  0.0294 -0.1298
15582W        W32429   0.399  13.827  15.451 -0.1684  0.0611  0.1714
15583W        W32430  13.045  11.926  12.850 -0.2322 -0.0325 -0.1232
15584W        W32431  17.924   0.164   3.364  0.1459 -0.2187  0.0338
15585W        W32432  18.187   5.841  10.899  0.0811 -0.2698 -0.2457
15586W        W32433  14.102   2.859   1.614 -0.1478 -0.1560  0.1199
15587W        W32434   3.687   8.297   2.943 -0.3578 -0.1907  0.0877
15588W        W32435   3.959  14.313  10.712 -0.1573  0.2714 -0.2541
15589W        W32436  13.784   4.107   5.303 -0.0649  0.2373 -0.2383
15590W        W32437   9.994  14.939   5.461  0.1365  0.4078  0.1085
15591W        W32438  17.731  10.187   1.795  0.2571 -0.0800  0.1425
15592W        W32439  14.079   5.561   4.024  0.1964  0.1785  0.2174
15593W        W32440   9.296  13.862   3.064 -0.1064  0.2155 -0.0117
15594W        W32441  10.986   3.680  12.449 -0.1853 -0.0825  0.0440
15595W        W32442   7.615  15.904  10.884  0.1435 -0.0553 -0.3311
15596W        W32443  15.258   8.219   4.254 -0.2805  0.3315 -0.0875
15597W        W32444  18.632   4.531   3.572  0.0634  0.0941 -0.0075
15598W        W32445  11.190   2.816   0.905 -0.0192 -0.1718  0.2921
15599W        W32446   0.296   5.294   4.447 -0.0866  0.1162 -0.0682
15600W        W32447  18.037  14.528  11.357 -0.1224  0.1423  0.1186
15601W        W32448   6.916   1.436   4.585 -0.0128 -0.2024 -0.4210
15602W        W32449   4.232  10.050  14.553 -0.1885  0.1100  0.0541
15603W        W32450  13.244   0.855   2.838 -0.2248  0.5062  0.0845
15604W        W32451   6.695   3.925  13.059 -0.2015  0.0378  0.1980
15605W        W32452   8.304  11.905   9.583  0.1801 -0.3589 -0.2709
15606W        W32453  18.257   2.542   3.427  0.0896  0.1372 -0.4341
15607W        W32454  18.112   5.193   4.007  0.3047 -0.4434 -0.1027
15608W        W32455  11.505   7.535   1.801 -0.2224  0.2408  0.2656
15609W        W32456   3.168   0.292   1.072 -0.1946 -0.2182 -0.3308
15610W        W32457   7.722   4.484   2.566  0.1909  0.2211  0.1119
15611W        W32458   5.509   7.302  11.043 -0.3057 -0.1647  0.3416
15612W        W32459  10.905   0.829   1.213  0.1687  0.0133 -0.2209
15613W        W32460  18.094   0.137   1.488  0.2966 -0.2720  0.0394
15614W        W32461  11.741   3.973  15.664  0.2010 -0.1643  0.1256
15615W        W32462   8.981  13.607   2.674  0.0080 -0.0399  0.0771
15616W        W32463   9.969   5.030   3.389  0.1122 -0.1037 -0.1907
15617W        W32464  16.681   2.385  11.786 -0.0261  0.1806  0.2821
15618W        W32465  18.673   1.323   4.692 -0.2194  0.0077 -0.0838
15619W        W32466   5.366   7.837   0.357 -0.1084 -0.2033 -0.2497
15620W        W32467  13.946  10.649  11.476  0.1863  0.0198 -0.1912
15621W        W32468   9.715  18.270   2.525 -0.2547  0.0303 -0.2866
15622W        W32469  18.797  13.072   0.032 -0.1423  0.2664  0.3158
15623W        W32470   2.001   5.358  12.403 -0.0048 -0.3613  0.2094
15624W        W32471  17.652   9.316  14.073 -0.0189 -0.0675  0.1075
15625W        W32472  18.164  14.971  15.104  0.3811 -0.1070  0.1602
15626W        W32473  18.109  15.109  10.894  0.1658  0.2729 -0.1061
15627W        W32474   4.702   1.812  12.660  0.0043 -0.0721  0.0844
15628W        W32475   0.659   8.667   2.811 -0.1737  0.0039 -0.0520
15629W        W32476   1.886  14.042  11.592 -0.1188 -0.1788  0.0684
15630W        W32477  14.721   6.299  14.387  0.0045 -0.1668 -0.0295
15631W        W32478  10.057  10.907   5.663 -0.1030  0.0214  0.0652
15632W        W32479  17.564   5.504   2.153  0.0610 -0.0603 -0.1287
15633W        W32480   1.690   9.468   3.801  0.0845  0.1909  0.0968
15634W        W32481   9.481   0.035   4.933 -0.0502  0.3708  0.1801
15635W        W32482  18.210  12.608   0.611 -0.0322 -0.0739  0.3743
15636W        W32483   1.037  15.515  14.852 -0.0235 -0.2779  0.2841
15637W        W32484  10.802   3.460   2.507 -0.0968 -0.0297  0.2076
15638W        W32485  17.936   9.693  11.202  0.4713 -0.1366  0.2248
15639W        W32486   9.488  12.842   4.907  0.0054 -0.0459 -0.1435
15640W        W32487  14.469  10.029  14.091  0.0112  0.3714  0.0860
15641W        W32488  11.984   9.093   1.988 -0.2114  0.0074 -0.1211
15642W        W32489   2.900   8.997   2.532 -0.3078  0.0904 -0.2271
15643W        W32490   7.902  14.464   1.573 -0.0698 -0.4114 -0.0010
15644W        W32491  18.712   9.215  12.191 -0.0393  0.1691  0.1364
15645W        W32492   1.777  17.948   4.947 -0.3324 -0.0180  0.0087
15646W        W32493   7.241   6.495  13.730 -0.3006 -0.0395 -0.2316
15647W        W32494   6.528  16.655  15.594 -0.2210 -0.0331  0.2732
15648W        W32495  11.151   7.146   0.186 -0.0474  0.2397 -0.2257
15649W        W32496  11.161   3.659  14.088  0.0560  0.1377 -0.1215
15650W        W32497   0.241  16.362  15.465  0.2586 -0.1031  0.1753
15651W        W32498  17.682   9.533  15.576  0.2487 -0.1681 -0.0367
15652W        W32499  11.455  15.869   3.150 -0.0838  0.0513  0.1435
15653W        W32500  14.588  11.534   3.576  0.1448 -0.0355 -0.1365
15654W        W32501   0.135   6.753   2.349  0.0150 -0.2713  0.1487
15655W        W32502  14.220   0.447   1.825  0.0891  0.1903 -0.0156
15656W        W32503   4.797   0.487  14.307  0.3132 -0.1925  0.1566
15657W        W32504   0.003  11.646  12.976  0.0394  0.0205 -0.0714
15658W        W32505   0.011  12.415   1.454  0.1082  0.2413 -0.1248
15659W        W32506   6.314  13.085  13.918 -0.1648  0.2786 -0.2782
15660W        W32507  12.948  10.486   0.161 -0.3200 -0.2884  0.1551
15661W        W32508  14.992  10.629   1.229 -0.1903  0.0849  0.0630
15662W        W32509   7.809   6.595  15.604 -0.3492  0.0983 -0.0597
15663W        W32510  13.278   6.568  11.824  0.1667 -0.1361  0.1405
15664W        W32511  11.323   9.333  14.329  0.1153 -0.0748 -0.0780
15665W        W32512   9.275  10.957  10.295 -0.2430  0.1345 -0.5489
15666W        W32513   2.218  11.775   1.701 -0.0488 -0.2818  0.0074
15667W        W32514  18.716   3.850  11.419 -0.0914 -0.0148  0.2336
15668W        W32515  11.633  15.832   1.724 -0.2948 -0.0399  0.0544
15669W        W32516   1.317  12.877  13.865 -0.4688  0.1267 -0.1958
15670W        W32517   2.975  17.609   4.560  0.0842 -0.2467 -0.2725
15671W        W32518   1.174  17.239   3.130  0.1057  0.0553  0.1482
15672W        W32519  14.063  10.124  15.105  0.1015 -0.0544  0.4820
15673W        W32520   3.607  18.236   2.718  0.3642  0.3107 -0.0472
15674W        W32521  11.721  15.479   2.568  0.0071 -0.1832  0.0404
15675W        W32522  15.397  16.731  14.926  0.1334  0.3487 -0.1581
15676W        W32523   9.858  12.622  15.196 -0.1096  0.2023 -0.1813
15677W        W32524  17.817  10.040  15.148  0.0918 -0.2987  0.3168
15678W        W32525   0.693   5.037   1.923 -0.3221  0.0398  0.2308
15679W        W32526   9.891   2.123   3.977  0.0464 -0.3524 -0.0702
15680W        W32527   9.870  14.163  12.661 -0.0535 -0.0170  0.0473
15681W        W32528  10.379  16.437  12.211  0.3086 -0.0203  0.2682
15682W        W32529  18.754   4.224   0.312 -0.2125  0.1655 -0.1401
15683W        W32530  18.754  14.203  12.186  0.0117 -0.4079 -0.1272
15684W        W32531   2.816   0.772  12.316 -0.0348  0.1750  0.0025
15685W        W32532   1.563  18.039  15.519  0.1592  0.1594  0.0652
15686W        W32533   2.600  11.731   4.785  0.1763  0.2016 -0.4641
15687W        W32534   1.656  12.672   3.976  0.0404  0.0648  0.2249
15688W        W32535   6.960   9.547  11.725  0.1450 -0.0032  0.2273
15689W        W32536   4.474  17.172  13.854 -0.2613 -0.2671  0.2468
15690W        W32537   7.133   2.576   1.666  0.1965 -0.1303 -0.0638
15691W        W32538  18.120  15.703  14.642 -0.1337  0.0679  0.0446
15692W        W32539   0.670   7.004   5.285  0.1450  0.1421 -0.0259
15693W        W32540   7.948   9.898  13.129 -0.1039 -0.3352  0.0811
15694W        W32541   7.613   0.302   4.846  0.2268 -0.0361 -0.0429
15695W        W32542   9.997  10.552   2.022 -0.0519  0.2456  0.0456
15696W        W32543  16.794   5.869  14.531 -0.0990  0.2666  0.2665
15697W        W32544  11.639   8.967  13.048 -0.0979  0.1554  0.0521
15698W        W32545  10.994  10.291   3.117  0.2563 -0.2236 -0.2786
15699W        W32546   6.948   2.988  13.087  0.1101 -0.0396  0.1882
15700W        W32547   6.411  10.387  13.578  0.0201  0.1763  0.0197
15701W        W32548  11.437   6.067  13.219  0.1715 -0.0031 -0.0504
15702W        W32549  12.882  13.662   5.841  0.1918 -0.0615 -0.1375
15703W        W32550  10.913   3.268   0.997  0.1113 -0.2517 -0.3187
15704W        W32551  18.137  18.547   0.103 -0.2683  0.0981  0.4724
15705W        W32552  12.003   7.881  15.286  0.3457  0.2311 -0.1576
15706W        W32553   7.433  14.899   0.607 -0.2400  0.0715  0.0147
15707W        W32554  13.508   9.129   2.490  0.0073  0.0556 -0.0032
15708W        W32555  17.539   4.708  15.636 -0.4998  0.3225 -0.1556
15709W        W32556  11.984   0.212   3.266  0.0675  0.0229  0.1213
15710W        W32557  13.999   8.885  15.617  0.1382  0.3246 -0.0734
15711W        W32558  18.250   6.279  12.417 -0.0680 -0.0156 -0.0862
15712W        W32559   7.513   8.181   3.476 -0.1498  0.0799 -0.1469
15713W        W32560  10.681   0.269   4.601  0.1189 -0.2889 -0.3062
15714W        W32561   1.122  18.294   0.037 -0.0797  0.4552  0.2782
15715W        W32562   0.660  11.674  11.222 -0.1305  0.0837 -0.0567
15716W        W32563  12.911   3.377  14.026 -0.0054 -0.0465  0.1882
15717W        W32564   6.065   1.511   0.545  0.5023 -0.0474 -0.2829
15718W        W32565  12.503   4.146  13.496 -0.1323 -0.1870  0.0619
15719W        W32566  14.878  14.760   4.341 -0.1540 -0.1150  0.2581
15720W        W32567  14.761  18.818   0.691 -0.0196 -0.2071  0.0623
15721W        W32568  12.338  10.664   5.185 -0.1165  0.2186 -0.0712
15722W        W32569   6.345  17.851   3.858  0.1805 -0.2337  0.0498
15723W        W32570   9.484  15.233   2.147 -0.0610  0.0615 -0.5438
15724W        W32571   2.525  10.806  11.036  0.3722  0.0244 -0.0415
15725W        W32572  16.539   5.519  15.697 -0.0529 -0.1777 -0.0426
15726W        W32573   4.220   3.730  11.179  0.2099  0.2133 -0.0344
15727W        W32574   8.384   9.633  14.789 -0.1950  0.0348  0.2618
15728W        W32575  10.720   9.947  13.485 -0.2809  0.0001 -0.1022
15729W        W32576   0.386  17.655   3.000  0.0125  0.0107 -0.4650
15730W        W32577   9.635  15.524   4.322 -0.0521  0.1201 -0.1728
15731W        W32578  18.495   9.235   1.886  0.2677  0.0484  0.0118
15732W        W32579   4.862  14.511   2.426  0.1753  0.0010  0.0280
15733W        W32580   5.936   1.603  14.857  0.2525  0.0726 -0.1535
15734W        W32581  16.546   2.884  15.153  0.1711 -0.1211  0.0135
15735W        W32582  10.694   3.522   3.584  0.0473  0.0644  0.0940
15736W        W32583  15.382  14.633  15.226  0.1194 -0.0244 -0.0959
15737W        W32584  10.596  12.140   4.513 -0.1766 -0.0428  0.1660
15738W        W32585  18.476  11.324  11.665 -0.0752 -0.1139 -0.2916
15739W        W32586   8.885   3.257  13.329 -0.1233  0.1521 -0.1077
15740W        W32587  12.904  18.709  12.915  0.0311 -0.1477  0.1054
15741W        W32588  16.436  11.573  12.238  0.1192 -0.2831  0.2526
15742W        W32589   6.038   4.316   0.594  0.1242 -0.0876 -0.0033
15743W        W32590  16.082   0.444  11.479 -0.3261 -0.0267  0.1037
15744W        W32591  18.635  14.347   3.976 -0.0354  0.0890  0.0672
15745W        W32592   0.288   3.431   4.249 -0.4326 -0.0868  0.2280
15746W        W32593   1.344   9.024   0.524  0.4164  0.1174 -0.0742
15747W        W32594   6.491  10.014   2.056 -0.2229  0.0279 -0.1959
15748W        W32595  16.302  16.884  12.932  0.1183  0.2556  0.5078
15749W        W32596   4.117   7.222   4.588  0.0549 -0.2021  0.2536
15750W        W32597  12.410  11.446   1.049 -0.4078  0.2083 -0.1357
15751W        W32598  16.332  10.377  14.096 -0.0007  0.0220  0.0167
15752W        W32599   2.866   5.077  12.511  0.0666 -0.2947 -0.2127
15753W        W32600  16.968   5.796  15.058  0.0828  0.2823  0.2326
15754W        W32601  14.613  14.222  13.364 -0.2783  0.1239  0.0378
15755W        W32602  14.263   3.415  12.342 -0.1773  0.1468  0.0406
15756W        W32603   7.647   4.572   1.766 -0.0754  0.0259  0.0735
15757W        W32604   8.224   7.538   3.248 -0.2009 -0.0889  0.1140
15758W        W32605   8.759   4.216   1.103  0.1487 -0.0621 -0.4160
15759W        W32606   7.523   0.349  11.611  0.0284 -0.3105  0.0951
15760W        W32607  15.614  10.476   1.860 -0.0518  0.0857  0.0564
15761W        W32608  13.913   3.728  12.623  0.0981 -0.1603  0.3081
15762W        W32609  13.809   4.937   2.958 -0.0374  0.0549 -0.3388
15763W        W32610   0.586   5.427   5.861 -0.0856 -0.5006 -0.3007
15764W        W32611   6.637   1.058   4.584  0.0785  0.0596 -0.5169
15765W        W32612  11.563  13.596   2.156  0.2011 -0.0991 -0.3350
15766W        W32613   3.011  10.929  11.071 -0.1044  0.1131  0.1096
15767W        W32614   5.432   3.991   6.052 -0.1458 -0.2754  0.1755
15768W        W32615   6.938   7.104   1.972  0.0908 -0.1542  0.2139
15769W        W32616  17.508  13.768   5.205 -0.0300 -0.0161 -0.2025
15770W        W32617  17.269  10.235   0.570 -0.0979  0.0185  0.1666
15771W        W32618   1.404   5.637  15.229 -0.1897  0.2810 -0.0643
15772W        W32619  15.561   9.343   5.007  0.3550 -0.2342  0.0006
15773W        W32620   7.997  15.603  10.548 -0.0735  0.1883 -0.1182
15774W        W32621  12.053   2.998  14.231  0.0328  0.1136 -0.0572
15775W        W32622   3.029   4.210  11.493  0.1405 -0.0384 -0.3123
15776W        W32623  14.594  18.059  14.383  0.0920  0.1051 -0.1691
15777W        W32624   7.724  14.303   0.655 -0.0538  0.2061  0.1685
15778W        W32625   3.936  10.544  15.387  0.2523 -0.1103  0.0770
15779W        W32626  11.088   7.582  12.522  0.1743  0.0837  0.2100
15780W        W32627   2.243  16.023   3.544 -0.3693  0.3455  0.1924
15781W        W32628   4.766   7.071   3.323 -0.4859  0.1075 -0.0499
15782W        W32629   1.402  16.526   4.789 -0.0667  0.3414  0.1593
15783W        W32630   6.046   4.174  14.337 -0.1444 -0.0374 -0.2059
15784W        W32631  12.475  13.732   2.489 -0.2891 -0.2871  0.0141
15785W        W32632  12.725  17.888   5.860  0.1454  0.0789  0.4737
15786W        W32633   2.145   0.322   5.223  0.5527  0.2243  0.0317
15787W        W32634  10.749  16.680  15.064 -0.1988  0.1053  0.1425
15788W        W32635   4.440   0.304   4.520 -0.1156 -0.2515  0.0651
15789W        W32636   7.360  17.504  11.369 -0.0425  0.2511 -0.0167
15790W        W32637   4.447  10.881   3.630  0.1533  0.2061  0.3048
15791W        W32638  13.306   6.919  12.828  0.0059  0.1570 -0.0437
15792W        W32639  11.459  18.462   0.145  0.0922  0.2208 -0.0266
15793W        W32640  11.884  11.441   3.410 -0.2844 -0.2467 -0.0264
15794W        W32641   2.221   5.452  11.446  0.0125  0.0673 -0.0013
15795W        W32642   0.896   4.158  15.045  0.1324 -0.0594 -0.2300
15796W        W32643   4.937   3.287   2.305 -0.0183  0.1214  0.1116
15797W        W32644  18.765  15.242   4.346  0.1427 -0.0376  0.0489
15798W        W32645   2.327  18.603   1.317  0.0425  0.2015  0.0862
15799W        W32646  11.083   3.854  15.431 -0.0258 -0.2233  0.1075
15800W        W32647  18.839   2.306   0.765 -0.2829 -0.0221 -0.0833
15801W        W32648  10.446   8.057  10.424  0.0185 -0.3393  0.2471
15802W        W32649   9.129  13.655   5.129 -0.1280 -0.0415  0.1508
15803W        W32650   9.097  11.310  11.495  0.0603  0.2174  0.2264
15804W        W32651  12.999  17.546   2.148  0.1253  0.0014 -0.3361
15805W        W32652   6.720  11.705  14.881  0.1068  0.2087 -0.3282
15806W        W32653  15.670   6.642  11.472  0.0321  0.0610 -0.2309
15807W        W32654  14.423  11.507  11.042 -0.1534 -0.0124  0.6060
15808W        W32655  16.342   8.359   0.885 -0.0624  0.3211  0.2311
15809W        W32656   4.890   4.072   0.771 -0.0762  0.1230  0.2317
15810W        W32657   4.133   8.447  12.325  0.2147  0.2127 -0.6595
15811W        W32658   5.756  14.342   4.665  0.0837  0.1859 -0.0756
15812W        W32659   3.186   7.232  11.215  0.1085 -0.2756 -0.2731
15813W        W32660   7.600   8.198   1.142 -0.0275  0.0895 -0.1028
15814W        W32661  14.950  13.029   0.808  0.0709 -0.0676 -0.3743
15815W        W32662  18.659   9.217  11.422  0.2064  0.1453  0.1301
15816W        W32663  18.129  13.703   3.997  0.1002  0.2085  0.2078
15817W        W32664  18.022  13.548  14.750 -0.0686  0.0215  0.1667
15818W        W32665  15.024  16.965  15.740 -0.1783  0.1272  0.2557
15819W        W32666   2.326   1.720   3.465  0.2881 -0.0907  0.1442
15820W        W32667  18.098  16.958  14.800  0.0305  0.1294  0.2525
15821W        W32668   4.272  12.346  12.564 -0.0862  0.4096  0.1413
15822W        W32669  14.034   8.484  12.074 -0.1590  0.2878  0.1307
15823W        W32670   9.788   6.359   4.961  0.1192  0.0840 -0.0144
15824W        W32671   2.163   3.010  11.905  0.0270 -0.0525 -0.1182
15825W        W32672   9.410   3.090  13.522  0.1143  0.1146 -0.0250
15826W        W32673  11.566  13.508   0.533 -0.4155 -0.2886 -0.0813
15827W        W32674   0.470   5.194  15.171  0.1612  0.1612  0.1838
15828W        W32675  14.647  15.884   0.169 -0.2156 -0.3588  0.1072
15829W        W32676   2.556   5.426  12.196  0.0152 -0.0826  0.1082
15830W        W32677  10.174  12.475   3.921 -0.0798 -0.3449 -0.0912
15831W        W32678  17.151   4.603  13.232  0.2531 -0.1590  0.4098
15832W        W32679  18.463  14.836   2.865  0.2922 -0.4456  0.1325
15833W        W32680  12.024  18.047   1.413 -0.1416 -0.6778  0.0703
15834W        W32681   9.421  10.683  10.718 -0.2533  0.1592  0.1793
15835W        W32682  16.900   6.728   6.403  0.1310  0.1661 -0.1790
15836W        W32683  13.189   2.033   2.296 -0.0129 -0.0263  0.2000
15837W        W32684   5.370   2.090  11.965  0.2617 -0.2638 -0.1185
15838W        W32685  14.398  13.918  14.341 -0.2803  0.3254  0.1418
15839W        W32686   1.965  11.534  12.351  0.1471  0.0991  0.1241
15840W        W32687   0.136   0.150   5.523 -0.1771 -0.0908 -0.3447
15841W        W32688   6.753  12.676  15.393  0.2758  0.2784 -0.0934
15842W        W32689   9.514   7.851  12.183 -0.0823 -0.1132  0.1028
15843W        W32690   3.671  13.683   4.459 -0.1555  0.0194 -0.1365
15844W        W32691   0.727  16.289   2.267 -0.0378 -0.0400  0.3612
15845W        W32692  17.265   3.562  12.010 -0.4909  0.1113  0.4386
15846W        W32693  15.001   0.986   2.977  0.0252  0.0722 -0.1157
15847W        W32694  16.479  14.763   5.044  0.2106 -0.1268  0.1790
15848W        W32695  11.807   4.114   4.231 -0.1409  0.0392  0.0200
15849W        W32696  11.902   3.831   1.212 -0.0947 -0.1223  0.0395
15850W        W32697  15.246   3.383   2.395  0.0374 -0.1918 -0.0008
15851W        W32698  18.865   8.515   3.960  0.1124  0.2035 -0.0857
15852W        W32699   0.032  12.977   1.120  0.0350 -0.1126  0.1077
15853W        W32700  12.255  12.325  14.997 -0.1311 -0.0099  0.1958
15854W        W32701   9.360  17.160  12.302 -0.0408  0.2804 -0.1464
15855W        W32702   0.313   7.581  13.005  0.2129  0.0804 -0.3529
15856W        W32703   4.805   4.550   2.983 -0.3805 -0.0462 -0.4629
15857W        W32704   5.721   6.603   4.816 -0.0967 -0.0446 -0.3158
15858W        W32705  11.699   8.424   1.917 -0.0525  0.1318 -0.1881
15859W        W32706  11.091   3.552  10.794 -0.0346  0.0617 -0.2005
15860W        W32707   8.728   9.237   1.234 -0.1513  0.1584  0.0184
15861W        W32708   8.552  15.957  15.048  0.1436  0.1896  0.2546
15862W        W32709  15.837  13.827  11.916 -0.0008 -0.2136  0.1316
15863W        W32710   0.220   9.304   0.680  0.1471 -0.0213  0.1361
15864W        W32711   5.909  16.543  13.326  0.2408 -0.0725 -0.3538
15865W        W32712   2.079   4.155  12.371  0.1949 -0.1004  0.0169
15866W        W32713  17.797  10.871  13.079 -0.1820 -0.4805 -0.0140
15867W        W32714   3.181  13.284   1.059  0.0343  0.4759  0.1567
15868W        W32715   7.718  14.138   2.027  0.1446 -0.1353  0.0433
15869W        W32716  16.196   9.722  11.657  0.0247  0.0030  0.1331
15870W        W32717  12.492  14.429   4.533  0.0029  0.2909  0.1351
15871W        W32718   1.880  14.079   4.132 -0.2703 -0.3173  0.0313
15872W        W32719  15.179   5.877  12.233  0.1203 -0.0596 -0.1159
15873W        W32720  11.629   8.771   5.299 -0.2834  0.1293 -0.1642
15874W        W32721   6.436  10.498   4.782 -0.2432  0.4170 -0.2881
15875W        W32722  17.963  16.875   1.057 -0.0385  0.0810 -0.2310
15876W        W32723  10.749  15.185   1.388  0.1014 -0.0225 -0.2674
15877W        W32724  14.348   0.856  14.195  0.2396 -0.1493 -0.2783
15878W        W32725  10.109   6.672  13.382  0.1078 -0.0039  0.0356
15879W        W32726   9.765  10.710   8.958 -0.1460 -0.4105  0.1667
15880W        W32727  12.233   6.816   5.767 -0.2866  0.4778 -0.1320
15881W        W32728  12.479   1.553   2.896  0.0004 -0.0261  0.1932
15882W        W32729   5.291   1.874   4.154  0.2381 -0.3429  0.4164
15883W        W32730   6.320   9.952  14.586  0.0981 -0.2092  0.0341
15884W        W32731  11.522  10.018   4.331  0.3742 -0.0771  0.4004
15885W        W32732  17.239  13.715  15.074 -0.1295 -0.0415  0.0723
15886W        W32733   3.726  18.601  13.016 -0.2741  0.1422  0.1812
15887W        W32734   5.956  15.798  14.040  0.0794  0.1689 -0.3941
15888W        W32735   9.278  11.824   0.951 -0.2841 -0.1421 -0.1971
15889W        W32736  12.544  18.320  13.060  0.0780  0.1640 -0.4792
15890W        W32737  13.312  18.608   1.724  0.0463  0.0667  0.1943
15891W        W32738  17.208   9.925   3.736 -0.2054 -0.0687 -0.0786
15892W        W32739  14.405   0.773   4.828  0.0419  0.0048 -0.0072
15893W        W32740   8.042   3.477  13.230 -0.3464  0.3603 -0.2752
15894W        W32741  18.182   4.092  13.946  0.2288 -0.0833  0.0226
15895W        W32742   7.374  10.603  14.771 -0.0163 -0.1506 -0.0143
15896W        W32743  12.409   0.800  10.563  0.3069 -0.0775  0.0223
15897W        W32744   6.711  17.642   4.236 -0.2022  0.1520  0.2412
15898W        W32745   6.077  17.296   3.580 -0.1336  0.0939  0.0837
15899W        W32746   2.047   6.572   5.165  0.3707  0.0349 -0.0164
15900W        W32747   5.835   4.065   0.972 -0.0238 -0.1304 -0.2665
15901W        W32748   2.430   9.247   0.009  0.0029  0.0877 -0.1308
15902W        W32749  13.930  12.335   2.485 -0.2585 -0.1325  0.1622
15903W        W32750  15.637  15.239   3.952  0.0895 -0.1089  0.0595
15904W        W32751  11.627   2.927  15.687 -0.1842  0.1920  0.0808
15905W        W32752   0.446  13.788  14.372  0.3411  0.0564  0.0434
15906W        W32753   8.385   7.338  11.416  0.1907 -0.2308  0.0123
15907W        W32754  17.611   8.713   2.462  0.0251 -0.1531  0.3092
15908W        W32755   4.564  10.196  13.559 -0.0343  0.1407 -0.0732
15909W        W32756   8.308   7.317  15.766  0.0790  0.0363 -0.1738
15910W        W32757   6.256  17.075  11.656  0.3476 -0.2241  0.1939
15911W        W32758  13.102   3.962   1.528 -0.0658 -0.1327  0.0328
15912W        W32759   6.558   3.165   4.422 -0.0675  0.1897 -0.1908
15913W        W32760  17.124   0.133   2.026  0.0187 -0.0099 -0.1410
15914W        W32761   4.287   4.392   5.174 -0.1600 -0.2577 -0.5286
15915W        W32762   8.584  13.844  13.802  0.0622  0.1317  0.3434
15916W        W32763  15.016   0.023  13.084 -0.1469 -0.2411  0.1701
15917W        W32764   7.015   2.673  12.725 -0.2248  0.1915  0.0148
15918W        W32765  10.744   1.381  14.647 -0.3408 -0.0792  0.3739
15919W        W32766  11.909  13.618  10.771  0.0766 -0.1247  0.1823
15920W        W32767  13.404   1.453   3.300  0.0486  0.0289  0.1257
15921W        W32768  10.076   7.514   3.215  0.1422 -0.0389 -0.0291
15922W        W32769   4.991  11.478   4.653  0.2973 -0.4456  0.0361
15923W        W32770   0.908   2.252  12.193  0.1209  0.0202  0.1598
15924W        W32771   3.592  15.358  14.364 -0.1592  0.1878 -0.1883
15925W        W32772  12.188   7.020   3.184  0.2162  0.0603  0.3321
15926W        W32773   5.710   3.302  14.157  0.0323 -0.1528  0.1512
15927W        W32774   4.246   2.007  10.594  0.2487  0.2134  0.2620
15928W        W32775  11.775   3.427  12.460  0.0574 -0.0636  0.1771
15929W        W32776  10.443   1.679  11.778 -0.2292 -0.0273  0.3749
15930W        W32777   3.844  10.694  10.952  0.2995 -0.3238  0.1115
15931W        W32778  10.870   0.378   2.766 -0.1080  0.3572 -0.1589
15932W        W32779  16.956   7.316  15.034  0.2791  0.2206  0.3760
15933W        W32780  16.992  11.723  15.394  0.0104 -0.1292  0.0443
15934W        W32781  18.855   9.638   4.797 -0.0790  0.2687  0.0617
15935W        W32782   3.627  11.848  14.456  0.1032  0.2340  0.1466
15936W        W32783   2.277  14.500  15.739 -0.4318 -0.0576 -0.1703
15937W        W32784   7.840   0.610  15.492  0.1219  0.2682 -0.0455
15938W        W32785  13.666  16.079  11.734  0.3129 -0.1500  0.0383
15939W        W32786   7.679  12.161   2.524  0.3073  0.0670 -0.3293
15940W        W32787   1.748  14.595   2.612  0.1913 -0.4190 -0.1290
15941W        W32788  11.695   3.020  13.208  0.3294 -0.1743  0.3140
15942W        W32789  18.540   9.638  14.009  0.1435  0.0128  0.0724
15943W        W32790   9.029   8.694  12.920  0.1404  0.0164 -0.0191
15944W        W32791  18.425   2.315  13.742 -0.1360  0.0833  0.2225
15945W        W32792   0.883   8.342   2.456 -0.3437  0.1993  0.1849
15946W        W32793   9.245  14.836  14.259  0.0205 -0.1353 -0.0169
15947W        W32794   6.667  12.600   2.977 -0.1305 -0.1997 -0.0802
15948W        W32795  18.469  10.430   4.401 -0.1326  0.1269  0.1935
15949W        W32796   2.047  14.225   0.725  0.1795  0.1729 -0.1040
15950W        W32797  18.712   4.251   5.283 -0.1704  0.0737  0.0558
15951W        W32798   0.167  12.651  15.129 -0.1303 -0.0085 -0.0111
15952W        W32799   7.442   2.224  13.152 -0.0532  0.2167 -0.1208
15953W        W32800  17.556   6.432   0.493 -0.1119  0.0393  0.0750
15954W        W32801  14.708   7.742   1.286 -0.3838 -0.0103  0.4310
15955W        W32802   3.517  11.774  12.763  0.0125  0.0312  0.1255
15956W        W32803   5.257   5.079  13.573  0.1377 -0.1435 -0.0001
15957W        W32804   4.812  10.422   0.314  0.0979  0.3167  0.0562
15958W        W32805  16.336   2.667  12.059 -0.2897 -0.1505  0.0784
15959W        W32806   7.662  11.706   3.061  0.1190  0.1036  0.1550
15960W        W32807   7.483   3.356   5.093 -0.0349  0.0633  0.2951
15961W        W32808   0.259   8.925   1.111 -0.2078 -0.1562  0.0537
15962W        W32809  13.842   1.743  10.864  0.2519  0.3554 -0.0050
15963W        W32810  12.644  11.330  13.571 -0.1924  0.1514  0.0166
15964W        W32811   9.123   5.798   2.791  0.0365  0.1056 -0.1125
15965W        W32812  15.824  10.747   4.722 -0.0387 -0.1256  0.1491
15966W        W32813   8.745  14.109   3.940  0.0403  0.1295 -0.3035
15967W        W32814  16.294  13.984  11.901  0.0391  0.0109  0.3912
15968W        W32815   4.667   8.299   2.365  0.0097 -0.2537  0.1906
15969W        W32816   2.331  12.793   0.580  0.0458  0.0082 -0.0457
15970W        W32817   4.671  18.159   3.140  0.0014  0.2638  0.2471
15971W        W32818  13.517  16.238  14.916 -0.1100 -0.2511 -0.0318
15972W        W32819   8.937  17.096  12.494 -0.1040  0.0110 -0.2878
15973W        W32820  17.055   5.362   4.334 -0.2774 -0.0007  0.2334
15974W        W32821   3.240   6.954   4.925 -0.1229  0.3154 -0.0827
15975W        W32822   3.265  15.008   1.322  0.1773 -0.0878  0.1594
15976W        W32823  18.599  11.666   2.139  0.0760  0.0986 -0.0818
15977W        W32824   1.573   8.183  10.817  0.0455  0.2479  0.1784
15978W        W32825  12.901   5.040   3.956  0.3425 -0.0862  0.0642
15979W        W32826  16.376   6.856   2.933  0.0513 -0.0032 -0.0978
15980W        W32827   8.656  14.029   0.792  0.2027  0.1708 -0.0746
15981W        W32828   7.245  18.080   4.772 -0.1145  0.4347 -0.1601
15982W        W32829   3.018  17.810   0.399  0.0046 -0.3519 -0.1269
15983W        W32830  17.946   6.348   4.839 -0.1084  0.4238  0.1634
15984W        W32831  12.798   9.646  12.603 -0.1238  0.1608  0.0734
15985W        W32832   0.505  17.993  11.001 -0.1701  0.2229 -0.1481
15986W        W32833   7.379   9.931  13.359  0.0647 -0.0606  0.2896
15987W        W32834  13.440  14.181   5.010 -0.1457 -0.5141 -0.1593
15988W        W32835   2.222  10.969   2.645 -0.0069 -0.0540 -0.0621
15989W        W32836  15.842   4.713   1.756  0.0349 -0.1896  0.0008
15990W        W32837  16.143  18.762   5.265  0.1204 -0.4275  0.0344
15991W        W32838  13.093   6.964   5.589 -0.2178 -0.0331 -0.1860
15992W        W32839  11.217   0.274  11.074  0.2639  0.0543  0.4378
15993W        W32840  17.157  16.930   0.392  0.0712  0.1605 -0.3225
15994W        W32841   0.338   2.142   5.640  0.0378  0.0057 -0.3230
15995W        W32842   9.905   9.988   0.225  0.4985 -0.1474 -0.3036
15996W        W32843   3.414  11.091   4.761 -0.1124 -0.2803 -0.1268
15997W        W32844   7.469  12.863   4.058  0.1854  0.1376  0.2635
15998W        W32845   3.701  12.007  14.929  0.0134 -0.0017 -0.3136
15999W        W32846   2.879  18.272  14.244  0.0198  0.1263 -0.3816
16000W        W32847   0.704  12.156  14.293 -0.0240  0.2153 -0.1510
16001W        W32848   9.424  14.673   0.856  0.1757  0.1360  0.2756
16002W        W32849  15.242  13.796  15.690 -0.1004  0.2643 -0.2526
16003W        W32850  10.165  12.678  10.723  0.2453 -0.0710 -0.1844
16004W        W32851  13.475  11.382   3.383 -0.3055 -0.0135  0.0451
16005W        W32852   3.031   5.878  15.489  0.1450  0.0578 -0.3149
16006W        W32853   5.723  11.009  14.323 -0.1236  0.1474  0.2338
16007W        W32854   2.376   7.428   3.736  0.0580  0.0722  0.0223
16008W        W32855   2.131  18.525   0.548  0.0900  0.0282  0.1788
16009W        W32856  18.753   4.428  14.783 -0.2146 -0.0327  0.0113
16010W        W32857   7.775  14.974   1.532 -0.5186 -0.0730 -0.0078
16011W        W32858  17.854  17.813   0.511 -0.2190 -0.1704  0.1005
16012W        W32859  16.015  14.863   5.196 -0.0046  0.4777  0.1870
16013W        W32860   5.199  18.004   1.634  0.1784  0.2719 -0.4707
16014W        W32861  15.886   4.055  13.595 -0.1698  0.1034 -0.0369
16015W        W32862  14.493   5.016  14.983  0.1067  0.0970 -0.3096
16016W        W32863  15.565  13.862  15.095 -0.0772  0.5260 -0.2717
16017W        W32864   1.488  12.855  11.842 -0.0817 -0.2637 -0.1127
16018W        W32865  16.539  12.840   0.223  0.0536  0.0775 -0.4340
16019W        W32866   3.166   0.284  11.535 -0.2390 -0.1048  0.0347
16020W        W32867  14.171  12.644   4.362  0.0688 -0.0786 -0.2724
16021W        W32868   6.819   8.662  13.301  0.3043  0.2897  0.1599
16022W        W32869   1.729  17.102  14.535  0.1303  0.1388 -0.1552
16023W        W32870   4.658   2.434   3.027 -0.1452  0.0384  0.0302
16024W        W32871  18.361  10.448  15.724  0.2134 -0.2357  0.0164
16025W        W32872  11.564   1.393  15.014 -0.0463 -0.2025  0.1462
16026W        W32873   0.375   4.347   5.177 -0.2227 -0.0769  0.0814
16027W        W32874  18.016   1.517  15.526 -0.1327 -0.2409 -0.0428
16028W        W32875  18.122  17.768  13.118 -0.3716  0.0663 -0.0795
16029W        W32876   9.865  12.755  11.736  0.0651  0.0725  0.2764
16030W        W32877  17.839  14.368  15.773  0.0539  0.2031 -0.1369
16031W        W32878   9.613   7.133   3.005  0.1240 -0.0647 -0.0335
16032W        W32879  10.218   2.339   1.619  0.2629 -0.2724  0.0630
16033W        W32880  18.125  15.708   3.846 -0.0479  0.0280 -0.0552
16034W        W32881  13.759  18.400   1.732  0.2442  0.0439  0.0190
16035W        W32882   2.300  14.925   4.306  0.1156  0.2364 -0.0422
16036W        W32883   0.034   6.125   5.123 -0.0876 -0.0032  0.2603
16037W        W32884   3.334   7.021  14.916  0.0026  0.0582  0.3726
16038W        W32885   1.583   2.787   1.568 -0.1005 -0.1391  0.4346
16039W        W32886  12.195   2.703  12.712  0.1960 -0.3523 -0.0503
16040W        W32887  18.144  16.334   5.329 -0.0729  0.1831  0.1975
16041W        W32888  13.637   9.744   0.770 -0.2367  0.3113 -0.2922
16042W        W32889  14.708   6.341  11.292  0.0652 -0.0143 -0.0968
16043W        W32890   1.199   9.752   1.067  0.3207  0.3716  0.0027
16044W        W32891  11.420  11.972  10.176 -0.0499 -0.4599 -0.3788
16045W        W32892   9.521   5.563   3.161  0.0158 -0.4287  0.0825
16046W        W32893  11.327   1.952   4.300 -0.0733 -0.0788 -0.1176
16047W        W32894   4.056  16.618   0.688  0.1105  0.2546  0.2079
16048W        W32895   5.263  18.613  12.669  0.0235  0.0314  0.0657
16049W        W32896   2.102   4.110   1.808  0.0515  0.1695  0.2173
16050W        W32897  17.817  18.728   4.396  0.3202 -0.0185  0.4282
16051W        W32898  17.636  18.133  12.633  0.1823  0.0078  0.1670
16052W        W32899  15.804   5.525   5.321 -0.0732 -0.0575 -0.0091
16053W        W32900  10.709  16.368   5.002 -0.2439  0.2451  0.1355
16054W        W32901   3.250  12.728   4.025  0.1063  0.0585 -0.1111
16055W        W32902   4.092  10.604   5.327  0.1075 -0.2703 -0.1247
16056W        W32903  11.427  13.554  15.445  0.0937 -0.1331  0.1903
16057W        W32904  10.736  16.452   4.262 -0.0575 -0.2512  0.2185
16058W        W32905  11.290  16.239   3.812 -0.0058 -0.0984 -0.3057
16059W        W32906  15.592  17.042   3.816 -0.2124  0.1065  0.1184
16060W        W32907  15.755   4.667   2.476 -0.1679 -0.0392  0.1891
16061W        W32908  15.796   4.878   1.221 -0.0840  0.1232  0.1300
16062W        W32909   6.609  16.466   2.050 -0.1683 -0.0637  0.0865
16063W        W32910   3.157   8.342   2.888  0.0338 -0.0676  0.1178
16064W        W32911   7.686  17.572   4.156 -0.3768  0.2999  0.0298
16065W        W32912  17.748  11.485  12.970  0.0477  0.0693 -0.0576
16066W        W32913   2.519  14.994  15.703  0.1049  0.0954 -0.3898
16067W        W32914   4.850   2.740   3.786 -0.2366 -0.0413 -0.0819
16068W        W32915  14.138   3.315  15.042 -0.0404 -0.4743  0.0566
16069W        W32916   0.070   7.977  14.000 -0.1328  0.0668  0.0146
16070W        W32917  12.143  17.516  13.870 -0.3303 -0.1469  0.0106
16071W        W32918   8.818   7.356  14.288 -0.1593  0.1078 -0.0792
16072W        W32919  14.217   5.048  13.508  0.2209  0.1189 -0.1223
16073W        W32920   0.048  18.144   1.201  0.1227  0.0991 -0.1108
16074W        W32921  18.311   6.755   4.805  0.0657  0.0923  0.1681
16075W        W32922  14.128   8.944   4.759 -0.2082 -0.0260 -0.3386
16076W        W32923  16.318   1.989  11.743  0.2409 -0.1847 -0.0116
16077W        W32924   9.472   1.608   3.289  0.3120 -0.0841  0.0697
16078W        W32925  11.306  14.945  14.877  0.2186  0.2778 -0.1856
16079W        W32926   7.677  13.224   4.783  0.3719 -0.1207  0.3346
16080W        W32927   6.618  16.369  10.655  0.0090 -0.0724  0.2091
16081W        W32928  15.053  11.125   5.260 -0.1813 -0.2176 -0.0419
16082W        W32929  14.103   9.162   1.705 -0.0930  0.2417 -0.0335
16083W        W32930  15.427   9.922   0.734 -0.4431 -0.1069  0.0704
16084W        W32931   7.978   6.959  13.606  0.0715  0.1017 -0.0938
16085W        W32932  10.631  17.152  10.401  0.0340 -0.2356 -0.1443
16086W        W32933  16.464   3.151  14.389  0.0935  0.0117 -0.0915
16087W        W32934  14.640   3.618   2.472  0.0587 -0.0014  0.1501
16088W        W32935   3.926   8.268  14.156 -0.1539 -0.0679 -0.1356
16089W        W32936   9.623  12.887  10.498 -0.0378 -0.0256 -0.0430
16090W        W32937  14.685   3.934  11.973  0.0198  0.1009 -0.2101
16091W        W32938   1.810   5.428  11.699  0.0387  0.0961  0.1521
16092W        W32939   4.305  15.123  10.587 -0.0961  0.0166  0.0866
16093W        W32940  11.135   7.988   1.833 -0.0171 -0.1649 -0.3263
16094W        W32941   6.178   4.490  14.967 -0.3930 -0.2150 -0.4381
16095W        W32942   9.337  11.605  11.051 -0.0226  0.0545 -0.1329
16096W        W32943  15.218   1.938   5.569 -0.2958  0.1087  0.0227
16097W        W32944  18.675   4.118  13.803 -0.1428 -0.0320  0.0451
16098W        W32945  15.826   2.818  13.266 -0.2819  0.1983 -0.1282
16099W        W32946   7.453   0.221   3.857 -0.0944 -0.0520  0.1351
16100W        W32947   1.770  11.057  15.688 -0.0175  0.0229  0.1380
16101W        W32948  13.517  18.287   2.982 -0.2859 -0.2200  0.0891
16102W        W32949   2.619   4.618  15.200 -0.2251  0.0604 -0.1926
16103W        W32950   9.937  17.371   1.852  0.0215  0.0443  0.2492
16104W        W32951   0.776   1.654   2.798  0.2231  0.0452  0.2449
16105W        W32952  15.676  11.952   2.902  0.1953  0.0419 -0.2085
16106W        W32953   5.260   0.104   2.963 -0.0756 -0.1132  0.1414
16107W        W32954  17.135  17.135  10.748  0.5440  0.1036 -0.0388
16108W        W32955  11.507   5.351  11.150 -0.1056 -0.2068  0.0251
16109W        W32956   7.191   3.958  11.177 -0.0797  0.3781 -0.3710
16110W        W32957  18.345  16.354  12.346  0.1882  0.0741  0.0550
16111W        W32958  18.647  16.745  11.033 -0.2494  0.0520 -0.0229
16112W        W32959   0.644   7.450   1.650  0.0523  0.2850 -0.1666
16113W        W32960  14.554   5.836   2.597 -0.1947  0.3526  0.3030
16114W        W32961   6.960   8.203   1.332  0.3564 -0.1200  0.2985
16115W        W32962   0.802  18.035   1.833 -0.4220 -0.1836  0.0387
16116W        W32963   0.195   4.822  13.245  0.0765 -0.1458 -0.0371
16117W        W32964   7.492  12.014  12.245 -0.2254  0.1656 -0.2768
16118W        W32965  10.420   4.687  10.840 -0.2043  0.1941  0.1535
16119W        W32966  17.780   2.415  15.351 -0.0209  0.1267  0.1090
16120W        W32967   8.212   4.915  13.161  0.0385  0.4605 -0.2032
16121W        W32968   2.241  18.680   2.660 -0.3109 -0.0573  0.2401
16122W        W32969  17.485  18.699  14.661  0.0629  0.0582  0.0432
16123W        W32970  12.852   1.320   5.128 -0.0849 -0.3168 -0.1751
16124W        W32971   8.662   9.536   0.392 -0.3262  0.0790 -0.2963
16125W        W32972   6.153   0.784  11.000  0.0579 -0.1792 -0.3200
16126W        W32973  16.283   3.003   0.111 -0.0209 -0.1750  0.0739
16127W        W32974   3.722   4.649  13.886 -0.0359 -0.0068 -0.0512
16128W        W32975   2.156   6.588   0.230 -0.1860 -0.1974 -0.2906
16129W        W32976   0.748  14.495   3.070  0.2366  0.1047  0.1950
16130W        W32977   3.672  12.939  15.119  0.1138 -0.1150  0.1714
16131W        W32978   1.228   1.013   2.869 -0.0099  0.0745 -0.1219
16132W        W32979   8.285   0.815  13.392  0.3883 -0.0389  0.4171
16133W        W32980   8.822  11.928   4.869 -0.0162 -0.0264 -0.3166
16134W        W32981   9.906  11.936  15.201 -0.1667  0.0645 -0.2158
16135W        W32982   0.415   5.832  13.278  0.2164 -0.1163 -0.0179
16136W        W32983  17.205  10.991   4.681 -0.2036  0.1474  0.2018
16137W        W32984   6.581   3.166  12.244  0.0302  0.1757 -0.2454
16138W        W32985   3.952  14.058  14.177  0.1317  0.0262 -0.1964
16139W        W32986  12.866  10.858  13.626  0.1541  0.0899 -0.2930
16140W        W32987   8.722  12.049   3.875 -0.2179  0.0208  0.1397
16141W        W32988   7.092   5.930   1.425 -0.0495  0.0521  0.2146
16142W        W32989  11.174  13.674   2.899 -0.0024  0.2658  0.0347
16143W        W32990   4.230  10.068  14.027  0.2046  0.0361  0.2055
16144W        W32991   6.873  12.566   0.432 -0.0650 -0.3905  0.4022
16145W        W32992  11.124  18.700  10.871  0.1007 -0.1351  0.2009
16146W        W32993   2.672  18.377   4.095  0.1413 -0.2082 -0.0126
16147W        W32994   0.462  15.599  14.883 -0.0369  0.1831  0.0956
16148W        W32995  10.079  10.304   3.530 -0.2142  0.1235  0.1300
16149W        W32996   9.865   8.381   4.999 -0.1041  0.1429 -0.0717
16150W        W32997   9.138   4.317   0.296 -0.1819  0.2943 -0.2648
16151W        W32998   7.494  14.681  13.564 -0.2032  0.0165  0.0968
16152W        W32999  15.971  16.187  14.589 -0.1383  0.1094  0.1259
16153W        W33000   5.237  11.070   1.699  0.0306 -0.0262  0.0256
16154W        W33001  14.783  16.728   4.075  0.0614  0.0839 -0.0725
16155W        W33002   2.237  12.170   3.507 -0.2038  0.0379  0.1684
16156W        W33003   5.337  16.159  15.383  0.1455 -0.5059  0.0936
16157W        W33004   8.486  16.251   0.864 -0.1769  0.0469 -0.0208
16158W        W33005  10.629   7.332  13.796 -0.3849  0.4735 -0.2576
16159W        W33006  14.563   6.443   2.478 -0.0186  0.4001 -0.1070
16160W        W33007   2.011   2.181  10.683 -0.0020 -0.2960  0.1024
16161W        W33008  11.740  11.156   0.084 -0.0378  0.0711 -0.3316
16162W        W33009  10.718   3.646   4.284 -0.1923  0.0782 -0.2232
16163W        W33010  13.546  13.783   2.522  0.2189  0.3788  0.1812
16164W        W33011  16.163  15.061  11.997 -0.1202 -0.0566  0.2374
16165W        W33012  11.900   9.038  14.620 -0.2544  0.1375  0.0126
16166W        W33013  16.052  11.243   0.414  0.2001  0.0704  0.1184
16167W        W33014  12.348  14.957  13.013 -0.0885  0.2080  0.0659
16168W        W33015   7.628  17.993   2.884 -0.1763 -0.0180 -0.1235
16169W        W33016  18.282  17.980   0.372  0.0627 -0.1370 -0.3787
16170W        W33017  14.546   2.897  15.131  0.0053  0.2229  0.0695
16171W        W33018   9.154   5.240  13.924 -0.0789 -0.2221 -0.3694
16172W        W33019  12.482  17.968   1.845 -0.3139 -0.0155 -0.1049
16173W        W33020   7.868   5.884   3.971 -0.0725 -0.1811  0.0252
16174W        W33021  13.114  13.928   5.373 -0.2274 -0.2441 -0.0258
16175W        W33022   7.899   1.745  10.653  0.0375  0.3131  0.1376
16176W        W33023  12.356  16.741  11.397 -0.1669 -0.0531  0.2067
16177W        W33024  17.726  15.227  12.986  0.2320  0.3064  0.3362
16178W        W33025   4.281   9.184   3.830 -0.1741  0.0259  0.1281
16179W        W33026   8.611  14.711  12.044 -0.0858 -0.1098  0.0959
16180W        W33027   1.542  14.338  13.074  0.0842  0.0021  0.0325
16181W        W33028  14.653  13.540   2.273 -0.2864 -0.0211  0.2912
16182W        W33029  13.030  12.511  11.282 -0.0001 -0.0586 -0.2406
16183W        W33030   8.258   4.794   1.467 -0.2471  0.1065  0.3342
16184W        W33031  16.015  16.312  14.072 -0.0583  0.1246 -0.0760
16185W        W33032   3.111   8.406   4.201  0.1692  0.2365 -0.0802
16186W        W33033  14.585   4.088   2.328 -0.1827  0.1246 -0.3618
16187W        W33034   1.346  16.337   3.319 -0.2414 -0.0883 -0.1477
16188W        W33035   9.876   3.180   0.550  0.2863 -0.1424 -0.0590
16189W        W33036   7.711  15.116  11.390  0.2780  0.0922  0.1939
16190W        W33037   3.189  16.711  12.425 -0.3981  0.3501 -0.0532
16191W        W33038  11.104   6.279  11.540 -0.1116 -0.0026 -0.1855
16192W        W33039   0.240   2.985   4.131 -0.2244  0.0229  0.1093
16193W        W33040   2.570   2.040  11.515 -0.3281 -0.0335 -0.0006
16194W        W33041  11.915  10.604  11.485 -0.2573  0.0168 -0.1995
16195W        W33042   5.756  17.541  13.095 -0.0636  0.0518 -0.1671
16196W        W33043  13.663   4.058  14.997 -0.1734 -0.0109 -0.3137
16197W        W33044  18.649   2.301  12.917 -0.3276  0.1277 -0.0376
16198W        W33045   6.064  14.320   3.962  0.2245  0.3455  0.0154
16199W        W33046  13.081   2.388   5.459 -0.0655 -0.1090 -0.2330
16200W        W33047   1.568  18.662  12.913  0.1073 -0.2848  0.1876
16201W        W33048   7.129   4.899   4.668  0.0295  0.3761 -0.1153
16202W        W33049  11.688  18.476  11.933  0.1177 -0.1546  0.2491
16203W        W33050  18.748  17.696   1.397  0.2806  0.0816  0.0593
16204W        W33051   7.743   2.803  11.987 -0.0396  0.1310  0.1563
16205W        W33052   9.126   8.925   0.021 -0.3733  0.0762 -0.4395
16206W        W33053   6.093  16.314   3.333 -0.2196  0.0581 -0.0195
16207W        W33054  10.055  17.428   2.349  0.0875  0.2866  0.0190
16208W        W33055  18.559  14.695  11.122 -0.1326  0.1452 -0.0219
16209W        W33056   5.554   7.576   2.445  0.2098  0.0288 -0.4020
16210W        W33057  11.261  16.309  15.467  0.0453  0.0258  0.1049
16211W        W33058   1.697  16.903   1.467 -0.1794  0.2117 -0.0965
16212W        W33059   7.697   3.572   1.006 -0.1181  0.0815  0.1347
16213W        W33060  15.592   5.704  14.757  0.1742  0.0531  0.0931
16214W        W33061   0.877   7.933   4.257 -0.0927  0.0329  0.2974
16215W        W33062  16.110   6.275   5.201 -0.2808  0.3775 -0.1536
16216W        W33063   7.247   8.604  13.506 -0.1912  0.1298  0.1900
16217W        W33064  18.463   7.841  14.093  0.2520 -0.1763  0.3049
16218W        W33065   3.712   9.702  11.801  0.3269  0.1235 -0.1237
16219W        W33066  12.847   8.819   4.118  0.0678  0.2739 -0.0662
16220W        W33067   2.531  13.189   0.793 -0.1575  0.0738  0.1547
16221W        W33068   9.369   2.580  11.783 -0.1516 -0.0988 -0.0029
16222W        W33069  14.538  11.749   0.520 -0.0853  0.2454 -0.1782
16223W        W33070  10.400  11.480  13.485  0.3393  0.1416 -0.1112
16224W        W33071  13.069   9.911  15.213  0.1288  0.0181  0.0302
16225W        W33072   8.221   2.941   3.960 -0.2023 -0.1015  0.3636
16226W        W33073  18.261   5.182   3.349  0.4659 -0.4506  0.1738
16227W        W33074  15.677  15.731  13.414 -0.0314 -0.1275 -0.2377
16228W        W33075   1.293  18.841  15.196 -0.1372 -0.2590  0.1767
16229W        W33076   3.062  10.891   4.090  0.0716 -0.1037  0.0108
16230W        W33077  17.777   2.901  12.498 -0.1567  0.1003  0.2908
16231W        W33078  14.323   9.238  13.862 -0.1057  0.0930  0.0250
16232W        W33079  12.377   4.945   3.973 -0.0305  0.2427  0.0138
16233W        W33080   1.524   4.851   0.590  0.2020  0.0031 -0.1539
16234W        W33081   9.739  14.995  10.990  0.0389  0.1265 -0.0355
16235W        W33082   2.449  11.049   4.184 -0.2633 -0.4732  0.3827
16236W        W33083  14.159   7.705  15.700  0.0334  0.0617  0.1893
16237W        W33084   9.687  15.660  13.912 -0.0275  0.3451  0.2849
16238W        W33085   9.406   8.573   2.159 -0.2683  0.0406 -0.0488
16239W        W33086  10.623   8.804   1.917 -0.0981  0.2850  0.2389
16240W        W33087   7.298   6.867   2.819 -0.1262 -0.0183 -0.1090
16241W        W33088   4.979   1.825  14.508  0.2235  0.1066 -0.1729
16242W        W33089   2.252  13.191  14.129 -0.0976  0.1446  0.0658
16243W        W33090   1.215  14.954  12.381  0.1730  0.0370  0.0326
16244W        W33091  12.217  10.593   2.275 -0.1173  0.2125  0.0679
16245W        W33092  11.991   9.054  10.863  0.0220  0.0533 -0.0254
16246W        W33093   5.404   5.058  14.841  0.1840  0.2080  0.0122
16247W        W33094  14.038  17.441   4.056  0.3681  0.0674 -0.2213
16248W        W33095   7.152   9.699  13.895 -0.0428  0.1998  0.0133
16249W        W33096   6.605  10.578  10.759  0.3384 -0.0481  0.0900
16250W        W33097   6.104   5.953   1.270 -0.1503 -0.1262 -0.3213
16251W        W33098  14.329   2.055  11.661 -0.0061 -0.0159 -0.0944
16252W        W33099  14.934   6.431  14.827 -0.3211  0.0152  0.0403
16253W        W33100   3.894  13.363   3.569  0.0876  0.2345 -0.1888
16254W        W33101   9.303  14.640  14.733 -0.1870  0.1489 -0.4605
16255W        W33102   9.922  11.185   0.675  0.1593 -0.0707 -0.3613
16256W        W33103   1.112   1.535  12.185  0.0298 -0.2287  0.1425
16257W        W33104   1.341  11.386  15.344 -0.0860  0.1561 -0.0133
16258W        W33105  15.577   5.074   2.171 -0.0327 -0.1241  0.1187
16259W        W33106  10.091  15.742   4.351  0.3828  0.1305 -0.2368
16260W        W33107   6.485   8.254  11.600  0.0854 -0.0061 -0.2956
16261W        W33108   9.103   6.626  12.539  0.1073 -0.1567 -0.0512
16262W        W33109  17.899   7.166  12.098  0.4761  0.2436  0.2075
16263W        W33110   6.766   6.528  15.709  0.0656 -0.0230 -0.2649
16264W        W33111   8.378   6.208  11.494  0.2039  0.2707  0.1395
16265W        W33112  18.473   9.627   4.140 -0.0493 -0.0374  0.0463
16266W        W33113   4.793   6.242  15.056  0.0159  0.1770  0.0792
16267W        W33114  18.703  13.894   5.269  0.4294  0.0129 -0.0985
16268W        W33115   7.573  17.851   4.534 -0.1866 -0.1031 -0.1449
16269W        W33116   0.115   9.100   2.302  0.0656 -0.1341  0.0983
16270W        W33117  10.868  14.067   2.650 -0.0052  0.0869  0.1703
16271W        W33118  11.611   1.280  14.509 -0.1273  0.3462  0.2750
16272W        W33119  15.424  14.111   1.375 -0.3452  0.1036 -0.3501
16273W        W33120   7.982   6.338   1.364  0.2577  0.2049 -0.0175
16274W        W33121   8.628  10.181   0.496  0.1338 -0.3590 -0.0671
16275W        W33122  10.929   7.145   4.919  0.3043 -0.0971 -0.1140
16276W        W33123   1.173  11.287   4.636  0.1902  0.0633  0.1896
16277W        W33124  16.927  14.696  12.303 -0.1114  0.3728  0.0092
16278W        W33125  17.177  14.513   5.522  0.2624  0.1800 -0.3028
16279W        W33126   7.511  17.668   3.706 -0.0773  0.0051  0.1297
16280W        W33127  13.210   6.094   1.547 -0.1389 -0.3552 -0.1062
16281W        W33128   3.568  10.059  13.780  0.0922  0.2187  0.3254
16282W        W33129   9.184   4.492  12.391 -0.2091  0.0758 -0.4859
16283W        W33130   5.612   7.986   4.438 -0.0982  0.1171 -0.0156
16284W        W33131   8.917   7.757  15.411 -0.0023  0.1482 -0.1845
16285W        W33132  17.154  14.816   0.222 -0.1945 -0.0016  0.0414
16286W        W33133   5.830  18.764  11.082  0.0067 -0.2379 -0.3276
16287W        W33134  11.479  15.488   4.120  0.0454  0.0282 -0.0680
16288W        W33135  13.341   7.467  12.918  0.1557  0.1502 -0.0513
16289W        W33136   6.102   8.204  11.927 -0.0232  0.1810  0.2221
16290W        W33137  14.409  11.199   3.216 -0.0605  0.0681  0.1088
16291W        W33138  10.251  18.717   3.053 -0.0489 -0.1440  0.4435
16292W        W33139   5.723  13.984  10.909 -0.2551 -0.1162  0.0705
16293W        W33140  12.254   5.991   2.402 -0.0549 -0.1286  0.1141
16294W        W33141   2.538   5.119  14.596 -0.2093  0.0054 -0.0974
16295W        W33142  10.138   2.893   5.140 -0.1530 -0.1214  0.1799
16296W        W33143   9.404  16.653  11.008  0.1435  0.1332  0.4329
16297W        W33144  15.036  18.487  12.144  0.2488  0.0591 -0.0145
16298W        W33145  15.212   9.584   3.817  0.1273 -0.1906 -0.0885
16299W        W33146   7.931  14.966   3.021 -0.1936 -0.0444  0.0257
16300W        W33147   3.201   5.798  14.200  0.0136 -0.0616 -0.1850
16301W        W33148   0.404  18.049  14.708 -0.3882  0.1842  0.2258
16302W        W33149  10.281  15.601   1.600  0.3153  0.2885  0.1020
16303W        W33150   9.410  12.492   2.887  0.1360 -0.2657  0.1905
16304W        W33151   0.862  11.311   3.196  0.1378 -0.0170  0.1008
16305W        W33152  11.743   9.980  11.721 -0.4548 -0.1156  0.3275
16306W        W33153   8.165   7.580  10.992  0.0123 -0.1839  0.2690
16307W        W33154  17.830   8.541  11.380  0.3375 -0.1329  0.0208
16308W        W33155  16.286  17.123   2.641  0.1274 -0.1476  0.0651
16309W        W33156   1.335   7.252  14.294 -0.4211  0.2447 -0.1160
16310W        W33157  15.652   2.342   3.536 -0.0101 -0.1040  0.2378
16311W        W33158   3.255   7.919   0.873 -0.0748  0.3278 -0.2841
16312W        W33159   3.488  10.302  13.323  0.3065  0.3269 -0.0039
16313W        W33160   9.442   4.234   2.028  0.1300 -0.3422 -0.0675
16314W        W33161  13.534  15.488   5.678  0.0841 -0.1404  0.2938
16315W        W33162   4.521  16.345   2.405 -0.1005 -0.1202 -0.2661
16316W        W33163   0.881   6.443  13.330 -0.0840 -0.0052 -0.0574
16317W        W33164   7.393   1.117   2.280 -0.4319  0.0146  0.0583
16318W        W33165  16.498   9.463  12.521 -0.3501  0.0501  0.1941
16319W        W33166   2.637  11.307  11.058 -0.1916 -0.1820 -0.3063
16320W        W33167   3.450   7.098   2.225  0.2833 -0.0096  0.2541
16321W        W33168  12.654  14.937   1.214  0.0662  0.2867 -0.1518
16322W        W33169   8.916   9.765   2.919 -0.1407 -0.3597 -0.1597
16323W        W33170  17.935  14.826   4.502  0.3460 -0.1620  0.3359
16324W        W33171   3.258  14.079  11.096  0.2136 -0.2094  0.1035
16325W        W33172  16.962  10.615  13.653  0.0597  0.0873 -0.1090
16326W        W33173  11.038   8.026  11.150 -0.1866  0.1765 -0.3321
16327W        W33174  12.511  12.231   3.275  0.0907  0.0060  0.2597
16328W        W33175   3.115  13.981   3.775 -0.2449  0.1135 -0.0386
16329W        W33176  10.275   9.466  14.196  0.1726  0.0710  0.3659
16330W        W33177   9.708   8.900   1.857  0.1750  0.0221 -0.2119
16331W        W33178  14.677  13.538  11.719  0.0592  0.1901 -0.2131
16332W        W33179   5.543  17.408  15.043  0.2821 -0.0303 -0.2057
16333W        W33180  13.019   0.941  12.356  0.1175 -0.0498 -0.0325
16334W        W33181  13.572   2.575  15.280  0.4492  0.2489 -0.1769
16335W        W33182  12.161   9.130  13.744 -0.4455 -0.0963 -0.2513
16336W        W33183   0.685   2.383  11.262 -0.0724  0.1834  0.1183
16337W        W33184  14.447  16.638  11.999  0.0293  0.0577 -0.0255
16338W        W33185  11.790  18.250   4.358  0.0893  0.0352  0.2321
16339W        W33186  12.530  14.357   2.596 -0.0232 -0.0501 -0.0779
16340W        W33187  12.283   8.945   9.881 -0.1448 -0.1801  0.1856
16341W        W33188   5.142   8.285   0.250  0.0655 -0.3457 -0.0492
16342W        W33189   0.512   2.950   2.242  0.2242  0.1582  0.3281
16343W        W33190   4.279  14.829  11.575  0.1882  0.2111  0.0443
16344W        W33191  10.899  13.491   4.577  0.1075  0.0997 -0.1432
16345W        W33192   4.316  10.465  12.356  0.3407 -0.2609 -0.2071
16346W        W33193   7.955   6.488  15.025 -0.0693  0.0859 -0.2564
16347W        W33194   2.960   5.608   3.825  0.1815 -0.1748  0.1778
16348W        W33195  16.832   0.683  12.279 -0.0472  0.0918  0.0776
16349W        W33196   5.935  12.996   0.759  0.0281 -0.3536  0.1967
16350W        W33197  15.279  16.223  14.899  0.2023  0.3274  0.2486
16351W        W33198   2.265   7.705   2.222  0.0498 -0.2151 -0.1969
16352W        W33199  15.382   9.008  11.758 -0.2757  0.2167 -0.2159
16353W        W33200  11.111  18.330  11.235 -0.0819  0.2103 -0.1008
16354W        W33201   6.570   5.711   1.638 -0.1650 -0.2898  0.1432
16355W        W33202  12.460   5.140   2.626  0.1941 -0.1825 -0.0713
16356W        W33203  14.154   6.230  11.565  0.0533  0.2373 -0.1333
16357W        W33204  13.336   6.133  14.978 -0.0695  0.3110 -0.0047
16358W        W33205   3.078   8.237   3.720  0.3233 -0.0542  0.0982
16359W        W33206   6.603   6.052   2.888  0.0641 -0.3361  0.1840
16360W        W33207  14.140   4.175   1.752  0.2139  0.1628 -0.0778
16361W        W33208   1.890  12.646   3.413 -0.2604  0.2860  0.1364
16362W        W33209   3.126   5.235  12.902 -0.0769 -0.2293  0.0049
16363W        W33210   0.029   5.082   3.639 -0.2007  0.2166 -0.1545
16364W        W33211   7.890  13.036  11.261 -0.1744 -0.0357 -0.0294
16365W        W33212   1.371  18.836   4.444 -0.2766 -0.1786 -0.0891
16366W        W33213   3.045   2.705   2.660 -0.2120 -0.2786 -0.1793
16367W        W33214   9.622  10.838  12.922 -0.1506 -0.0914  0.2161
16368W        W33215   2.817   0.240   0.205  0.0380 -0.0999  0.0836
16369W        W33216  13.778  11.773  11.755 -0.0788 -0.3811 -0.0307
16370W        W33217   5.654  10.048   4.915 -0.2429 -0.3568  0.0471
16371W        W33218   0.777  11.303   1.174  0.1298  0.3008 -0.2779
16372W        W33219  10.085   6.030  15.346 -0.0574  0.0269 -0.0717
16373W        W33220   2.125   0.123   1.690  0.4126  0.2183  0.1836
16374W        W33221  10.336   0.599  15.162  0.3572  0.1578  0.2375
16375W        W33222   0.456   3.379   3.624 -0.1263  0.1242 -0.1811
16376W        W33223  16.907   5.237  14.483  0.0820 -0.1437 -0.0059
16377W        W33224   5.341   2.905  15.744  0.0656 -0.0416  0.1910
16378W        W33225  12.159  12.447  12.991 -0.1875 -0.0414 -0.1224
16379W        W33226  15.549   0.137   4.440  0.2347  0.0088  0.1989
16380W        W33227   7.632  14.313  14.390  0.2073  0.0362 -0.1330
16381W        W33228  13.112   8.743   3.609 -0.4368 -0.0290 -0.1691
16382W        W33229  14.330   6.446  13.443 -0.0527  0.2290  0.0289
16383W        W33230  10.730   6.517   0.980 -0.0593  0.1768 -0.3190
16384W        W33231   1.278   5.449   3.027 -0.2022  0.0733  0.3063
16385W        W33232   1.152   1.242  14.851  0.0985  0.2209  0.3775
16386W        W33233  13.475   4.857   4.373 -0.0418  0.1619  0.1779
16387W        W33234  12.795   2.292   4.352 -0.1619  0.4731 -0.2955
16388W        W33235  11.873   9.855  14.940 -0.1165  0.3420  0.0901
16389W        W33236  13.757  18.181  15.139  0.1655  0.0774  0.0110
16390W        W33237  13.130  12.503   5.135  0.2339  0.0233  0.0477
16391W        W33238   7.524  11.066  15.414 -0.2084 -0.0737  0.1197
16392W        W33239   2.534  17.196  11.902 -0.1165  0.0802  0.0180
16393W        W33240  11.673   3.133   2.230  0.0262 -0.2760 -0.0420
16394W        W33241  18.344  14.246   2.632  0.0188 -0.1005 -0.0326
16395W        W33242  13.884   4.593  11.666  0.3610 -0.0838 -0.0525
16396W        W33243  14.832   8.406   1.668 -0.0867 -0.3277  0.1962
16397W        W33244   9.996   9.306  12.495  0.0851 -0.1899  0.1701
16398W        W33245   8.928  10.524  10.262 -0.1175 -0.2282 -0.1801
16399W        W33246  15.707  11.816  12.368 -0.1045  0.1523 -0.0073
16400W        W33247   6.564  12.893   4.000  0.0066  0.2071  0.3364
16401W        W33248  14.487   1.969  12.959  0.0579 -0.1697 -0.1492
16402W        W33249  17.055   9.348   4.004  0.2034 -0.1766  0.0413
16403W        W33250   6.723  15.412  14.702  0.2105 -0.2105  0.5433
16404W        W33251  12.267   8.204  13.597 -0.3293 -0.1539  0.3326
16405W        W33252   5.494   2.212  12.469  0.3029  0.1718 -0.1342
16406W        W33253  15.174  17.819  13.349  0.0118  0.1786  0.0790
16407W        W33254  18.326  11.526   3.793 -0.0335  0.0096 -0.0191
16408W        W33255  10.854   3.422   1.965 -0.1826 -0.3346 -0.1246
16409W        W33256  18.832  12.293  14.499  0.1897  0.1223  0.2346
16410W        W33257  14.196  15.844   3.831  0.2848 -0.0774 -0.1490
16411W        W33258  12.915   6.797   4.319 -0.1942 -0.0917 -0.0316
16412W        W33259  11.292  10.537   4.605  0.3587  0.0794 -0.1048
16413W        W33260  15.556   0.168   1.581  0.0909 -0.1202 -0.0168
16414W        W33261  15.447   0.953  12.556 -0.1248 -0.0678 -0.0311
16415W        W33262   0.244  13.051   4.855 -0.0979  0.0485  0.1147
16416W        W33263   0.554  15.999   0.961  0.0987 -0.0540 -0.2159
16417W        W33264   9.482   6.046   2.509 -0.0856  0.0483 -0.0084
16418W        W33265  13.776  17.659   0.093 -0.0162 -0.3149  0.1852
16419W        W33266  16.388  17.214   6.144  0.0674  0.3176  0.0573
16420W        W33267   8.900  14.886   0.865 -0.0034  0.1613  0.0173
16421W        W33268  10.598   5.823   0.222 -0.0338 -0.1447 -0.0354
16422W        W33269  18.383  16.662  11.897  0.0995 -0.0328 -0.0619
16423W        W33270   6.951   1.718   3.163  0.0643  0.2327  0.1103
16424W        W33271   4.875  15.985  10.524  0.5052 -0.1769  0.2197
16425W        W33272   6.058  11.078  12.685  0.1881 -0.0374 -0.0025
16426W        W33273   6.632   9.953  13.147  0.1863 -0.2847 -0.1732
16427W        W33274   8.228  18.196  14.733  0.1033  0.1276 -0.2554
16428W        W33275   8.049  18.124  11.760 -0.0201  0.0202 -0.1086
16429W        W33276  10.860  13.680   1.218  0.0441 -0.0555  0.1825
16430W        W33277  14.293  17.355   5.129 -0.2238  0.1226  0.0609
16431W        W33278  10.422   2.839   1.589  0.0163 -0.2260  0.0164
16432W        W33279  13.796   5.957   5.936  0.2462  0.0008 -0.1816
16433W        W33280  11.462   6.231  14.241 -0.1893  0.1497  0.1425
16434W        W33281   5.260  12.407   5.717  0.1186 -0.2180 -0.1857
16435W        W33282   1.899  10.168   1.610 -0.1797 -0.2965  0.1423
16436W        W33283   3.191   9.032  13.839  0.2438  0.3705  0.0804
16437W        W33284  15.953   2.912  12.515 -0.1804  0.1695  0.0194
16438W        W33285  18.521   7.939   0.467  0.0461 -0.0925 -0.0536
16439W        W33286   3.138  17.720  12.477 -0.2868 -0.2607 -0.0160
16440W        W33287  10.355   0.860  12.082  0.1267 -0.0592  0.3729
16441W        W33288   9.358  15.794  10.589  0.1698  0.4744  0.1458
16442W        W33289   4.615  10.039  15.751 -0.5022 -0.0238 -0.2328
16443W        W33290   0.820  13.918   1.545  0.0389 -0.0978 -0.0663
16444W        W33291   9.640  12.088  12.072 -0.0416  0.0921 -0.2547
16445W        W33292   9.684  11.773  11.665  0.0766 -0.1288 -0.2850
16446W        W33293  10.402   5.356   0.432  0.1968 -0.3345 -0.0180
16447W        W33294  15.794   9.976   4.336 -0.0268  0.0016  0.0124
16448W        W33295   0.442  13.368  13.423  0.0160  0.1434 -0.3353
16449W        W33296   8.034  15.159  14.844 -0.1381 -0.1136 -0.0173
16450W        W33297   1.258  10.190   3.387 -0.1922  0.0598  0.0311
16451W        W33298  12.454   8.862  14.095 -0.2968 -0.1293 -0.1444
16452W        W33299   1.617  17.384  10.642 -0.0440  0.0116  0.1237
16453W        W33300  14.177   6.733  11.508  0.2264 -0.4982  0.0772
16454W        W33301  10.661   6.096   1.301  0.0048 -0.0090  0.1856
16455W        W33302   8.419   7.834  15.385 -0.5164  0.1227 -0.0077
16456W        W33303   8.450  10.832  13.027 -0.4388 -0.0576 -0.1759
16457W        W33304  12.442   2.358  12.951  0.0098 -0.2908 -0.1794
16458W        W33305   3.979   6.695   0.955  0.1373 -0.0910 -0.2021
16459W        W33306  13.036   5.354  13.999 -0.0154 -0.0174 -0.0585
16460W        W33307  18.275   3.078   5.696 -0.1007 -0.0826  0.2043
16461W        W33308  17.357   0.692  15.670  0.1159 -0.0817 -0.0520
16462W        W33309   0.374  16.774  14.234  0.2970 -0.1751 -0.1328
16463W        W33310  18.217   0.995  15.658 -0.0056 -0.4774 -0.0304
16464W        W33311  18.154  12.079   0.887 -0.1464 -0.1041 -0.1633
16465W        W33312   7.560  11.500  12.075  0.1315  0.1486  0.0672
16466W        W33313  17.309   5.498  12.644 -0.2575 -0.3645  0.0350
16467W        W33314  12.871   5.159  14.480  0.0239 -0.0821 -0.1398
16468W        W33315   2.724   8.254  12.831  0.0110  0.0470 -0.0633
16469W        W33316  14.703  14.383  12.022 -0.1479 -0.0911  0.3073
16470W        W33317   0.443   7.818  14.791 -0.1172 -0.3077 -0.4575
16471W        W33318  16.091   9.338   3.924 -0.1430 -0.0620 -0.3140
16472W        W33319  15.294  11.061   1.520 -0.0880 -0.1533  0.1231
16473W        W33320  13.678  14.754  12.194  0.1475  0.0669  0.1987
16474W        W33321   6.369   7.242   2.087  0.2502 -0.1681  0.0784
16475W        W33322  17.774  13.091   4.602  0.0993 -0.0092 -0.0266
16476W        W33323  14.043   1.032   3.926 -0.0387  0.0922  0.0119
16477W        W33324   7.370   3.249   0.008  0.3276  0.0341 -0.0025
16478W        W33325   2.384  11.139  10.668 -0.1954 -0.0788 -0.0572
16479W        W33326   8.033   4.477  14.570  0.0817  0.3774  0.2375
16480W        W33327   3.053   6.545   0.563  0.1609 -0.0442 -0.2267
16481W        W33328  10.998  12.314  11.386 -0.1945 -0.1933 -0.1410
16482W        W33329  16.310  13.206   0.082  0.0077 -0.1472  0.1666
16483W        W33330  15.482   0.046   2.066 -0.0730 -0.1153  0.0347
16484W        W33331  14.198  12.545   2.944  0.0980  0.0363 -0.2659
16485W        W33332  12.690   8.164  10.806  0.1880 -0.0573 -0.4023
16486W        W33333   4.531   2.804  15.481  0.2048 -0.3374 -0.2054
16487W        W33334   2.017   8.201  15.282  0.0364 -0.3106  0.2109
16488W        W33335  11.543  14.365   5.516  0.3205 -0.2209 -0.1603
16489W        W33336  12.026  11.901   0.094 -0.3305 -0.0059  0.1460
16490W        W33337  16.691   3.621   4.796  0.1234  0.2169 -0.1962
16491W        W33338   1.858  12.826  15.226  0.0073  0.1078  0.0964
16492W        W33339  16.393  14.306  11.511 -0.0769 -0.1725  0.2490
16493W        W33340   9.977  14.546  10.706  0.2116 -0.1979 -0.2407
16494W        W33341  14.363  14.117  15.247 -0.1055 -0.0801  0.1830
16495W        W33342   8.237  10.301  11.133 -0.1319  0.2296 -0.0476
16496W        W33343  13.266  14.938  13.050 -0.2639  0.1622  0.2680
16497W        W33344   3.911  14.421   4.241 -0.0587 -0.2931  0.0198
16498W        W33345  10.328   4.667  14.508 -0.0703 -0.0137  0.0107
16499W        W33346  11.240   2.413   4.105 -0.3707 -0.0966  0.2802
16500W        W33347   6.440   4.940  13.667 -0.2518 -0.1485  0.1026
16501W        W33348   3.392   7.567  13.677  0.1373  0.1302  0.2593
16502W        W33349   5.852  16.219  11.593  0.1230 -0.0427 -0.0271
16503W        W33350   6.814  14.584  11.433  0.1912  0.2246 -0.1766
16504W        W33351   5.292   3.310  11.844 -0.0777 -0.1430  0.1849
16505W        W33352  13.351   5.050   3.110 -0.1790  0.1147  0.0601
16506W        W33353   8.851   5.245   2.645 -0.0324  0.0153 -0.0071
16507W        W33354   3.171  12.109  11.736  0.1264 -0.0312  0.0924
16508W        W33355   9.071  15.941  11.356 -0.0175  0.1848 -0.5481
16509W        W33356   7.788  14.384  15.466  0.0907  0.1982 -0.0903
16510W        W33357   0.129   5.957   0.315  0.3106  0.0413  0.1701
16511W        W33358  10.817  10.264  13.080 -0.3347 -0.2067  0.0490
16512W        W33359   1.277   3.099   0.361  0.1164 -0.0711 -0.1819
16513W        W33360  16.450  15.455   1.361  0.4759  0.2464  0.2304
16514W        W33361  10.599  10.653   0.207 -0.2710  0.2540  0.1979
16515W        W33362  12.262   8.088   5.209 -0.0502  0.0931  0.0736
16516W        W33363   1.194  13.972  11.965  0.1840  0.1486  0.0804
16517W        W33364   1.955   1.845  15.311 -0.1688  0.1217 -0.1420
16518W        W33365  11.078   3.531   0.249 -0.0068  0.0989 -0.1154
16519W        W33366  11.987   5.140   2.445  0.0718 -0.0343  0.2216
16520W        W33367  17.949   5.339   4.458  0.0785  0.2274 -0.1366
16521W        W33368  13.699  12.371   0.737 -0.0668  0.6106  0.1101
16522W        W33369   3.399  17.280   4.951 -0.2245 -0.0665  0.2365
16523W        W33370  17.573  11.234   4.416 -0.0972 -0.1261  0.1092
16524W        W33371  12.059  10.257  14.583  0.3203  0.2521 -0.0627
16525W        W33372  15.892   3.295  15.003  0.0264  0.1079  0.0407
16526W        W33373  10.407   4.974  12.617 -0.1013  0.0607 -0.1061
16527W        W33374   3.389  12.870   3.223  0.0433  0.5309  0.1172
16528W        W33375  17.752  10.882   1.013 -0.4323 -0.1500 -0.1971
16529W        W33376   4.969   7.125   5.994  0.2606  0.0051  0.0949
16530W        W33377   3.429   1.147  13.095 -0.1348  0.2167 -0.1574
16531W        W33378   8.466   1.549   1.297  0.1952 -0.0074 -0.2718
16532W        W33379   3.770   3.850   4.867 -0.0248 -0.0167  0.1515
16533W        W33380   4.089   0.806  12.129  0.0621 -0.3339  0.0949
16534W        W33381   9.733   3.048  15.389 -0.0704  0.1443 -0.2194
16535W        W33382  13.250   4.668   4.805 -0.1441 -0.2237  0.0526
16536W        W33383   5.502  11.196  14.737 -0.1624 -0.1352 -0.0389
16537W        W33384  15.714   0.507  12.825  0.1463 -0.2382  0.2182
16538W        W33385   0.704   9.615   3.703 -0.1275 -0.1275 -0.0816
16539W        W33386   1.452  17.145   4.935  0.0199  0.1667  0.1479
16540W        W33387   7.039  17.197  12.891  0.1107  0.0312  0.0345
16541W        W33388   6.480   2.900  14.944  0.0111  0.0611  0.0133
16542W        W33389   0.630   6.173   3.534  0.0102 -0.2833 -0.5560
16543W        W33390   7.411  13.803   0.628 -0.2589  0.0041 -0.0077
16544W        W33391  10.853   2.199   4.472  0.0872  0.1867  0.2113
16545W        W33392  17.674  18.351   0.274 -0.1834 -0.1859 -0.1713
16546W        W33393   6.978  11.534   3.742 -0.1173  0.0976 -0.0015
16547W        W33394  11.077   0.372  11.529  0.4265 -0.1823  0.2666
16548W        W33395   2.569   8.541   0.052  0.1370  0.0069  0.0091
16549W        W33396   9.882   3.118  13.828 -0.0976 -0.0770  0.3592
16550W        W33397   8.936   6.869   2.247  0.0886  0.4092  0.0746
16551W        W33398  11.459   9.294   1.942 -0.2156  0.0800  0.2713
16552W        W33399  16.731  15.476   2.706  0.2036 -0.2977 -0.1561
16553W        W33400  14.731  11.627   0.928 -0.3628  0.0882  0.1359
16554W        W33401   2.957   8.305  10.878  0.1963  0.2190 -0.0180
16555W        W33402  12.553  10.967   0.830 -0.0252  0.0013 -0.2581
16556W        W33403  15.234   6.681  13.230  0.0475 -0.3474 -0.1537
16557W        W33404   0.402   2.914   1.504  0.1437  0.3379 -0.0890
16558W        W33405   1.496   9.414  13.960  0.0948 -0.0693  0.0671
16559W        W33406  13.928   5.555  10.304 -0.1497 -0.0730 -0.0495
16560W        W33407  10.694  12.202  15.180  0.0452  0.0267 -0.2474
16561W        W33408   3.480  12.178   2.599 -0.2637  0.2620 -0.3250
16562W        W33409   9.185   0.625  15.531 -0.2122  0.2033 -0.1309
16563W        W33410   7.302   8.063   4.827 -0.0525  0.0887  0.2342
16564W        W33411   4.939  15.476  14.900  0.0770  0.3327  0.1101
16565W        W33412   0.749  10.429  14.475  0.0470  0.0664  0.0407
16566W        W33413   8.812   6.919   3.658  0.1927 -0.0847 -0.0943
16567W        W33414  10.082  13.898   3.651 -0.2788  0.2154  0.1112
16568W        W33415   4.440   6.077   0.119  0.1551  0.1229 -0.2824
16569W        W33416   8.658   3.271  14.198  0.2790 -0.2055 -0.0843
16570W        W33417  11.945  16.883  13.466 -0.1488 -0.1159  0.0003
16571W        W33418  15.097  15.929   1.013  0.0240 -0.0493 -0.0656
16572W        W33419   8.854  18.106   3.338 -0.1682 -0.0595 -0.0538
16573W        W33420  17.991   6.126   0.619 -0.0577 -0.0264 -0.0318
16574W        W33421   6.170  15.081  11.176  0.0991 -0.2139  0.1913
16575W        W33422  18.396   6.435  15.577  0.2010 -0.2217  0.2133
16576W        W33423   0.784   2.700  11.838 -0.3856 -0.0852 -0.1141
16577W        W33424   5.748   1.151  13.705 -0.0382  0.0391 -0.2557
16578W        W33425   0.041   9.323  12.974 -0.0301  0.0415  0.0777
16579W        W33426  13.196  17.782   5.633 -0.1996  0.0418 -0.1696
16580W        W33427   4.531  13.184   4.884 -0.3019  0.0645 -0.0220
16581W        W33428  15.647   1.171   5.420  0.0739  0.1185  0.0035
16582W        W33429   3.357   6.133   6.219  0.2395 -0.1760  0.2051
16583W        W33430  12.595  15.025  15.712 -0.4652  0.1766 -0.0668
16584W        W33431   8.978   5.938   0.254  0.1652 -0.0850 -0.1156
16585W        W33432   5.205   0.056  15.061  0.1574  0.0215  0.2150
16586W        W33433   1.710  16.905  12.921  0.0359  0.2668 -0.0486
16587W        W33434  12.393   2.241  14.476 -0.0688  0.1715  0.1027
16588W        W33435  11.386  11.846   1.269 -0.1772  0.0944 -0.1514
16589W        W33436  10.342   3.683   4.826 -0.1240 -0.3886 -0.1502
16590W        W33437  14.576   7.770  15.006 -0.0841  0.1703  0.1915
16591W        W33438   5.843  15.055   3.965 -0.1777 -0.0655  0.0252
16592W        W33439   8.017  11.416  14.148  0.2605  0.0018  0.0299
16593W        W33440  11.138  18.254   0.686  0.2392  0.2519  0.1408
16594W        W33441  14.635  10.998  12.786 -0.0896  0.1616 -0.4411
16595W        W33442   8.535  17.824   4.582 -0.3604 -0.1101 -0.4021
16596W        W33443   9.452   4.560   5.719 -0.0317 -0.0662  0.0493
16597W        W33444   9.471   4.892  13.244 -0.1008  0.1362 -0.0764
16598W        W33445  16.485   2.525   3.905  0.0218 -0.0299  0.1192
16599W        W33446  17.215   1.709  13.079 -0.1161  0.2831 -0.0826
16600W        W33447  10.842   9.269  13.030 -0.0291 -0.2420  0.2744
16601W        W33448  16.366   9.526   4.293 -0.0278  0.1497  0.0666
16602W        W33449   8.478  10.355  10.240  0.0982  0.0944 -0.0837
16603W        W33450   0.402   0.086   0.907  0.0099 -0.1196  0.0657
16604W        W33451  14.917  15.414   1.938 -0.0884 -0.1950 -0.0547
16605W        W33452   2.525   2.417   4.517 -0.0568 -0.2603 -0.1231
16606W        W33453  13.418  17.083  13.788  0.0807 -0.1719  0.2008
16607W        W33454  10.366  15.632   3.785  0.0747  0.0001  0.0451
16608W        W33455   8.727   5.689  14.048  0.1879 -0.1369 -0.2731
16609W        W33456   9.038  12.910  15.730  0.0032 -0.2476  0.0796
16610W        W33457   0.797   4.209   2.278  0.3236  0.1570  0.1271
16611W        W33458  16.782  10.588   3.268  0.1014 -0.1890 -0.0014
16612W        W33459   1.091  15.895   1.226 -0.3126 -0.0225  0.0744
16613W        W33460   0.163  15.497  14.406 -0.1046 -0.0864 -0.0170
16614W        W33461   5.337   4.679  10.043  0.0748  0.0454  0.4444
16615W        W33462   2.238  10.541   1.454  0.0817  0.0486 -0.1121
16616W        W33463   9.491  17.008  13.347 -0.2079  0.1880  0.1826
16617W        W33464   0.965  12.697   2.061  0.2989 -0.3841 -0.2301
16618W        W33465  17.746   2.239  14.326 -0.0470 -0.1686  0.1940
16619W        W33466  18.425  10.111   0.357  0.2535 -0.0393 -0.0250
16620W        W33467  11.580  18.329  11.487  0.3818 -0.1786  0.1749
16621W        W33468  15.517  12.996  14.098 -0.3627  0.0573  0.0698
16622W        W33469  14.128  10.925  12.735  0.1105 -0.1591 -0.0475
16623W        W33470   0.961   0.031   4.809  0.1852 -0.3108  0.0485
16624W        W33471  14.243   1.572  12.815 -0.3745 -0.3490  0.1833
16625W        W33472   9.419   3.836   4.241 -0.2909 -0.1499  0.0151
16626W        W33473   4.841  15.937   2.597 -0.0983 -0.0412 -0.1643
16627W        W33474   1.293   7.780  11.604  0.1685  0.0691 -0.0488
16628W        W33475   7.903   9.703   4.289 -0.2227 -0.2289  0.2701
16629W        W33476   5.131  11.839  11.236  0.3320 -0.0309  0.4729
16630W        W33477   0.959  14.413  15.570  0.2317 -0.2629  0.3749
16631W        W33478  16.119  10.560   2.793  0.3274 -0.1016 -0.1321
16632W        W33479  14.722  12.839  14.806 -0.4021 -0.0628 -0.2017
16633W        W33480  16.299   6.003   0.082  0.0684  0.0657  0.0815
16634W        W33481  11.715   8.982   5.738 -0.4626  0.0023  0.1037
16635W        W33482   5.290   0.728  11.692  0.0496 -0.0095 -0.0345
16636W        W33483   2.987  10.846  15.139 -0.0566  0.1390  0.0342
16637W        W33484  12.112  15.358   1.710  0.1183  0.0584 -0.1773
16638W        W33485  11.664   6.362   3.770 -0.2094 -0.0845  0.0320
16639W        W33486  18.437  16.875   3.247  0.0968 -0.1511  0.1125
16640W        W33487   9.142   6.565   3.938 -0.1561  0.4240 -0.0400
16641W        W33488   1.151  15.138   5.185 -0.2820  0.2831  0.2345
16642W        W33489   3.585   9.313  13.777  0.1805  0.1155  0.0138
16643W        W33490  16.167   4.716  13.784 -0.0861 -0.2237  0.0855
16644W        W33491  11.929   3.077  11.061 -0.2157 -0.2414 -0.0570
16645W        W33492   8.808  13.340  15.000  0.1293  0.0820  0.0251
16646W        W33493  10.831  16.086   4.583  0.0579 -0.2309  0.2564
16647W        W33494   1.403  15.410  10.666 -0.1255 -0.1341  0.0474
16648W        W33495  16.441  11.212   2.894  0.1397 -0.3459  0.3642
16649W        W33496  14.282  17.357  12.773  0.1258  0.1324 -0.0156
16650W        W33497  10.890  18.460   4.420  0.4071 -0.0630 -0.3109
16651W        W33498  10.104   3.715   1.393  0.0663 -0.0199 -0.1848
16652W        W33499  13.098   7.288  12.492  0.2073 -0.3137  0.5180
16653W        W33500  16.258   5.552   0.399  0.0245  0.0110 -0.0938
16654W        W33501  15.189   8.762   1.694  0.2041 -0.2513  0.0394
16655W        W33502   5.472  12.591  15.588  0.1761  0.2121  0.3162
16656W        W33503  12.549  12.229  12.095 -0.1868  0.0927  0.2076
16657W        W33504  11.043  17.306   3.372  0.2587 -0.1104  0.0120
16658W        W33505  12.091  12.233   1.706 -0.0775 -0.0458  0.0898
16659W        W33506   4.587  16.472   5.365  0.0206  0.3624 -0.0225
16660W        W33507   1.778  14.504  11.287  0.1551 -0.1511 -0.1618
16661W        W33508   3.040   2.273   3.048 -0.0087  0.0634  0.0500
16662W        W33509  14.107  11.025  11.803  0.1899  0.1315  0.1225
16663W        W33510   8.613  15.114  13.625  0.0907  0.1799  0.2496
16664W        W33511   4.885   7.861   0.334  0.0547 -0.0301  0.0528
16665W        W33512  13.997  17.993  10.949 -0.2661  0.4191  0.1580
16666W        W33513   0.228   2.820  14.526  0.1401 -0.0360 -0.2827
16667W        W33514  13.187  17.948  14.420 -0.2799  0.1235 -0.2502
16668W        W33515  13.451  15.871  15.343 -0.1650  0.1596  0.1883
16669W        W33516   1.843  15.026  14.337 -0.1188 -0.3471 -0.2008
16670W        W33517   1.934  16.667  13.603  0.3194  0.1969  0.1393
16671W        W33518  18.740   4.180   1.310 -0.1993  0.0905  0.0915
16672W        W33519  17.782   5.039   2.227  0.1252 -0.0513 -0.1540
16673W        W33520  14.757  13.435   3.879 -0.0832 -0.1225  0.0871
16674W        W33521   0.980   7.636   1.940 -0.0887  0.4723 -0.0575
16675W        W33522  16.387  12.948  14.940  0.0579 -0.0405  0.1014
16676W        W33523  11.410   3.907   0.256  0.1458  0.0565 -0.1541
16677W        W33524   2.441   1.360   4.532 -0.0352 -0.0828 -0.0046
16678W        W33525   0.530   8.233  15.615 -0.1159 -0.0476 -0.0595
16679W        W33526   5.578   3.668   2.201  0.2950  0.0960 -0.1243
16680W        W33527   2.055   6.474   2.816 -0.0124 -0.1515  0.0092
16681W        W33528   8.962   4.169  14.527  0.0780  0.0204 -0.0848
16682W        W33529  14.740  12.846  11.885  0.4304  0.4644 -0.2893
16683W        W33530  18.814  17.607   3.698  0.0300  0.1599 -0.4457
16684W        W33531   3.981  12.763   5.213 -0.2835 -0.1807  0.1724
16685W        W33532  13.800   5.452   2.032  0.2552  0.0341  0.2980
16686W        W33533   9.869   8.873  10.600 -0.0150  0.0630  0.0738
16687W        W33534  17.630   2.714   2.886  0.0354 -0.1771 -0.0642
16688W        W33535   6.123  17.615   1.903 -0.0194 -0.0454 -0.0680
16689W        W33536  11.337   0.909   2.691 -0.0929 -0.2478 -0.2475
16690W        W33537  11.083   0.123   1.308  0.3664  0.1664 -0.1545
16691W        W33538  17.104  17.129  13.415  0.1848  0.3193 -0.3408
16692W        W33539   6.694  10.032  15.389  0.1518  0.0184 -0.2349
16693W        W33540   4.303  18.657  14.980 -0.0682  0.2219  0.0733
16694W        W33541   8.687   4.396   0.067 -0.2116  0.2180 -0.0040
16695W        W33542   6.016  11.855  15.487 -0.1227 -0.0269  0.4895
16696W        W33543  11.971  13.726   4.115 -0.3218 -0.4421  0.4548
16697W        W33544  12.899   2.759   4.578 -0.1588  0.1454  0.1080
16698W        W33545  12.705  16.714  14.040 -0.0725 -0.2598  0.3415
16699W        W33546  18.466  14.521   0.337 -0.0152 -0.0131  0.1015
16700W        W33547  17.975   2.847  15.371 -0.1096  0.1954 -0.1195
16701W        W33548   5.842   9.438   0.721 -0.1813  0.2903 -0.1343
16702W        W33549  13.958   3.851  15.352 -0.2332 -0.1661 -0.1334
16703W        W33550  15.640  16.167  13.712  0.0413  0.3439  0.2182
16704W        W33551  13.395   5.776  15.521 -0.1962 -0.0036  0.0873
16705W        W33552   9.662   7.610   2.793 -0.1762 -0.0420  0.2096
16706W        W33553  14.208   5.827  14.495  0.1211 -0.2210  0.2780
16707W        W33554   4.719  14.042   2.708 -0.0745 -0.1312  0.1502
16708W        W33555  14.802   0.839   5.178 -0.0299 -0.1000 -0.0677
16709W        W33556   9.028  15.589  14.854 -0.0838 -0.0264  0.1976
16710W        W33557   2.165   4.586   3.118  0.0404 -0.2706 -0.4165
16711W        W33558  13.142   1.208  11.352 -0.0113 -0.0629  0.0003
16712W        W33559   9.381   8.176  14.550  0.0346 -0.1990  0.2117
16713W        W33560   0.503   8.659  13.638 -0.2446 -0.3230 -0.1372
16714W        W33561   6.137  12.179   5.634  0.2777  0.1834 -0.3155
16715W        W33562  17.454   0.770   4.826  0.1416 -0.0833  0.0140
16716W        W33563  10.623   5.140   2.265  0.1108 -0.3094  0.0609
16717W        W33564  12.588   4.079   2.886  0.1502 -0.1256  0.1125
16718W        W33565   0.440   0.604   5.586  0.0301  0.1335 -0.1522
16719W        W33566   2.232  12.627  14.290  0.1727  0.0233 -0.0889
16720W        W33567  15.141   5.126   5.629  0.1755 -0.0876  0.2658
16721W        W33568   1.317   8.051  12.073 -0.1169 -0.1474  0.0672
16722W        W33569  18.500  14.993   5.384  0.3508  0.1583  0.0535
16723W        W33570  12.097  15.696  14.027 -0.2286  0.0363  0.0347
16724W        W33571  10.654   6.623   0.126 -0.0754 -0.2376  0.3062
16725W        W33572   3.493  13.533  13.542  0.1458 -0.2294  0.0812
16726W        W33573   8.316   1.532   0.368  0.3770 -0.0388  0.0586
16727W        W33574  15.133  10.232   1.668  0.1075  0.0996 -0.1751
16728W        W33575   9.002   9.294   2.688  0.1610 -0.0602  0.0176
16729W        W33576   4.935  11.988   5.626 -0.0160  0.2823  0.0081
16730W        W33577  15.904  16.595  13.070  0.0434  0.2054 -0.1493
16731W        W33578   6.380   9.165   1.634 -0.0267 -0.2554 -0.2563
16732W        W33579   1.507  17.629   4.052  0.0018  0.3006  0.0158
16733W        W33580   4.875  10.249  11.328  0.2066  0.3028  0.1116
16734W        W33581   0.615  17.984   4.911 -0.0319 -0.2325  0.1863
16735W        W33582  10.950   6.554   2.642  0.0319  0.0714  0.0451
16736W        W33583  18.335   2.383   3.957 -0.0074  0.2528 -0.3408
16737W        W33584  14.159  11.553   2.125  0.2273 -0.2081 -0.2003
16738W        W33585  13.123  15.489  13.253 -0.0306 -0.2506  0.2196
16739W        W33586  18.517   4.020  14.904  0.0795 -0.0414  0.0663
16740W        W33587   0.043  11.704   2.563 -0.1285  0.0525  0.0333
16741W        W33588   0.592  16.620  10.456 -0.1222 -0.0296 -0.1886
16742W        W33589  12.032   5.344  12.249 -0.2991  0.0887 -0.0154
16743W        W33590   8.887  13.735  12.635 -0.2769  0.1215 -0.0939
16744W        W33591  18.698   2.282  15.391 -0.1441 -0.0251 -0.2669
16745W        W33592   0.936  12.412   3.480  0.0372  0.0009 -0.0016
16746W        W33593   7.025   2.114   0.697  0.1345 -0.0718  0.1563
16747W        W33594   9.352  13.435  14.935 -0.0693 -0.0071 -0.0446
16748W        W33595   3.857   6.587   2.537  0.1945 -0.2477  0.1000
16749W        W33596  12.620  13.376   1.323 -0.2811 -0.0430  0.3779
16750W        W33597   8.936   8.006  11.101  0.3028 -0.2030  0.2406
16751W        W33598  17.128   4.511   0.752  0.0132  0.0926 -0.0731
16752W        W33599   4.329  16.534   1.972  0.0803 -0.2147  0.0991
16753W        W33600  13.979  11.093  13.593  0.2640  0.0166 -0.0869
16754W        W33601   0.145   5.229   4.985 -0.2619 -0.2466  0.2005
16755W        W33602   7.682   5.691   0.238 -0.3016 -0.0963  0.2481
16756W        W33603   8.306   2.473  11.506 -0.0819 -0.1340  0.0345
16757W        W33604  13.851   8.780   4.365 -0.0511 -0.2347 -0.0104
16758W        W33605  16.104  16.638  14.441  0.2121 -0.1798 -0.0017
16759W        W33606  13.764   4.549   4.120  0.1532 -0.0503 -0.2387
16760W        W33607   1.002   6.137   5.341 -0.4325 -0.2087  0.0083
16761W        W33608   5.306   2.337   0.250 -0.2477  0.0463 -0.2477
16762W        W33609  12.882  15.086   3.515  0.2153  0.1389  0.1357
16763W        W33610   4.425   3.794   3.281 -0.0984 -0.0171  0.0168
16764W        W33611   3.468   4.171   5.250 -0.0956 -0.0889  0.1566
16765W        W33612   2.893  16.043  14.044  0.2721 -0.0347 -0.1385
16766W        W33613  10.425   6.223  15.724  0.2136  0.1572  0.1181
16767W        W33614  16.141  16.262   3.754 -0.0476  0.1211 -0.2679
16768W        W33615   2.323   2.038  13.001  0.0545  0.4766  0.1705
16769W        W33616  18.770  18.123   0.468 -0.1084 -0.3003  0.1261
16770W        W33617  17.443   3.086   2.597 -0.1040 -0.0077  0.4611
16771W        W33618  14.797   3.167   0.794  0.4691  0.0260 -0.1420
16772W        W33619   1.840  18.756   5.327 -0.3056  0.1395  0.5904
16773W        W33620  14.526   9.570   0.428  0.0397  0.1752 -0.2932
16774W        W33621   7.533   2.309   2.012 -0.0089 -0.1842  0.0065
16775W        W33622   9.729  11.227   0.116 -0.1631  0.0451  0.0512
16776W        W33623  13.241   0.371  15.072 -0.0658 -0.2221 -0.4605
16777W        W33624  11.648   8.615  11.795 -0.0321  0.0998 -0.0351
16778W        W33625   6.303   4.187  15.382 -0.0905  0.2186  0.1298
16779W        W33626  14.160  15.557   0.716  0.1526  0.0541 -0.0660
16780W        W33627   2.723   2.045  14.189  0.0313  0.1565  0.0647
16781W        W33628  11.352   4.269  15.620  0.0216 -0.2523  0.1844
16782W        W33629  17.270   2.700   0.843 -0.0538  0.0838 -0.0124
16783W        W33630  14.746  17.039   5.036  0.4019 -0.0496  0.0352
16784W        W33631  14.194   3.770  14.275 -0.1592 -0.0258  0.3655
16785W        W33632   6.163   9.699   1.640  0.2807 -0.3466  0.2002
16786W        W33633   7.559   6.260   5.158  0.1118 -0.5403  0.0216
16787W        W33634  12.843  15.587   2.375 -0.0770  0.2697 -0.2257
16788W        W33635  15.207   2.967   5.289 -0.2483  0.1257 -0.1176
16789W        W33636  13.970   9.733   2.143  0.1713 -0.1450 -0.0059
16790W        W33637   3.414  17.537  11.625 -0.4158  0.1111  0.0495
16791W        W33638  14.208  11.609   0.888 -0.0044 -0.0708 -0.0821
16792W        W33639  18.165  15.923   3.373 -0.2338  0.1690  0.3925
16793W        W33640  16.873  17.757   1.535  0.1820 -0.1225 -0.0379
16794W        W33641   2.567  14.673   3.978  0.1513 -0.0490 -0.1331
16795W        W33642   8.275   1.327   4.289  0.1609  0.0978  0.1692
16796W        W33643   4.741   8.746   4.393  0.1157 -0.1462  0.1197
16797W        W33644  16.989   1.653   3.487 -0.0288 -0.5364  0.1364
16798W        W33645   3.541   1.695  11.739 -0.2861 -0.1802 -0.2578
16799W        W33646  15.221   4.158   4.589  0.1160  0.2176 -0.0182
16800W        W33647   4.949   2.891  12.003  0.0129 -0.3668 -0.2200
16801W        W33648  12.610  16.977  14.515  0.1453  0.0034  0.0817
16802W        W33649   6.201   8.191   4.212 -0.1666 -0.0878  0.1781
16803W        W33650  18.625   1.574   3.570  0.0056  0.0500  0.1918
16804W        W33651   3.724   3.058   4.777  0.0386  0.0323  0.1001
16805W        W33652   2.457   6.180   1.164  0.1648 -0.1829  0.1398
16806W        W33653  10.751  10.063  11.747  0.2322 -0.0052  0.0094
16807W        W33654   7.502   8.646  12.145  0.0490 -0.1690  0.1055
16808W        W33655  17.196  13.330   5.425 -0.0046  0.1627 -0.0981
16809W        W33656   8.804   0.574   2.087 -0.2722 -0.0018  0.1329
16810W        W33657   8.866   7.029  12.797 -0.6449 -0.0670  0.1258
16811W        W33658   0.143   4.536   2.261 -0.0806 -0.2700  0.2733
16812W        W33659  17.994  10.754  12.578  0.1573  0.0005 -0.0299
16813W        W33660   5.917  16.266  12.907 -0.1771 -0.1064 -0.3178
16814W        W33661  15.971  11.300   1.803 -0.1540  0.0584  0.1753
16815W        W33662  18.327  16.198  12.850 -0.1039  0.1123  0.2307
16816W        W33663   2.610  13.413  14.425  0.3390 -0.0566  0.3400
16817W        W33664  11.587  18.503   3.452  0.1586 -0.0450  0.0906
16818W        W33665  15.006  13.658   5.002 -0.1382 -0.0524 -0.0889
16819W        W33666  12.831  16.117  15.024  0.1275  0.2621  0.0257
16820W        W33667   6.644   2.544   3.934  0.1158  0.1621 -0.1987
16821W        W33668   2.228   5.786  12.518 -0.0956 -0.0611 -0.2007
16822W        W33669   8.305  12.079   0.808  0.1479  0.0626  0.1180
16823W        W33670  15.354   9.458   4.578 -0.0699 -0.2926 -0.2353
16824W        W33671  11.560  11.693   0.264  0.0272  0.0159  0.0435
16825W        W33672   7.563  14.741  11.064 -0.0835 -0.2522  0.1990
16826W        W33673  12.407   6.889  11.329  0.1661 -0.3577  0.0433
16827W        W33674  11.143   6.064   3.978 -0.0189 -0.3382  0.0208
16828W        W33675  18.386   0.495   5.008  0.0386  0.3527 -0.2085
16829W        W33676   9.454   9.036   0.790  0.0392  0.0229  0.1238
16830W        W33677   2.252   4.871   0.606  0.0072 -0.0637 -0.1071
16831W        W33678  18.680  14.334   4.496 -0.0031 -0.0232  0.2134
16832W        W33679  12.580   3.589  14.661 -0.3347  0.3092 -0.0187
16833W        W33680   2.264  13.090  13.017  0.1027 -0.0518 -0.2228
16834W        W33681   4.347  17.411  14.304  0.0517 -0.0892  0.1790
16835W        W33682  14.762  10.360  13.330 -0.0551 -0.2112  0.0735
16836W        W33683   5.589   5.596   1.284 -0.0830 -0.0719  0.2404
16837W        W33684  14.654   4.485  11.901  0.1108 -0.0715 -0.0071
16838W        W33685  11.787   1.054   4.362  0.2667  0.1797  0.0204
16839W        W33686  17.135   5.383  11.760  0.1106 -0.0620 -0.0047
16840W        W33687   6.884   1.873  12.615  0.1111  0.1243 -0.0969
16841W        W33688   0.485  14.904   2.103 -0.0904 -0.0008 -0.2235
16842W        W33689   9.024  17.482   3.959  0.0910 -0.3310  0.0814
16843W        W33690  17.492   0.394   3.177 -0.2080  0.0773 -0.4704
16844W        W33691   4.352  18.522  11.281 -0.2140  0.1781 -0.0967
16845W        W33692  16.131   8.515  12.306  0.0204  0.0145  0.4775
16846W        W33693   4.351  14.069  14.507 -0.0402 -0.1234 -0.0135
16847W        W33694  12.332  15.465   0.838  0.2062 -0.1120 -0.0866
16848W        W33695   5.513  15.540  12.221 -0.0897 -0.0808 -0.1329
16849W        W33696   8.219   2.749  12.266  0.0187 -0.2678 -0.3503
16850W        W33697   3.344   8.350   1.841 -0.0550 -0.1494  0.1260
16851W        W33698  16.164  11.755   5.145 -0.4406  0.3519 -0.0205
16852W        W33699   7.587   7.148   5.593  0.0926  0.0664 -0.0651
16853W        W33700   3.092  16.804   4.140  0.1760 -0.3040  0.1142
16854W        W33701   5.759   6.772   2.936  0.3211  0.2390  0.3633
16855W        W33702   2.887   5.707   1.844 -0.3728 -0.0055  0.0830
16856W        W33703  13.027   3.717   2.579  0.2737  0.3676 -0.0460
16857W        W33704   4.232  11.547   0.134  0.0138 -0.1098 -0.0327
16858W        W33705   6.360  12.944   0.431  0.1235  0.0931  0.0645
16859W        W33706  16.160   1.064  10.393  0.1299 -0.0638 -0.4400
16860W        W33707   3.557   5.853   4.625 -0.2260  0.1643  0.0002
16861W        W33708  11.887  17.739   2.815 -0.3716 -0.0585 -0.0542
16862W        W33709   9.035  15.620  13.121  0.2115  0.0994 -0.3363
16863W        W33710   5.881   8.117  15.385 -0.2329  0.0964 -0.1364
16864W        W33711   7.668  10.764  12.521 -0.4606  0.1982  0.3880
16865W        W33712  17.741  15.698   3.487  0.1693 -0.0513  0.0665
16866W        W33713   1.474  11.464  14.657  0.0574  0.0527 -0.1396
16867W        W33714   2.041   6.040  11.554  0.1968 -0.2769 -0.0953
16868W        W33715  17.287  16.479  11.517  0.0369  0.2578  0.3353
16869W        W33716  15.720  16.887  10.958 -0.0035  0.0729 -0.2609
16870W        W33717   5.848  10.956  15.376  0.1687  0.1774 -0.2706
16871W        W33718   2.927   5.780   2.899  0.0843 -0.0502  0.1257
16872W        W33719   4.063  10.386   1.962 -0.3984  0.2275  0.0729
16873W        W33720  17.395   1.901   5.364  0.0658 -0.1830 -0.0243
16874W        W33721  11.450   9.604  11.861  0.0406 -0.0955 -0.2624
16875W        W33722  15.260  17.843  10.899  0.0028  0.1780 -0.1112
16876W        W33723   9.971  16.910   2.121  0.1913 -0.0848 -0.0925
16877W        W33724  15.818  11.249   2.270 -0.2676 -0.2935  0.2795
16878W        W33725   0.065  18.547   0.170 -0.1050 -0.1160 -0.0781
16879W        W33726   9.445   9.220  15.612  0.1140  0.1780  0.0876
16880W        W33727   3.780   8.618   2.021 -0.2221  0.1767  0.0284
16881W        W33728  17.993  14.503  12.252 -0.1580 -0.3401  0.1498
16882W        W33729   9.072  15.558  11.038  0.0131  0.0793  0.0197
16883W        W33730   5.633   8.707   0.685  0.2572  0.1445  0.0047
16884W        W33731   8.749  11.684  10.714  0.0197 -0.1013  0.0671
16885W        W33732  12.189  14.699   2.411  0.0601  0.1466 -0.1872
16886W        W33733  15.145  18.153  13.787  0.1245  0.0722 -0.1358
16887W        W33734  14.912  16.533  11.385 -0.2600  0.2359 -0.2254
16888W        W33735   7.981  10.486  11.805  0.1293 -0.2164  0.2929
16889W        W33736  14.666  16.830   1.805 -0.3720  0.1459 -0.0008
16890W        W33737   9.007  15.900  12.273  0.1368 -0.1507 -0.2059
16891W        W33738   4.012   5.864  14.888  0.0424  0.0391 -0.2497
16892W        W33739  11.145  13.608   4.045  0.0414  0.0832 -0.2345
16893W        W33740  16.552   8.755   3.150  0.2497 -0.0956 -0.2443
16894W        W33741   1.545  13.744   3.783 -0.1683  0.0068  0.0802
16895W        W33742   7.653  14.783   3.431  0.2136 -0.2028 -0.0311
16896W        W33743  17.433  15.562   4.597 -0.1730  0.0488  0.1358
16897W        W33744   9.021  11.815   2.809 -0.1060  0.1102  0.1868
16898W        W33745   7.538  10.546   2.667  0.2680 -0.0065 -0.1489
16899W        W33746  10.675  15.580   0.102 -0.0460  0.5110 -0.3321
16900W        W33747   4.233   2.739  11.255 -0.2927 -0.0422  0.0663
16901W        W33748  12.085   8.179  11.624  0.0338  0.0210  0.0946
16902W        W33749   4.442  14.283   5.743 -0.2948  0.0501 -0.3222
16903W        W33750   8.050  14.651  14.296 -0.1747  0.1437  0.1478
16904W        W33751   1.561   2.719   0.977  0.1364  0.2342 -0.0429
16905W        W33752  10.647   3.766   1.677 -0.0531 -0.1818 -0.0629
16906W        W33753  16.371   3.776   3.257 -0.6780  0.3310  0.2102
16907W        W33754   3.498   1.314   3.565  0.0886 -0.2168 -0.0130
16908W        W33755   6.307  17.087  12.545  0.0240  0.1114 -0.2573
16909W        W33756  15.208   1.557   4.185 -0.3045 -0.1125 -0.3102
16910W        W33757   7.964  17.261   1.516  0.0606 -0.0175 -0.0825
16911W        W33758  16.721   8.540  14.779  0.2120  0.0819  0.1482
16912W        W33759  18.544  14.314  13.020  0.3986 -0.2714  0.1417
16913W        W33760  13.586  14.652   4.881  0.2776  0.1708 -0.3425
16914W        W33761  12.728   5.756  11.520 -0.1597  0.2111  0.2076
16915W        W33762  11.447   4.561  13.963  0.0078  0.2462  0.0265
16916W        W33763   2.914   9.972   5.567  0.0450  0.0625 -0.1556
16917W        W33764   2.493  13.237  15.706  0.0418 -0.1857 -0.2175
16918W        W33765   8.279   1.382   1.731 -0.0765 -0.0687  0.0150
16919W        W33766   8.364  13.890   4.238 -0.1848 -0.2445  0.1114
16920W        W33767  10.657  16.693  13.746  0.2505 -0.1337  0.1215
16921W        W33768   6.559   0.383  12.692  0.2273  0.0488 -0.0552
16922W        W33769   8.820   9.297  15.723  0.1007  0.0203 -0.2223
16923W        W33770  12.569   3.794   2.486 -0.4287 -0.0453 -0.0675
16924W        W33771   1.954   2.070   0.077  0.2991  0.1830 -0.0044
16925W        W33772   1.783   0.013  15.363  0.1760  0.1452 -0.1027
16926W        W33773  10.406   8.783   5.685 -0.5150 -0.1604  0.3605
16927W        W33774   3.357  11.615  11.803  0.1979  0.5004  0.0367
16928W        W33775   8.567  15.686  14.600 -0.1205  0.0829 -0.1200
16929W        W33776   4.073   2.565   4.601  0.0427 -0.2665  0.0476
16930W        W33777  17.643  18.113  11.389 -0.1087  0.1322 -0.0938
16931W        W33778  15.200   1.681   1.429 -0.0283  0.3606  0.0089
16932W        W33779  17.705   0.519  14.177  0.2770 -0.1931 -0.2927
16933W        W33780   4.205  10.942   4.171  0.0231 -0.0738  0.3820
16934W        W33781  17.591  18.697  15.715  0.1512  0.0969 -0.1529
16935W        W33782  13.214  17.283  12.195  0.4144  0.1852 -0.2216
16936W        W33783  16.216  18.609  10.843 -0.3712 -0.2622 -0.1931
16937W        W33784   3.992   2.853   1.377  0.3770 -0.0906 -0.1071
16938W        W33785   4.436   8.062  12.255 -0.0519 -0.0396 -0.1518
16939W        W33786   2.145  11.366  12.838  0.1828 -0.0696 -0.1526
16940W        W33787  16.896   9.741   0.460 -0.1864  0.0563  0.0904
16941W        W33788  18.684  18.591   4.436  0.4158  0.2889  0.1202
16942W        W33789  10.685   8.772  12.186  0.1710 -0.1417 -0.2504
16943W        W33790   7.263  13.654  11.718 -0.4143 -0.4828 -0.0590
16944W        W33791  16.960  11.755  13.471 -0.0087 -0.1411  0.0923
16945W        W33792  12.545   9.923  13.125  0.3238 -0.0442 -0.3891
16946W        W33793  11.876   7.732   0.329  0.2562  0.2098  0.0994
16947W        W33794  11.560   0.031  11.723  0.1763  0.3301 -0.1558
16948W        W33795   9.842  10.143   5.958 -0.3337  0.0411  0.0458
16949W        W33796  10.104   0.720   1.551  0.4059  0.0197  0.2439
16950W        W33797  13.843   4.318   0.812  0.0221  0.0924 -0.0192
16951W        W33798   3.920   9.191  14.647  0.0569 -0.1099  0.2193
16952W        W33799   4.020  14.538   1.496  0.1790 -0.0775 -0.0524
16953W        W33800   6.353  10.276   4.331 -0.1798 -0.0343 -0.0657
16954W        W33801   5.590   9.824   1.593 -0.1390  0.0491  0.1777
16955W        W33802   1.449   9.961   3.969  0.1079  0.1485 -0.1765
16956W        W33803  17.610   9.294   0.880 -0.1334 -0.0227  0.0551
16957W        W33804  16.790  10.185   1.744 -0.0887  0.2429 -0.2587
16958W        W33805   9.699   4.786  11.144 -0.2689 -0.0794 -0.0872
16959W        W33806   9.102  10.127   2.509 -0.0885  0.1194 -0.1452
16960W        W33807   5.205  15.866   3.848  0.2501 -0.3013  0.0880
16961W        W33808   6.196   5.703  13.899  0.1022  0.4128  0.0714
16962W        W33809  15.838   6.459   1.473  0.1426  0.2413 -0.2448
16963W        W33810  11.887   4.569  11.685 -0.0443 -0.1916  0.0136
16964W        W33811   6.706   6.835   0.522 -0.2554 -0.1634  0.0732
16965W        W33812  18.244   2.964  12.234 -0.1198 -0.0348  0.0189
16966W        W33813   7.218   5.179   2.225 -0.1363  0.1170 -0.1436
16967W        W33814  12.256  10.606   9.699 -0.0710  0.2887 -0.3839
16968W        W33815   1.378  18.281   1.194 -0.1471  0.0855  0.3609
16969W        W33816  13.111  17.125  10.834  0.1776  0.0580 -0.0162
16970W        W33817   8.878  18.433  14.181  0.0420  0.1001 -0.1898
16971W        W33818   2.264  18.015  12.682  0.0208  0.0823 -0.0091
16972W        W33819   3.517  17.657   3.584  0.0191 -0.1385  0.1296
16973W        W33820  17.483  10.397  14.993 -0.3180  0.3142 -0.2910
16974W        W33821   9.151   9.552  14.352  0.1051 -0.0709  0.0857
16975W        W33822  15.583  16.157   0.951  0.0051 -0.4396  0.0875
16976W        W33823   1.655   6.591   4.145 -0.2633 -0.0953 -0.0068
16977W        W33824   0.158   3.221  11.242 -0.1322  0.2276  0.0262
16978W        W33825   0.776  11.202   3.759  0.0862 -0.0794 -0.1025
16979W        W33826   0.205  10.959   0.766  0.2503  0.0491 -0.1318
16980W        W33827  12.066  18.682  11.154  0.2469 -0.0480 -0.0330
16981W        W33828  15.852   7.280   2.130 -0.0387 -0.0823  0.0890
16982W        W33829   5.115   9.378  13.034  0.2126  0.2077  0.0228
16983W        W33830  14.529   3.795   3.857  0.0044 -0.3925 -0.0396
16984W        W33831  17.693  10.529  14.033 -0.3141 -0.0104  0.2573
16985W        W33832  10.599  18.852  13.304 -0.1084  0.2103  0.1006
16986W        W33833   1.750  15.175  13.529 -0.1111  0.1009  0.1186
16987W        W33834  13.132  17.098   3.364  0.0903  0.1726 -0.2319
16988W        W33835   0.715   0.932  15.504 -0.1131 -0.0998  0.0381
16989W        W33836  12.406   5.741   3.579  0.4108 -0.3016  0.2677
16990W        W33837   8.438  14.008   0.161  0.0046  0.2974  0.0096
16991W        W33838  12.009   7.038   2.392 -0.2302 -0.2283  0.2054
16992W        W33839  12.592  12.807   0.985  0.2338 -0.1012  0.0803
16993W        W33840  10.245   2.134  13.900 -0.0732  0.0024  0.0385
16994W        W33841  11.305  17.367   2.376  0.0850  0.0507 -0.0697
16995W        W33842  12.098   7.285   4.916 -0.0944 -0.1274 -0.4268
16996W        W33843   0.103  15.269  12.072 -0.4448  0.0304 -0.2423
16997W        W33844  17.121  11.814  14.062  0.2196 -0.0812  0.2773
16998W        W33845  13.728  15.137   0.296 -0.0910 -0.2283 -0.1041
16999W        W33846  15.832   7.344   6.073  0.0577  0.0109 -0.0712
17000W        W33847  17.263  10.303   1.647 -0.2248 -0.0590  0.1617
17001W        W33848   3.112   6.380  13.580 -0.1445 -0.2800 -0.0094
17002W        W33849   0.943  13.357  11.210  0.4248 -0.1812  0.0158
17003W        W33850   3.476   4.739   4.869  0.0146 -0.2337  0.2877
17004W        W33851   1.958  10.500   4.921 -0.3631 -0.0312  0.2773
17005W        W33852   5.393  14.419  10.988 -0.1368  0.1280  0.0789
17006W        W33853  15.305   2.198   3.078  0.0036  0.1398  0.1774
17007W        W33854   2.421   6.680  15.527 -0.1205  0.1584 -0.2135
17008W        W33855   3.562   4.755   9.859 -0.2215  0.3762  0.2888
17009W        W33856   8.274   5.898   4.531 -0.4300 -0.3006  0.1559
17010W        W33857  14.293  18.364   1.821  0.2273 -0.0169  0.3059
17011W        W33858  14.331   3.974   5.395  0.1243  0.0103  0.2423
17012W        W33859   5.901  17.254   3.109  0.0170 -0.2101  0.3591
17013W        W33860   9.305   2.632  14.010  0.2193  0.2948 -0.1900
17014W        W33861  17.272  17.791  11.586  0.2038 -0.1310  0.1017
17015W        W33862   7.808   2.653   4.125  0.1075  0.3326  0.0751
17016W        W33863  16.627  12.203   1.974  0.1670 -0.3043 -0.4241
17017W        W33864   6.506   4.845   3.345 -0.0529 -0.0240 -0.0227
17018W        W33865  15.244   7.928  11.259 -0.0065 -0.0565 -0.2232
17019W        W33866   7.612  12.540  15.225 -0.0679  0.0350 -0.0962
17020W        W33867  14.281  13.119  13.455  0.2171 -0.1680  0.1888
17021W        W33868   6.496   6.588  14.878  0.1668 -0.0646  0.0480
17022W        W33869   3.769   1.990   3.560 -0.2463  0.2517 -0.1234
17023W        W33870   4.503   5.248   3.659 -0.2252 -0.0572 -0.0638
17024W        W33871   0.884   9.008  11.142  0.2093  0.2550  0.0757
17025W        W33872  14.494  14.039   1.538  0.1403  0.0450  0.0260
17026W        W33873  10.707  17.892   4.548 -0.1834  0.1918 -0.1258
17027W        W33874  13.492  17.213   1.849 -0.1414 -0.2856 -0.2148
17028W        W33875  10.837   6.995   2.923  0.0005  0.0533 -0.2684
17029W        W33876   4.910  11.981  12.779  0.0290  0.1875  0.0132
17030W        W33877  14.327  17.563   1.230  0.0084 -0.0356 -0.1280
17031W        W33878   4.564  16.787   2.748  0.2750  0.2763 -0.0295
17032W        W33879   7.433  15.224  12.640 -0.1460  0.1298  0.0734
17033W        W33880   8.860   9.473   4.473  0.1454 -0.0182  0.0852
17034W        W33881  13.252   9.052  14.754  0.0988 -0.1346  0.1783
17035W        W33882   7.036  17.759  12.820 -0.0308 -0.0588  0.1253
17036W        W33883   0.185  15.516   3.403  0.0285 -0.0010 -0.1024
17037W        W33884   1.999   9.604   0.190 -0.0054  0.3285  0.0075
17038W        W33885   2.984  13.473  14.832  0.3400 -0.0380  0.0553
17039W        W33886   7.094   9.473  14.898  0.0032 -0.3514 -0.1243
17040W        W33887   6.944  11.022   1.499 -0.1282  0.1108 -0.1411
17041W        W33888   9.115   5.134   4.120 -0.0441 -0.1860  0.3577
17042W        W33889   6.358  10.545  14.474  0.2136  0.1701 -0.2660
17043W        W33890   7.337  12.568  14.389  0.0604  0.1872 -0.0740
17044W        W33891   6.792   2.269  14.947 -0.0185 -0.2624  0.0181
17045W        W33892   8.495   3.242   0.061 -0.1372  0.2870 -0.2875
17046W        W33893  18.116  14.846   0.276 -0.1716  0.2059 -0.0617
17047W        W33894   0.239   0.401   1.284  0.2231 -0.0407 -0.2013
17048W        W33895   6.757   1.731   1.118 -0.0579  0.0274 -0.1252
17049W        W33896   6.472  17.867  10.461 -0.4044 -0.3807  0.1346
17050W        W33897   4.824   0.768  15.351 -0.1015 -0.0982  0.0462
17051W        W33898   2.087   1.306  14.009  0.1740 -0.3592  0.4625
17052W        W33899   0.492   9.211   2.016  0.1147 -0.2039 -0.0435
17053W        W33900  15.032   6.094  15.187  0.2607 -0.0250 -0.0388
17054W        W33901  10.782   6.957  15.052 -0.1968 -0.1481 -0.2198
17055W        W33902  11.158  10.082   4.731 -0.2412 -0.1183 -0.1848
17056W        W33903   3.643   7.669   2.214 -0.3020  0.0282 -0.2672
17057W        W33904   4.224  10.120   5.303 -0.1783  0.0001  0.1237
17058W        W33905  11.807  16.053  14.111  0.0841 -0.1533 -0.1668
17059W        W33906   9.989   3.151   1.337 -0.1053  0.0394  0.3996
17060W        W33907  16.683   0.220   0.496 -0.0591  0.0680  0.0595
17061W        W33908  18.579   2.485   0.127  0.1166  0.0212 -0.0336
17062W        W33909   5.622   5.800  12.268 -0.1033 -0.2286  0.3515
17063W        W33910   9.460  12.428   0.155  0.0066 -0.1395  0.0192
17064W        W33911   5.642   3.746   1.280 -0.1249 -0.2493  0.1482
17065W        W33912   6.486   5.402   3.208  0.0385 -0.5114  0.1786
17066W        W33913  10.320   2.206   4.229  0.1662  0.0205 -0.2251
17067W        W33914  14.284   1.634   1.453 -0.0712 -0.3586 -0.1197
17068W        W33915  13.979  11.805   4.181  0.0643 -0.1692 -0.3558
17069W        W33916   9.935  12.276   3.518 -0.2782 -0.0598  0.0982
17070W        W33917   2.147   1.846   0.847 -0.1656 -0.0620 -0.3257
17071W        W33918  13.807   7.572   5.172 -0.0413  0.2087 -0.0021
17072W        W33919  11.200  15.618   5.431 -0.1535  0.0007 -0.3162
17073W        W33920  10.707  14.043  12.546 -0.1257 -0.1762 -0.0180
17074W        W33921  14.802   4.474  14.501 -0.2264  0.2494  0.2729
17075W        W33922   3.913   7.122   1.229 -0.0667  0.2391 -0.0996
17076W        W33923  15.218  12.430  13.543 -0.0742 -0.3249  0.0190
17077W        W33924  11.180  14.729   5.578  0.3600 -0.1969  0.1846
17078W        W33925  13.209  12.049   3.777  0.2917 -0.2004  0.0774
17079W        W33926  10.929   9.126  11.984  0.1892  0.0128  0.3529
17080W        W33927  18.337   1.298  11.423 -0.0049  0.0011 -0.0673
17081W        W33928   3.738   3.170   1.006  0.0135  0.0213  0.1769
17082W        W33929   7.498   3.430   0.469  0.1744 -0.4044 -0.2104
17083W        W33930   2.186  10.424  11.023 -0.0395  0.0743  0.1229
17084W        W33931   7.799  10.115  11.433 -0.1892  0.0152  0.2053
17085W        W33932   5.837  13.518   2.973 -0.3772  0.0101 -0.2687
17086W        W33933   8.718  17.732  11.250  0.2316  0.2527  0.0979
17087W        W33934   0.910   3.228  12.331 -0.1815  0.0913 -0.1160
17088W        W33935  14.371   3.806   4.398  0.1380 -0.1712  0.1309
17089W        W33936  17.096   7.229   2.024 -0.1035 -0.1286  0.0464
17090W        W33937  10.182  12.166  10.610  0.0319 -0.0918  0.3337
17091W        W33938   0.362  14.078   3.284 -0.2242 -0.0010  0.0714
17092W        W33939  16.754  11.034   1.201  0.1310 -0.0467 -0.3777
17093W        W33940   9.883  18.504  14.095 -0.1042 -0.2040 -0.0494
17094W        W33941   8.642  13.165  11.836 -0.2570 -0.0297  0.0973
17095W        W33942   8.749   2.370   4.491 -0.2552 -0.0616  0.0338
17096W        W33943   8.600  11.117   1.785  0.0359 -0.1286 -0.0222
17097W        W33944  11.042   6.286   2.194  0.1269  0.2452 -0.1161
17098W        W33945   0.809   4.370  13.973  0.1968 -0.1956 -0.2150
17099W        W33946   7.965  12.165   3.341 -0.1022 -0.1116  0.0525
17100W        W33947  14.118  11.666   0.231 -0.1811  0.0974 -0.3312
17101W        W33948   9.211  13.335   0.138  0.0674 -0.0131 -0.1374
17102W        W33949  12.722   1.061   1.875 -0.1976 -0.1594 -0.4182
17103W        W33950  10.694  13.329  12.461 -0.0249 -0.3482 -0.0743
17104W        W33951   6.085  15.180  13.536  0.0978  0.0643  0.2289
17105W        W33952  16.250   1.123   3.135  0.1580 -0.3523  0.2335
17106W        W33953   3.886  11.115   3.691 -0.3518  0.0123  0.3439
17107W        W33954   3.837   6.258   4.788  0.2266  0.1511 -0.2322
17108W        W33955  11.001   4.166   0.194 -0.0482  0.0715  0.0727
17109W        W33956   2.465  10.306  15.751  0.0130 -0.4912  0.1245
17110W        W33957   5.366   2.788   0.418  0.0670 -0.1927  0.3260
17111W        W33958  13.316  17.482  13.284 -0.4192 -0.2444  0.1761
17112W        W33959   5.188  11.544   1.847  0.0987 -0.1847  0.0672
17113W        W33960  16.446   8.902   3.976 -0.2068 -0.3162  0.0030
17114W        W33961   1.210   4.351   1.515  0.4190  0.3310 -0.0852
17115W        W33962   1.701   1.395  13.568 -0.0871 -0.1247 -0.0865
17116W        W33963  18.308   1.734   5.582 -0.2431  0.2333  0.0751
17117W        W33964  13.962  14.444   1.956 -0.1685  0.0239 -0.1577
17118W        W33965   5.078   9.855   1.573  0.2731 -0.1748 -0.2175
17119W        W33966   5.026  12.474   2.327 -0.1254  0.0131  0.1310
17120W        W33967   9.144   0.863  12.367 -0.0384  0.0660  0.0007
17121W        W33968   6.202  14.328  12.549 -0.4761 -0.0566 -0.1278
17122W        W33969   8.394   9.429  12.666  0.0533  0.0999 -0.2844
17123W        W33970   1.400   3.530   0.884 -0.0938 -0.0382  0.1479
17124W        W33971  11.381   3.516  12.131 -0.4361  0.1281 -0.1284
17125W        W33972   5.083   0.049  15.557 -0.0815  0.0534 -0.0581
17126W        W33973   4.094   3.414   1.331 -0.2564  0.0183 -0.1159
17127W        W33974  10.056  10.611  14.714 -0.3493 -0.0459 -0.0108
17128W        W33975  11.027   3.576  14.977 -0.0323  0.2066  0.1115
17129W        W33976   0.444  18.105  12.029 -0.2884 -0.0378 -0.4192
17130W        W33977   2.042  18.840   4.888 -0.0054 -0.0516 -0.0559
17131W        W33978  11.477  15.000   3.012 -0.0133  0.0615  0.2801
17132W        W33979   3.201  18.397  11.987 -0.0278 -0.0773  0.0097
17133W        W33980  17.605  11.823  14.249  0.0984  0.0016  0.0284
17134W        W33981  12.306   8.264   6.109 -0.2122 -0.0301  0.2233
17135W        W33982   4.848   6.171   2.735 -0.3239 -0.1414 -0.0814
17136W        W33983  10.706  11.878   2.555 -0.0153 -0.2097 -0.0331
17137W        W33984  18.227   9.408  11.506 -0.0576  0.0142 -0.0064
17138W        W33985  10.750  16.781  12.216 -0.2312 -0.4601  0.0004
17139W        W33986  10.192  14.839  13.068 -0.1535  0.0780  0.0832
17140W        W33987  12.207  15.216  15.312 -0.2695 -0.0419 -0.0786
17141W        W33988   7.525  18.782  12.653  0.0753  0.0637  0.0276
17142W        W33989  14.076  17.550   3.162 -0.0728  0.0913 -0.0886
17143W        W33990  10.984   6.558   3.777  0.2553 -0.2623  0.1436
17144W        W33991   2.813  12.217   2.303 -0.0919  0.0880 -0.2581
17145W        W33992   6.671  17.391  10.728  0.3048  0.0496 -0.2978
17146W        W33993   9.113   5.913   0.719 -0.2614  0.0114 -0.2402
17147W        W33994   2.266  11.887  15.623  0.2438  0.0795 -0.2195
17148W        W33995  11.202   0.898   3.368  0.3177 -0.1426  0.1213
17149W        W33996  12.138   1.503   4.321 -0.0881  0.0839  0.1124
17150W        W33997  16.129   5.203   0.853  0.0599 -0.1281 -0.2042
17151W        W33998  14.254  18.026  15.115 -0.0284 -0.0753 -0.0307
17152W        W33999  10.620   1.204  15.474  0.4348  0.1246  0.1759
17153W        W34000  18.377   2.390  11.372 -0.0181  0.0774 -0.3028
17154W        W34001   0.964  17.817   4.623  0.1409 -0.1297 -0.1315
17155W        W34002  15.048  13.819   5.506 -0.0134  0.2602 -0.1147
17156W        W34003  18.767   4.688  12.325  0.0253  0.1199  0.0501
17157W        W34004   6.512   7.760   2.801  0.0130 -0.1396 -0.0154
17158W        W34005  11.478  17.065  13.749  0.1518 -0.3843 -0.0834
17159W        W34006   0.710   0.505   3.632  0.1343 -0.0239  0.2299
17160W        W34007   8.020  16.737   1.506 -0.0207  0.1720 -0.4618
17161W        W34008  16.506   0.847   5.218  0.0185  0.2125  0.0583
17162W        W34009   1.271   6.989   6.214 -0.1497  0.2231  0.1651
17163W        W34010   7.056   0.381  11.430  0.1008  0.0893  0.2739
17164W        W34011  16.701  14.228  14.014 -0.0907  0.0150 -0.2625
17165W        W34012  11.978   5.161  14.944  0.0894 -0.2006  0.2046
17166W        W34013   2.599   3.901  12.461  0.5941  0.1605  0.0310
17167W        W34014  12.314  16.546  13.172 -0.0910 -0.4626 -0.0255
17168W        W34015  10.578   3.792   2.198  0.2366 -0.1682 -0.3803
17169W        W34016   8.241  12.360   3.733 -0.0538 -0.2550  0.1095
17170W        W34017   4.817   3.600  15.480  0.0338 -0.1197 -0.2284
17171W        W34018  18.770   5.622   6.409 -0.0439  0.1156  0.2516
17172W        W34019  18.341   7.438   5.506 -0.2012  0.1195 -0.0613
17173W        W34020   4.452  13.525  15.617  0.1275  0.2584  0.0320
17174W        W34021   2.138   7.815   5.832 -0.1302 -0.1080  0.0133
17175W        W34022   0.321  12.226  11.170 -0.3072 -0.1939  0.2188
17176W        W34023  11.373  16.452   2.995  0.0610 -0.1245  0.1832
17177W        W34024  10.627   3.017  15.406  0.0413  0.0691 -0.1660
17178W        W34025   0.193   5.406   3.983 -0.1369 -0.2549 -0.1516
17179W        W34026   7.846   5.485   1.730 -0.3151 -0.2807 -0.3481
17180W        W34027  18.356   8.880   0.526  0.3894  0.0941 -0.1968
17181W        W34028   5.359  18.455   0.462  0.0361 -0.2742  0.0189
17182W        W34029   2.029   8.372  10.986 -0.4244 -0.1080  0.0974
17183W        W34030  14.730   5.642  15.237  0.0121 -0.0721 -0.2787
17184W        W34031   2.767   0.323  12.130 -0.3355 -0.1626  0.1124
17185W        W34032   5.252  15.682  14.611  0.1183  0.2370 -0.1199
17186W        W34033   6.958   9.103  12.630  0.0041 -0.2244 -0.0759
17187W        W34034   9.914  10.097  11.310  0.0250 -0.1812  0.0732
17188W        W34035   2.262  12.007   2.228 -0.0321 -0.0293  0.1944
17189W        W34036   9.431   8.634  13.265 -0.0305 -0.1937 -0.3110
17190W        W34037  10.271   1.736   2.179  0.0991 -0.0696 -0.0869
17191W        W34038   4.828   4.778   3.755 -0.1327 -0.2480 -0.0402
17192W        W34039  17.028   1.855   0.604  0.0046  0.1524 -0.0004
17193W        W34040  15.958  13.393  15.074 -0.1364  0.3446 -0.1046
17194W        W34041   6.669   1.741  13.068 -0.0601 -0.0838  0.3057
17195W        W34042  15.533  12.220  12.723  0.1603  0.3526  0.1502
17196W        W34043   4.996   8.006   1.730 -0.4406  0.1101 -0.3522
17197W        W34044  16.016   7.803   1.438 -0.0037 -0.0608  0.1275
17198W        W34045   7.593   7.743   2.434  0.0370 -0.1229  0.1812
17199W        W34046   7.336  16.722   4.421  0.1972  0.1659  0.0083
17200W        W34047  11.189   7.478  13.865 -0.1230  0.0390 -0.4493
17201W        W34048   5.133  10.608  15.181 -0.0025  0.2249 -0.0755
17202W        W34049   0.767  14.957   1.677 -0.4681  0.0033  0.4224
17203W        W34050   6.407  13.649  15.337 -0.0604  0.3579 -0.0622
17204W        W34051   6.475   9.644  11.777 -0.0850 -0.1791 -0.0371
17205W        W34052   7.425   3.035  11.518 -0.0775  0.0900 -0.2305
17206W        W34053   1.805  12.030   5.803  0.0614 -0.0128  0.0317
17207W        W34054   6.682  16.416  10.154 -0.0681 -0.4747  0.1334
17208W        W34055  16.255  13.772   0.247  0.2338 -0.2145 -0.2260
17209W        W34056  12.956  11.914   3.270 -0.1821  0.0248 -0.2946
17210W        W34057   4.574  14.103   4.741  0.0165 -0.1736  0.0042
17211W        W34058  13.992  11.606  13.687 -0.0824  0.0242  0.3186
17212W        W34059   8.705   6.847   2.663 -0.0491  0.2871  0.2935
17213W        W34060   5.454  17.922   4.254  0.2761 -0.3130  0.0534
17214W        W34061  12.430  15.389   5.049  0.1796  0.0568  0.1804
17215W        W34062  18.444   6.199   0.280 -0.0145  0.2099  0.2312
17216W        W34063   0.520   8.769   4.191  0.0376 -0.2259 -0.1243
17217W        W34064   5.577   9.236  14.687  0.3991  0.1922 -0.0104
17218W        W34065   1.661  17.503  11.596  0.2454  0.1341  0.0009
17219W        W34066  10.175  10.111  11.760 -0.6064 -0.3616  0.1864
17220W        W34067   1.745  12.871  14.291  0.0921 -0.0472  0.0337
17221W        W34068   8.956   2.375  14.279  0.0437 -0.0845  0.3158
17222W        W34069   7.150   8.202  14.673 -0.0452 -0.1277 -0.0934
17223W        W34070   6.337   2.085  13.349 -0.1400 -0.2612  0.0372
17224W        W34071  15.656  18.155   5.869 -0.1337  0.2885  0.0581
17225W        W34072   7.627   2.128   0.749 -0.1156 -0.0321  0.0213
17226W        W34073   2.203   5.959  15.262  0.1683 -0.0588  0.0822
17227W        W34074  13.867  18.256   3.634  0.1500 -0.2582  0.0619
17228W        W34075   8.202  11.085  14.440  0.0648  0.1195 -0.0327
17229W        W34076  16.448   9.740   3.251 -0.2253  0.1059 -0.1790
17230W        W34077   5.783   6.419  15.485  0.3126  0.2862  0.1372
17231W        W34078  15.315   1.708   3.245 -0.1858 -0.0499  0.0720
17232W        W34079  13.243  16.473  14.456  0.0709  0.3240 -0.4028
17233W        W34080   6.995   6.383   1.260  0.2668  0.0337 -0.0095
17234W        W34081   6.882  18.121   4.343 -0.1898  0.6050  0.1941
17235W        W34082  14.310   5.133   4.349 -0.0355 -0.1620  0.0550
17236W        W34083  18.016   5.050   1.139 -0.5026 -0.0407  0.1843
17237W        W34084  16.005  13.234   6.139 -0.3553 -0.1089 -0.0402
17238W        W34085  10.419  10.580   0.755  0.0450  0.1031 -0.0096
17239W        W34086  12.715   7.706   2.905  0.1499 -0.2840  0.2567
17240W        W34087  13.669   7.597  15.671 -0.0979  0.2205  0.3133
17241W        W34088   4.508  13.790  13.502 -0.0383 -0.1257 -0.1191
17242W        W34089  10.160   4.204  15.484 -0.1153 -0.1347  0.0354
17243W        W34090   2.162   1.236   2.767  0.1095 -0.1801 -0.1106
17244W        W34091   4.514  15.059   0.070 -0.0026  0.2773 -0.1931
17245W        W34092   5.814  18.761  15.040  0.1188 -0.0248  0.3121
17246W        W34093   4.058   9.781   0.810 -0.0481  0.0304 -0.0713
17247W        W34094   0.909   0.915  13.505  0.0703 -0.0847  0.0655
17248W        W34095  10.277   2.356   2.984  0.0214  0.0300  0.0809
17249W        W34096   5.472  18.375  12.005 -0.0869 -0.0847 -0.3882
17250W        W34097   4.572   0.942  14.808 -0.1088 -0.1106  0.0970
17251W        W34098  13.048   3.898  11.191  0.1674  0.0708 -0.0560
17252W        W34099   2.319   8.084  12.358  0.3058 -0.0183  0.0728
17253W        W34100   1.646  11.955  12.480  0.0700  0.0534  0.1304
17254W        W34101  13.815   5.884  15.311  0.2757 -0.2401  0.2652
17255W        W34102  14.354   4.340   0.933 -0.1106 -0.0976  0.1290
17256W        W34103   1.006  11.501  14.666 -0.0998  0.0088  0.2321
17257W        W34104   9.762   0.432   4.729  0.1355  0.0580  0.0655
17258W        W34105   0.497   9.083   4.594 -0.0741  0.3953 -0.0941
17259W        W34106   0.141   8.627   2.476 -0.2508 -0.0331  0.0305
17260W        W34107   9.191  14.208  15.314 -0.0596  0.4493 -0.2214
17261W        W34108  17.385   2.245   1.844  0.2056 -0.1217  0.1639
17262W        W34109   1.668   9.463  14.954  0.3649  0.0086 -0.0506
17263W        W34110  16.481   6.091   2.875 -0.2995  0.1305 -0.0591
17264W        W34111  12.659  18.413   4.521 -0.1006  0.1447 -0.1968
17265W        W34112  18.646  12.922   2.215  0.3491  0.1472 -0.4087
17266W        W34113   2.479   8.925  15.442  0.0423  0.1784 -0.0853
17267W        W34114   8.418   2.389   0.939  0.1205 -0.0826 -0.0082
17268W        W34115  17.867   4.165  13.551 -0.0980 -0.0096  0.3325
17269W        W34116  17.407  18.184   1.534  0.1942  0.1787 -0.0488
17270W        W34117   2.095  11.896  12.742  0.1455  0.1591 -0.1736
17271W        W34118   5.539   5.160   2.640  0.2003  0.0467 -0.1293
17272W        W34119   7.577  18.068   3.385 -0.1056 -0.2484  0.3853
17273W        W34120   4.541   2.833  11.646  0.0988 -0.0893 -0.2729
17274W        W34121   2.603  12.113  12.713  0.0649 -0.0062 -0.0548
17275W        W34122   7.659   5.773   5.263 -0.1976 -0.1195  0.1286
17276W        W34123  12.582  10.225  10.993  0.1250  0.2185  0.3216
17277W        W34124   3.097   5.737   2.298 -0.2525  0.1980  0.0680
17278W        W34125  18.723  18.109  11.163  0.3813 -0.0764 -0.0142
17279W        W34126  12.905  16.229   4.488 -0.2158  0.0456  0.4391
17280W        W34127   7.608  15.413   0.669  0.0027  0.0040  0.1824
17281W        W34128   4.364   3.426   2.156  0.1430 -0.0373 -0.1669
17282W        W34129  14.872   6.099   5.052  0.1805 -0.0404  0.1329
17283W        W34130  13.000   9.056   2.693  0.2575 -0.1214 -0.0112
17284W        W34131  14.269   5.648   5.778 -0.1385  0.4137  0.0551
17285W        W34132   5.334   0.007  14.566  0.2850 -0.1559  0.0263
17286W        W34133   3.055  18.634   0.779 -0.0275  0.0491 -0.0255
17287W        W34134   2.439  12.532   4.342 -0.0226  0.0524 -0.0442
17288W        W34135   4.377  17.805  10.091  0.0182 -0.0304  0.1787
17289W        W34136   3.937   3.576   2.510  0.4368 -0.0036  0.3474
17290W        W34137  14.756  12.714  12.591  0.1465 -0.0425  0.1142
17291W        W34138   4.374  14.590   3.364  0.1400  0.2851 -0.0078
17292W        W34139   7.525  16.652  11.747 -0.1826  0.2022  0.4102
17293W        W34140  10.921   8.703  15.777 -0.0885 -0.0405  0.2944
17294W        W34141   2.043   2.871   2.039  0.0753  0.2143  0.3769
17295W        W34142   1.978   9.584  11.737 -0.1163 -0.0086  0.0202
17296W        W34143  12.297   1.372   0.421  0.2208 -0.1863 -0.3807
17297W        W34144   9.176   9.257  11.276  0.4084  0.0535  0.2487
17298W        W34145   3.425   6.665   3.978 -0.3633 -0.2065  0.2614
17299W        W34146  17.529  15.171  11.631  0.0723 -0.0332 -0.0255
17300W        W34147   2.417   3.698  11.847  0.0248 -0.2139  0.3102
17301W        W34148   1.977   1.941  12.656 -0.0778 -0.3290  0.0665
17302W        W34149  10.026   8.345  13.684 -0.0024 -0.1214 -0.1091
17303W        W34150   1.375  10.886  13.913 -0.0066 -0.3833  0.3142
17304W        W34151  14.319  10.537   4.525  0.4472  0.1717  0.0451
17305W        W34152   7.773  16.907  14.624 -0.1252 -0.0163  0.3976
17306W        W34153   2.194  13.195   4.969 -0.1526 -0.2371  0.0890
17307W        W34154   3.700  13.547  11.006 -0.0233  0.0388  0.0746
17308W        W34155   8.845  17.555   9.332 -0.0292 -0.1093  0.1384
17309W        W34156   5.323  17.612   0.720 -0.0574  0.1389 -0.2366
17310W        W34157  14.932  16.470  14.634  0.0464  0.4247 -0.2275
17311W        W34158   1.120   9.234   2.707  0.1375  0.1247 -0.0286
17312W        W34159  16.331   8.185  12.696 -0.0561 -0.3683 -0.3005
17313W        W34160   3.404  10.716  15.418 -0.2087  0.2215 -0.0104
17314W        W34161  10.670  16.056  13.399 -0.1657  0.0755 -0.2660
17315W        W34162  13.258  12.904  12.361 -0.2982  0.1489  0.2656
17316W        W34163  16.154   2.649   5.216 -0.2841  0.0944 -0.4643
17317W        W34164  13.217   3.057   0.052  0.1350  0.0451 -0.0606
17318W        W34165   8.147   8.388  11.826  0.3645  0.1609 -0.0771
17319W        W34166   0.399   8.124   1.308  0.0457  0.0511  0.3417
17320W        W34167  16.531  13.225   5.281  0.2716  0.2650 -0.1382
17321W        W34168   2.496  13.433   2.318  0.1520 -0.1242 -0.0999
17322W        W34169  11.338   6.685   1.926 -0.3430  0.0990 -0.3593
17323W        W34170   3.899  11.132   2.864  0.0329 -0.1117 -0.1602
17324W        W34171  17.492  15.550  13.319 -0.0403  0.1417  0.0657
17325W        W34172  13.407   1.191   5.409 -0.1006 -0.0161 -0.1286
17326W        W34173   4.339   3.812  13.926  0.2024 -0.1071 -0.0515
17327W        W34174  16.383  18.414   3.786  0.0301 -0.1856 -0.0896
17328W        W34175  13.182  16.564  15.157 -0.2354 -0.1211  0.1515
17329W        W34176   2.647   2.545  14.274  0.5228  0.0267  0.0194
17330W        W34177  12.871  11.869   4.208  0.2568  0.1458 -0.2195
17331W        W34178  10.547  12.671  12.315  0.2317  0.2168  0.0063
17332W        W34179  10.723   4.271   1.691  0.2261 -0.2179 -0.0355
17333W        W34180   6.169   1.634  10.954 -0.0049 -0.1860  0.0778
17334W        W34181   6.849   7.842   4.698  0.2577  0.1191  0.1690
17335W        W34182  11.570   8.210  12.253  0.1227  0.3441 -0.0496
17336W        W34183  13.269   1.102   1.066 -0.1273  0.0444 -0.1589
17337W        W34184  17.272  12.097   2.607  0.3932  0.0290 -0.1370
17338W        W34185   4.277  10.573  12.889  0.2817  0.0919 -0.0773
17339W        W34186   6.441  11.588   2.008  0.2728  0.1283  0.2619
17340W        W34187   1.084   6.545   2.891 -0.2824  0.0701 -0.2469
17341W        W34188  16.382  16.387   1.349  0.0808  0.0988  0.0388
17342W        W34189   0.336   0.037   2.471  0.0799  0.1719 -0.0056
17343W        W34190   2.119   8.138   0.006 -0.1054 -0.1437  0.3608
17344W        W34191   8.596   5.146   1.617  0.2058  0.0288 -0.1014
17345W        W34192  16.397  18.631  14.912 -0.2399  0.1816  0.0517
17346W        W34193   0.314   1.705   1.356 -0.2374 -0.1997 -0.0958
17347W        W34194  18.313  11.703   1.732  0.1264 -0.1404  0.2089
17348W        W34195  12.004   5.230   0.263 -0.2947 -0.0898  0.0460
17349W        W34196  12.546  16.204  15.475  0.0928 -0.1705 -0.0341
17350W        W34197   8.493  18.545  11.099  0.1954  0.0035  0.0857
17351W        W34198   3.649   9.906   3.144  0.0402 -0.2583 -0.2386
17352W        W34199   4.029   6.043   5.213 -0.1478 -0.2025  0.0784
17353W        W34200  16.282   7.131   4.602  0.2171  0.1018 -0.0976
17354W        W34201   9.063  10.905   1.727  0.0263 -0.1661 -0.2456
17355W        W34202  18.206   3.193   2.531  0.1468 -0.0701 -0.2759
17356W        W34203   8.205   1.942  12.971 -0.4471  0.0495 -0.0556
17357W        W34204   1.434   0.562   3.159 -0.1351 -0.1448  0.2103
17358W        W34205  13.620  18.422   5.597  0.0306 -0.1732  0.1883
17359W        W34206   9.604   6.301  15.455 -0.1591 -0.1529  0.2604
17360W        W34207  13.707  10.157   2.374 -0.2024  0.1180  0.0275
17361W        W34208  18.340  10.104  12.992  0.1993  0.1656  0.2225
17362W        W34209  18.072   6.283  14.070  0.1085 -0.2711 -0.1573
17363W        W34210  13.352   0.811  11.593 -0.0675 -0.0493  0.4855
17364W        W34211  10.014  12.596   0.400  0.1237 -0.1528  0.0764
17365W        W34212  18.204   1.693  14.817 -0.1955  0.0366  0.0745
17366W        W34213   6.043  12.345  12.817 -0.1786  0.1262  0.2012
17367W        W34214   9.798   3.963   1.794 -0.2398  0.2344 -0.0681
17368W        W34215   4.143  12.086   1.887  0.0202 -0.0407 -0.2254
17369W        W34216  11.813  16.769  14.412  0.0361  0.0172 -0.0873
17370W        W34217  16.565   6.289  14.389  0.0842 -0.0878  0.3947
17371W        W34218   4.061   8.993   5.074 -0.0817 -0.0788 -0.1588
17372W        W34219   4.376   4.438  14.509  0.1380  0.1956  0.2133
17373W        W34220   7.128   7.932   3.772 -0.0366  0.1484 -0.0204
17374W        W34221  13.414   5.618  15.029  0.3362  0.3942  0.2132
17375W        W34222  18.044   1.422  12.809  0.0231 -0.1709  0.0401
17376W        W34223  10.020   9.969   3.057 -0.0730 -0.1997 -0.2688
17377W        W34224   6.503   2.338  12.640 -0.0770  0.0341  0.0529
17378W        W34225   4.492   7.545  12.268 -0.0792 -0.1615 -0.2047
17379W        W34226  13.767  18.587  15.456 -0.1625  0.3401  0.0873
17380W        W34227   5.926  10.906   1.958  0.2899 -0.2081 -0.2031
17381W        W34228  17.458  14.674  11.662 -0.1032 -0.2862  0.2607
17382W        W34229  14.552  11.794  13.151 -0.2172 -0.1032 -0.1389
17383W        W34230  18.281   5.027   1.618 -0.1560 -0.0765 -0.3578
17384W        W34231   5.433   2.417  13.507 -0.1243 -0.0621 -0.1304
17385W        W34232   8.693   7.200  11.894  0.1486 -0.0480  0.1617
17386W        W34233  14.873  13.499   0.821 -0.1220 -0.0573  0.2539
17387W        W34234  18.341  13.654  11.966  0.1922  0.2594 -0.1346
17388W        W34235   7.956  13.712  12.494  0.0339 -0.1056 -0.3230
17389W        W34236  10.495  13.266  15.138 -0.0182  0.1996 -0.0994
17390W        W34237   7.118   9.807  15.303  0.1560  0.1990 -0.4834
17391W        W34238   9.430   9.345   5.345 -0.2849 -0.4506  0.1302
17392W        W34239  13.464  11.933  14.797  0.0529  0.2976 -0.1541
17393W        W34240   2.591   0.918   3.351 -0.3534  0.1253  0.0777
17394W        W34241  13.987   8.702  10.863  0.0684 -0.1837  0.0213
17395W        W34242  18.595  12.139  13.230 -0.2479  0.3435 -0.3358
17396W        W34243   5.520   6.747   1.374  0.2640 -0.1609  0.0951
17397W        W34244   5.460   3.754  11.655  0.2161  0.1296 -0.0450
17398W        W34245  15.485   7.821  13.752 -0.0109  0.1559  0.4496
17399W        W34246   1.007   0.491  12.659 -0.1497  0.0834  0.1537
17400W        W34247   5.299   6.134  15.128 -0.1419  0.2228  0.5105
17401W        W34248   2.535   0.018   3.979  0.1410 -0.1884 -0.3047
17402W        W34249   4.335  18.581   3.271  0.2354 -0.1939 -0.3793
17403W        W34250   9.201  18.734   4.479  0.1335  0.1538 -0.0966
17404W        W34251  11.734  14.013  13.190  0.1615 -0.3099 -0.1434
17405W        W34252  14.700  14.006  11.692 -0.1557  0.0670 -0.0053
17406W        W34253   6.900   4.487  15.350 -0.0899 -0.2653  0.1123
17407W        W34254   7.318   0.353   4.350 -0.1850 -0.4372 -0.4097
17408W        W34255   2.554   1.220  10.714 -0.0362  0.1883  0.2538
17409W        W34256   7.293   7.354   1.142 -0.2819 -0.1857  0.1872
17410W        W34257   6.856   0.484  15.489 -0.0707  0.1057  0.2138
17411W        W34258  11.574  12.768   1.047 -0.0769  0.5022 -0.0317
17412W        W34259   3.078  12.336  15.280 -0.4432 -0.1748  0.0740
17413W        W34260   1.974   3.889   0.119  0.0894 -0.1014 -0.1637
17414W        W34261  12.460   6.680   0.220 -0.4330  0.0695 -0.0330
17415W        W34262  10.071   1.789   1.736 -0.2220  0.0920 -0.0640
17416W        W34263   5.144   3.747  14.472  0.0089  0.2230 -0.1035
17417W        W34264  15.217  12.682  14.974  0.0262  0.1539  0.2460
17418W        W34265   7.813   1.349   2.009 -0.0220  0.0504 -0.2113
17419W        W34266  14.189  16.234  15.771 -0.0675  0.0396  0.0723
17420W        W34267   6.518  18.031   1.180 -0.1465 -0.2005 -0.2005
17421W        W34268   9.779   7.466   1.266 -0.1299 -0.2450 -0.3256
17422W        W34269  15.281   3.496   4.144 -0.0214 -0.2728  0.0127
17423W        W34270   7.765   3.875   4.073  0.0016  0.0491  0.4457
17424W        W34271   6.527   6.196  15.136  0.0213  0.0068  0.1156
17425W        W34272  18.027  14.366   0.526  0.0029  0.1339  0.0387
17426W        W34273  12.073   2.832   4.402 -0.4273  0.2065  0.0484
17427W        W34274   8.015  16.777  12.913 -0.1713  0.2272 -0.1443
17428W        W34275  10.378  10.247  14.866  0.1558 -0.0210  0.2351
17429W        W34276  10.889   3.127   4.507 -0.2817  0.0406  0.1396
17430W        W34277  12.792   3.736   5.099 -0.3006  0.0652  0.0962
17431W        W34278  11.828   0.533   3.741 -0.0869  0.0877 -0.1786
17432W        W34279  10.727  12.454  14.075 -0.2193  0.0506  0.1274
17433W        W34280  12.787   4.895  11.697 -0.0281  0.1007 -0.1038
17434W        W34281  16.275   3.683  13.791  0.4168 -0.2380 -0.1565
17435W        W34282  10.797   2.466  13.156  0.0806  0.1144 -0.0673
17436W        W34283   6.719   6.799   4.761 -0.4739 -0.0114  0.0093
17437W        W34284   1.957  12.486   4.326 -0.0409 -0.2084 -0.2793
17438W        W34285  17.990   5.652  13.266  0.3303  0.0020 -0.1231
17439W        W34286   4.934   5.557  14.240 -0.4396 -0.0229 -0.2942
17440W        W34287  17.074  14.921  11.889  0.3624 -0.1906 -0.2447
17441W        W34288   2.986  15.990  13.152 -0.1690  0.1608  0.1878
17442W        W34289  17.381   7.738   5.480  0.0188  0.2072 -0.0082
17443W        W34290  15.239   2.347  14.238 -0.1945 -0.1570  0.1172
17444W        W34291  16.660  15.210  14.010  0.0842  0.0544 -0.0066
17445W        W34292  10.551  11.691   3.578 -0.1351  0.0314 -0.2465
17446W        W34293  12.371   9.803   2.924 -0.1358  0.4796  0.2559
17447W        W34294  12.987   0.406   4.854  0.1556 -0.1170  0.3199
17448W        W34295   6.891   5.507  10.349  0.0671  0.0575 -0.0690
17449W        W34296   5.674  15.459  13.790 -0.0520 -0.1526 -0.0137
17450W        W34297   9.118   9.737  12.271  0.0751 -0.0012  0.1719
17451W        W34298  12.272   3.368   2.352 -0.0221 -0.0528 -0.2210
17452W        W34299  11.297   5.353   4.712 -0.2837 -0.0722  0.0889
17453W        W34300  14.248  10.621   1.741 -0.1295  0.0430  0.3076
17454W        W34301  18.448   3.284  11.469 -0.2112 -0.0541 -0.0140
17455W        W34302   8.659   4.468   3.441 -0.2355  0.4649 -0.1184
17456W        W34303   8.410  18.305  15.681 -0.1467  0.1338  0.0406
17457W        W34304  13.751  17.466   2.795  0.2672 -0.0294 -0.0625
17458W        W34305  14.916   2.717  11.328 -0.1327  0.2013  0.0878
17459W        W34306  15.830   1.835  13.314  0.2394  0.0505  0.2441
17460W        W34307   2.157   4.831   2.508  0.2547  0.1175 -0.1196
17461W        W34308   4.554  11.399  10.543 -0.0013  0.3474  0.2600
17462W        W34309   8.489   0.304  11.847  0.2878 -0.1666  0.1950
17463W        W34310  17.299   7.793   2.688  0.2544 -0.3645  0.0616
17464W        W34311   5.576   6.474  12.632 -0.1244  0.0419  0.3744
17465W        W34312  14.972   3.799   2.097  0.1698 -0.2486 -0.1534
17466W        W34313  17.484  15.561  15.563 -0.0782 -0.2306 -0.1870
17467W        W34314  10.617  18.041  14.565 -0.0288 -0.0439 -0.0850
17468W        W34315  18.454  18.304   3.406 -0.1468 -0.0439  0.1409
17469W        W34316  13.788  16.566  15.710 -0.1245 -0.1688 -0.0022
17470W        W34317  16.846   0.781  11.757 -0.1291 -0.2855  0.1220
17471W        W34318  16.259   3.752   2.685 -0.0155 -0.0787  0.1922
17472W        W34319   5.003   4.755   2.511  0.3215  0.1291 -0.0989
17473W        W34320   1.024   2.286  11.708 -0.1078 -0.1253  0.3852
17474W        W34321  15.868   9.313  15.427  0.4637  0.4019  0.3994
17475W        W34322   1.978   3.312  13.461  0.2739 -0.2626  0.3770
17476W        W34323   0.291  13.726   1.289 -0.0462  0.1393  0.0232
17477W        W34324   3.238  16.673   0.416  0.2116  0.0392  0.2075
17478W        W34325  14.929  18.207   3.082 -0.0416 -0.0567 -0.0172
17479W        W34326   8.669  14.309  10.132 -0.0121  0.2141  0.0858
17480W        W34327  17.730   7.611  12.413  0.2626 -0.0496 -0.1470
17481W        W34328  10.565  12.223  11.515 -0.0630  0.3237  0.0864
17482W        W34329  11.380   7.798  15.748 -0.1242  0.2191  0.1200
17483W        W34330   9.126  18.327   2.007 -0.2196  0.4847 -0.1298
17484W        W34331  14.718   7.715   5.853  0.2179 -0.3186  0.1736
17485W        W34332  13.000  11.376  13.163 -0.2015  0.1645 -0.2163
17486W        W34333  18.091   2.304   0.276 -0.1696 -0.0400 -0.0375
17487W        W34334  14.250  15.309  14.739  0.0580  0.2637 -0.0655
17488W        W34335   3.115   2.529  13.967 -0.1733  0.1451 -0.2854
17489W        W34336   6.747   7.777  14.921 -0.1632  0.0812  0.1204
17490W        W34337  14.390   1.065   5.288 -0.0227 -0.0456  0.1518
17491W        W34338   4.371   1.846   4.202 -0.1991 -0.0625 -0.0005
17492W        W34339  13.743   2.054  14.090 -0.0177 -0.0996  0.1724
17493W        W34340  18.399  16.145  15.513  0.1163 -0.3289  0.1256
17494W        W34341   9.910   1.229   2.966 -0.0177 -0.2737  0.2698
17495W        W34342  15.874   4.470  12.003 -0.1178 -0.1137  0.1426
17496W        W34343   1.135   7.302  13.795  0.3482 -0.1687  0.3691
17497W        W34344   3.562   2.959  11.720  0.0948 -0.1941  0.2965
17498W        W34345   1.014   3.154  11.680  0.0682 -0.0167 -0.0556
17499W        W34346   9.430  14.793   4.267 -0.0836  0.2468  0.0525
17500W        W34347  16.610   8.549   1.301  0.0961  0.3083 -0.0887
17501W        W34348   1.462   8.902  12.090  0.1407 -0.2054  0.2775
17502W        W34349  18.253  16.031  15.057 -0.1891 -0.2354 -0.0532
17503W        W34350  10.342  15.660   2.434 -0.3834  0.0066  0.1048
17504W        W34351  15.949   0.502   3.473  0.1276  0.3027  0.0036
17505W        W34352   6.378  18.329   0.661 -0.0953  0.3159  0.0040
17506W        W34353  16.483   1.625   5.163 -0.1227 -0.0089  0.2159
17507W        W34354   4.261  10.997  12.507 -0.1977  0.1086 -0.2300
17508W        W34355   6.834   6.566   3.983 -0.0774  0.1393 -0.0663
17509W        W34356  17.183   2.819   2.945  0.2166  0.3117 -0.1010
17510W        W34357   8.355  18.349  15.169 -0.1671  0.1395 -0.2225
17511W        W34358   2.611  15.248   5.312 -0.1657  0.1457  0.1086
17512W        W34359  11.585   9.830  12.985  0.0861  0.0196 -0.0195
17513W        W34360  14.559   6.518   0.975  0.0508  0.0638 -0.0095
17514W        W34361   7.658   0.924   3.621  0.1950 -0.0298  0.1170
17515W        W34362   2.720   6.074   3.604 -0.1145  0.0893 -0.4263
17516W        W34363  15.588   2.440   1.639  0.1414 -0.1066  0.0049
17517W        W34364  15.793   7.060  15.522  0.5377 -0.0033 -0.2444
17518W        W34365  10.874  15.465  14.225  0.1600 -0.2760 -0.1369
17519W        W34366   7.067   5.685  11.750  0.0371 -0.0431  0.1007
17520W        W34367  16.677   7.502   1.328  0.0998 -0.2370 -0.2759
17521W        W34368  18.592  11.085   1.018  0.2166 -0.1061  0.1922
17522W        W34369  11.728  11.055  10.555 -0.0249 -0.0754  0.1228
17523W        W34370  17.666  14.452   4.310  0.1302 -0.0300  0.1579
17524W        W34371   1.827   1.104   4.044  0.0167 -0.5065  0.2684
17525W        W34372   3.573  11.361  14.498 -0.1829 -0.0400  0.1149
17526W        W34373  18.597  14.824  13.475 -0.2511 -0.0378  0.1312
17527W        W34374  12.671  15.051   6.029  0.0526 -0.1272  0.0291
17528W        W34375   4.587   8.553   0.993  0.1228  0.0896  0.1534
17529W        W34376  17.855   3.317  12.197  0.0460 -0.1435 -0.0867
17530W        W34377   2.535  13.613   1.234 -0.0570  0.0814 -0.0529
17531W        W34378   7.954  17.789  12.987 -0.0801  0.3410  0.3261
17532W        W34379  16.903  15.397  13.250  0.1597 -0.1352  0.0888
17533W        W34380   8.022  10.917  12.838 -0.1448  0.1599  0.0527
17534W        W34381   3.211   0.578   1.615  0.2048  0.4773  0.1216
17535W        W34382  16.530  17.811  10.620 -0.2082  0.0353 -0.0015
17536W        W34383   3.176   5.643   6.008 -0.3511 -0.3223  0.0049
17537W        W34384  16.511  13.969   5.427 -0.0341  0.3989 -0.2593
17538W        W34385   8.962  17.995   1.451  0.0993 -0.2978 -0.1137
17539W        W34386  17.500   9.936  11.345  0.1695 -0.2126 -0.0424
17540W        W34387  15.918   7.752   1.977  0.3856 -0.0490  0.0366
17541W        W34388   2.249   1.176   0.138 -0.0811 -0.3290 -0.2993
17542W        W34389  14.141   7.696  13.549  0.0379 -0.0192 -0.1366
17543W        W34390  13.839  16.529   0.471 -0.0120  0.2067 -0.3366
17544W        W34391   6.379  15.156  12.636 -0.2471 -0.1085  0.1094
17545W        W34392   4.076  18.858  12.343  0.1856  0.1184 -0.1175
17546W        W34393   8.993  12.377   1.736  0.3989 -0.1733 -0.0007
17547W        W34394  10.447  16.088   2.738  0.1604 -0.2686 -0.0417
17548W        W34395   8.627  17.657   0.408  0.0698  0.1217 -0.1960
17549W        W34396   3.445   7.377   0.471  0.0764  0.0850  0.2055
17550W        W34397  11.378   3.816   1.132 -0.1455 -0.0830 -0.4207
17551W        W34398   7.629  18.442  14.495  0.2863  0.0478  0.0101
17552W        W34399  11.145  16.698  13.889 -0.3813  0.0092 -0.4134
17553W        W34400  14.777  16.500   3.369  0.0334 -0.0382  0.1655
17554W        W34401   2.382  17.381   1.100  0.0604  0.3155 -0.3706
17555W        W34402   8.805   0.916   0.778  0.0997 -0.1910  0.1337
17556W        W34403  15.531   2.741  12.789 -0.0068 -0.1120  0.0385
17557W        W34404   2.598  16.170   1.700 -0.2131  0.1055  0.0601
17558W        W34405  12.638   7.150   5.131 -0.1321  0.1778 -0.1079
17559W        W34406   0.306   1.572  14.861  0.1092  0.1899 -0.1087
17560W        W34407   3.032   5.277  13.853  0.0839  0.1732 -0.2554
17561W        W34408   7.915   9.138  14.774  0.1782 -0.0092 -0.1280
17562W        W34409   2.422  18.723  11.058  0.2038 -0.2451 -0.1715
17563W        W34410  16.736   6.018   1.862 -0.3002 -0.2470 -0.2093
17564W        W34411   0.093   5.152  14.125 -0.1040  0.0016  0.2797
17565W        W34412   6.299  17.605  12.385  0.2161 -0.1150 -0.2186
17566W        W34413   0.466  12.292   1.228  0.2098 -0.2192 -0.3076
17567W        W34414  12.673   3.742  13.252  0.1431 -0.0449  0.1924
17568W        W34415   4.034   0.101  11.201  0.0304 -0.0925  0.3683
17569W        W34416  14.133   5.458  13.803  0.0855  0.1855 -0.0297
17570W        W34417   8.303   5.874  15.331 -0.1125  0.2943 -0.0725
17571W        W34418   0.710  13.882   2.071  0.1037  0.1440  0.3355
17572W        W34419   2.528   9.417  15.299  0.0158  0.0108  0.3169
17573W        W34420   0.258  10.839   2.462 -0.1254 -0.1801 -0.2938
17574W        W34421   4.629   7.519  15.759  0.1328 -0.0095  0.1523
17575W        W34422  10.370   9.387   0.852 -0.1012 -0.1091  0.0104
17576W        W34423  10.548  13.198  13.253 -0.1683 -0.0503 -0.2018
17577W        W34424   2.292   7.082   1.453  0.2017  0.3211 -0.0083
17578W        W34425   4.112  16.297   0.011 -0.5040 -0.0715  0.1315
17579W        W34426  16.063  15.268  12.419  0.0093  0.0714 -0.1232
17580W        W34427  18.220  11.707   0.506 -0.3219  0.2194 -0.0033
17581W        W34428  12.389   5.813  15.468 -0.1968  0.1257  0.4532
17582W        W34429  17.620   1.022   2.669 -0.0722 -0.0342 -0.0743
17583W        W34430  18.012  18.572   3.549 -0.2743  0.2750 -0.3548
17584W        W34431   2.508   8.654   5.374  0.0512 -0.2573 -0.1172
17585W        W34432   4.585  10.413   1.878  0.1733 -0.0944 -0.1221
17586W        W34433  14.963   0.016   3.936  0.0663  0.2088 -0.0157
17587W        W34434   0.559  16.891   3.121  0.2273 -0.2002 -0.0467
17588W        W34435   8.013  13.855   0.908 -0.0305  0.2504 -0.0318
17589W        W34436   5.262   7.339   0.578 -0.1039  0.4869 -0.1100
17590W        W34437  10.080   1.593  10.835  0.1859  0.1283  0.0391
17591W        W34438   8.501   7.332   3.562 -0.3359 -0.1018  0.0913
17592W        W34439   1.746  10.583   1.095  0.4299  0.1127 -0.0326
17593W        W34440   7.501  17.132  15.127  0.0991 -0.0618 -0.1397
17594W        W34441   4.060   5.504  12.423  0.3877  0.0769  0.1432
17595W        W34442   4.109  13.907  12.995 -0.1327 -0.2723  0.4240
17596W        W34443   0.247  11.513   1.980 -0.2479  0.0185  0.2305
17597W        W34444   6.731   8.311   3.501  0.0468  0.0713  0.1797
17598W        W34445   0.540   2.479   0.143 -0.1493  0.3894 -0.0963
17599W        W34446   7.961   1.713  11.991  0.0596 -0.1975 -0.4458
17600W        W34447   4.802   9.303  15.268 -0.0173  0.0594  0.0488
17601W        W34448   4.128  14.236  15.300 -0.3196 -0.2043  0.1294
17602W        W34449   7.821   2.283  11.829  0.1682  0.0842 -0.1088
17603W        W34450  11.326  10.193   5.189 -0.3193 -0.0392 -0.0790
17604W        W34451   5.523   6.722   2.409 -0.0667  0.0147 -0.1631
17605W        W34452  15.258   8.019  14.192 -0.1485  0.1964  0.3237
17606W        W34453  15.586   2.854  13.698  0.2287  0.1028  0.0173
17607W        W34454  18.792   6.139  14.313  0.1162 -0.0647  0.0871
17608W        W34455  18.186  15.769  12.583 -0.2060 -0.0664 -0.0823
17609W        W34456   3.185  16.422   3.528  0.0868 -0.1089  0.0753
17610W        W34457   9.721   5.983   4.548  0.1525  0.0076 -0.0675
17611W        W34458   3.220  15.777  12.724  0.1123 -0.0854  0.4395
17612W        W34459   8.168   4.612  12.152 -0.0847  0.1587 -0.4685
17613W        W34460  18.701  18.801   2.247 -0.1258 -0.2557  0.0938
17614W        W34461   7.412   5.627   1.972 -0.1038  0.1009 -0.2599
17615W        W34462   8.317  18.408   2.395 -0.0809 -0.0174  0.0988
17616W        W34463   1.708  13.302   0.214 -0.0712  0.1697 -0.2581
17617W        W34464   0.536  13.614  11.341  0.3178  0.0024  0.0668
17618W        W34465   5.363   4.957   0.104 -0.1220  0.0509 -0.1652
17619W        W34466   8.308  13.878   3.104 -0.2314  0.1843 -0.1103
17620W        W34467   8.632  16.306  10.740 -0.0513 -0.1863  0.1050
17621W        W34468   6.972   0.680   3.251  0.1848  0.0234 -0.1173
17622W        W34469   8.435   8.547   4.125 -0.1910 -0.2345 -0.0348
17623W        W34470  10.945   7.305  13.396  0.2394  0.1933  0.1518
17624W        W34471  18.686  13.913   1.547 -0.0331 -0.3399  0.2089
17625W        W34472   7.551  15.692   3.130  0.4176 -0.1436  0.2168
17626W        W34473  14.660  15.537  14.525  0.1410  0.1101 -0.2834
17627W        W34474   5.794   3.548   5.541  0.0232  0.0166 -0.0646
17628W        W34475   2.692  14.876   3.502  0.2567  0.0902 -0.1439
17629W        W34476   5.343  16.982  11.378  0.3737  0.3360 -0.3795
17630W        W34477  12.838   2.240  12.396 -0.2140 -0.0964 -0.1364
17631W        W34478   9.551  10.318  14.343  0.1376 -0.1718  0.0866
17632W        W34479   1.655  15.820   0.463 -0.2588 -0.0492 -0.0562
17633W        W34480   4.005  15.740   4.215  0.1044  0.2681 -0.2301
17634W        W34481   8.173  13.222  12.679  0.2251  0.0357 -0.2008
17635W        W34482  16.152  15.236   4.165  0.0158 -0.0566  0.2679
17636W        W34483  14.894   4.914  11.798 -0.1572  0.0037  0.3797
17637W        W34484   9.722  13.498   2.637 -0.0508  0.1436 -0.4129
17638W        W34485  13.385   8.312   4.488 -0.0366 -0.0052  0.1170
17639W        W34486   0.172  12.624  15.751  0.0055 -0.0234 -0.2522
17640W        W34487   7.819   5.232  11.462 -0.1656 -0.1393 -0.2625
17641W        W34488  12.441   6.706   1.117  0.1895  0.0720 -0.0429
17642W        W34489   6.261   8.592   1.850 -0.1540 -0.0364  0.0760
17643W        W34490   9.617  11.507  10.434  0.2384  0.0593  0.0445
17644W        W34491  17.990   6.889   2.034 -0.0620  0.3466  0.0230
17645W        W34492  11.612   1.177  13.938 -0.3168 -0.1285 -0.1821
17646W        W34493   8.332   6.937  11.710 -0.0869  0.1118  0.2653
17647W        W34494  18.716   7.989  11.439  0.3826 -0.2488  0.2331
17648W        W34495   2.168  16.952  12.091 -0.1138  0.4078  0.2510
17649W        W34496  10.761   7.561   1.011  0.0842  0.1064 -0.1891
17650W        W34497  10.402  10.881   2.279 -0.2068  0.1276  0.1232
17651W        W34498   6.829   9.033  14.584 -0.2003  0.1111  0.1950
17652W        W34499  14.421  11.447  12.800  0.0482  0.1323 -0.1962
17653W        W34500  18.778  17.343  13.147 -0.0472  0.1528  0.1273
17654W        W34501  17.513   7.869   0.851 -0.2392  0.1394  0.0048
17655W        W34502   5.079  14.605  14.720 -0.2233  0.1962 -0.2045
17656W        W34503   9.759   2.891  11.570 -0.1969 -0.0338 -0.0215
17657W        W34504  16.426   7.460   2.774 -0.0147 -0.0553 -0.2429
17658W        W34505   1.904   2.318  11.177  0.1430 -0.1991 -0.1670
17659W        W34506   0.114  17.688  11.197  0.1231  0.2038  0.0379
17660W        W34507  15.935   8.281  15.140  0.0542  0.2572  0.2891
17661W        W34508   5.670   9.207   2.381  0.0450 -0.2242 -0.0531
17662W        W34509  14.448   1.606   3.297 -0.0128 -0.2143  0.1687
17663W        W34510  15.432   4.965  13.329  0.1272 -0.0724  0.0275
17664W        W34511  12.090  10.291  11.847 -0.2270 -0.0648 -0.2087
17665W        W34512   9.157  12.324  12.219  0.3087  0.0610  0.0148
17666W        W34513  17.041   2.763  13.135 -0.0311 -0.1308 -0.0670
17667W        W34514  16.013   3.066  12.034 -0.3479  0.4198 -0.1690
17668W        W34515  15.451   3.715   1.295  0.1184  0.2662  0.0679
17669W        W34516   8.980  14.276  11.918 -0.0966  0.2231  0.2650
17670W        W34517  14.788  17.363   1.227 -0.0092 -0.2739 -0.1074
17671W        W34518  12.427  13.921  13.869 -0.1824  0.0568  0.1153
17672W        W34519   2.064   7.527  13.950 -0.1950 -0.1326  0.1122
17673W        W34520  11.350   2.702   1.445  0.3535  0.1388  0.0303
17674W        W34521   3.560  13.439  15.573 -0.2375 -0.0496 -0.0577
17675W        W34522   0.552  12.954   5.625  0.0572 -0.0604  0.4081
17676W        W34523  12.599  10.817   3.128 -0.3586 -0.0444 -0.2054
17677W        W34524  14.983  12.014  13.820 -0.2677  0.2617 -0.2107
17678W        W34525   1.323  11.595   1.136 -0.1029 -0.0107 -0.0882
17679W        W34526  15.076   4.009  12.244 -0.2820 -0.0548 -0.2706
17680W        W34527  12.497  10.497  13.846 -0.1938 -0.1224  0.2357
17681W        W34528  18.226   6.277  13.352  0.0211  0.1741  0.2559
17682W        W34529  12.320   2.884  13.853  0.0121 -0.0854  0.0913
17683W        W34530  16.284   5.349   2.348 -0.1612  0.2459 -0.0136
17684W        W34531   3.625   9.616  12.957 -0.0499  0.1242  0.2534
17685W        W34532   2.676  17.779   0.901  0.2952 -0.2210  0.2792
17686W        W34533  11.288  14.893   4.213 -0.0515 -0.0563 -0.3477
17687W        W34534  13.011   9.128  12.733  0.2551  0.3953  0.0505
17688W        W34535  12.240  11.721   1.536  0.0083  0.0431 -0.3030
17689W        W34536  12.947  13.998   2.771  0.0015  0.0435  0.1566
17690W        W34537  11.946   5.459   3.651 -0.2194  0.1621 -0.2093
17691W        W34538   2.389  14.208  11.718 -0.0577  0.1622  0.0623
17692W        W34539  12.725  10.933   4.335  0.3318  0.0451 -0.1512
17693W        W34540   9.527   9.250  10.428 -0.1520 -0.0414  0.2539
17694W        W34541   2.065   4.457  11.339  0.0697 -0.0337 -0.1467
17695W        W34542  11.052  11.871   5.299 -0.0575  0.1943  0.2840
17696W        W34543   8.211   5.855  14.516  0.0860  0.0474 -0.1867
17697W        W34544   3.335   4.064  11.024 -0.0517  0.0607  0.0266
17698W        W34545  17.977   5.894  11.984 -0.0124 -0.3393 -0.0255
17699W        W34546  17.385   5.862   5.136  0.1602  0.0941  0.0150
17700W        W34547  15.832   1.975  11.450  0.1577 -0.0804 -0.1550
17701W        W34548   5.429   8.750   3.615  0.0951  0.3914  0.2316
17702W        W34549   0.953  18.841   2.159  0.1040  0.0286 -0.2792
17703W        W34550  13.737  11.703   3.096  0.3529 -0.3159  0.0316
17704W        W34551   6.685  16.691  13.628 -0.0717  0.2184  0.1269
17705W        W34552   8.443  11.336  13.109 -0.3238 -0.1771 -0.1291
17706W        W34553  14.680   5.492   3.509 -0.2707 -0.1277 -0.0903
17707W        W34554  12.985   0.311  15.636  0.2262 -0.0627 -0.2221
17708W        W34555   2.824  16.026  11.022  0.0150  0.1363  0.1452
17709W        W34556  13.435   4.223  13.749  0.0366 -0.1445 -0.0450
17710W        W34557   9.721   4.530  14.782  0.1926 -0.4254 -0.0235
17711W        W34558   3.234  17.062   4.547 -0.4082  0.1994 -0.0658
17712W        W34559  12.336   9.631  12.780 -0.1717 -0.1765  0.0444
17713W        W34560  13.578   5.654   4.688 -0.0697 -0.2622  0.1602
17714W        W34561  10.814   7.892  13.120 -0.1593  0.1040  0.0217
17715W        W34562   1.433  10.310   1.837  0.0765  0.1268 -0.2059
17716W        W34563   8.807  16.632   9.781 -0.2230  0.1127  0.2466
17717W        W34564  16.168   2.015   3.680 -0.1080 -0.1735 -0.3300
17718W        W34565  13.342   2.064   1.760 -0.3439 -0.2023  0.1076
17719W        W34566  10.605  15.149   4.639 -0.0722  0.0775  0.0957
17720W        W34567  14.529   6.014   1.090  0.0148 -0.1283 -0.0430
17721W        W34568  15.351  16.616   4.247  0.1384  0.0819 -0.3050
17722W        W34569   7.204  14.015   4.716  0.1370  0.0467  0.1672
17723W        W34570   8.490   9.846  12.422  0.2249 -0.0294  0.4201
17724W        W34571  15.912   7.054  14.121  0.0809  0.1477 -0.4284
17725W        W34572   3.018   5.317   2.740 -0.1737 -0.4280  0.1447
17726W        W34573   9.469   5.516   4.133  0.2237  0.0837  0.0045
17727W        W34574   5.859   2.061  11.003  0.1619  0.0793 -0.3350
17728W        W34575   7.888   6.151   0.218  0.2477 -0.2732 -0.1184
17729W        W34576   7.037  13.435   3.632  0.3009  0.0955 -0.2342
17730W        W34577  11.132   0.721   1.637 -0.0550 -0.1797 -0.0087
17731W        W34578   8.215  10.805   1.642  0.1320  0.0979  0.2261
17732W        W34579  12.834   2.905  11.242 -0.1164  0.0616 -0.1951
17733W        W34580  13.847   5.480   5.170  0.2266  0.1283  0.3685
17734W        W34581   3.102   5.034   5.474  0.0668  0.0220 -0.0383
17735W        W34582  17.860  15.853   2.987  0.1862  0.1987 -0.1411
17736W        W34583   0.911   8.740  13.295  0.0604 -0.2356 -0.1936
17737W        W34584   5.227   8.479  14.405 -0.1207  0.1824  0.1324
17738W        W34585   6.866   4.375  12.816  0.1397 -0.0138  0.0819
17739W        W34586   3.077   3.885  14.146  0.0847  0.0337 -0.0151
17740W        W34587   0.414   0.605  14.302  0.2747 -0.2314 -0.1178
17741W        W34588   9.625   6.590   0.106  0.0038 -0.1763 -0.0766
17742W        W34589  12.006  12.228   0.543  0.0639  0.0422 -0.1271
17743W        W34590  11.402   6.862   0.542  0.0406  0.1626  0.2962
17744W        W34591  11.920   2.521   2.688  0.1191 -0.0161 -0.1538
17745W        W34592  16.538  13.123  12.669  0.1104 -0.1786 -0.0198
17746W        W34593   7.974   2.630   3.177  0.2132  0.0927  0.0797
17747W        W34594   5.525   8.604  13.651  0.0305 -0.3313  0.1449
17748W        W34595   3.426   7.025   5.376  0.0307 -0.1779 -0.0579
17749W        W34596  13.176   2.882  15.274 -0.0008 -0.1276  0.1301
17750W        W34597   5.772   5.195  11.784  0.0920  0.1223 -0.2748
17751W        W34598   2.499   6.553   4.481  0.0351  0.2350  0.1325
17752W        W34599  15.289  11.534  13.204 -0.1115 -0.0407 -0.1634
17753W        W34600  11.623  14.165   3.477  0.1873  0.0997  0.2370
17754W        W34601   0.937  16.839   4.788 -0.0083 -0.0084  0.1091
17755W        W34602  16.678  13.662  14.252 -0.1457 -0.0718  0.1629
17756W        W34603  14.817  16.711  12.353  0.1099  0.1713 -0.1487
17757W        W34604   9.344   9.387  13.900 -0.4421 -0.2872 -0.2529
17758W        W34605   9.106   4.802  11.890 -0.2758  0.0801 -0.2280
17759W        W34606   0.249   6.689   1.248 -0.0884 -0.1749  0.0201
17760W        W34607   6.194  13.167  15.099 -0.2872  0.1122  0.1011
17761W        W34608   2.414   9.401   2.432  0.1594  0.0316  0.0937
17762W        W34609  11.658  15.409   4.632  0.1526 -0.0658 -0.0216
17763W        W34610   0.868   9.916   4.722 -0.4778  0.1744 -0.0299
17764W        W34611  10.135  15.139   4.659 -0.0551  0.0688 -0.2596
17765W        W34612   5.320   3.646  13.129  0.1149 -0.0530 -0.0194
17766W        W34613  14.528   8.078  15.373  0.0574  0.1417 -0.2023
17767W        W34614  18.038  16.123   4.180 -0.2402 -0.0818 -0.1787
17768W        W34615  18.826  14.479  15.670  0.2148  0.4154  0.1534
17769W        W34616  16.385  18.374   5.593  0.1252 -0.1212 -0.0404
17770W        W34617   9.162  13.676   0.795  0.0939 -0.5126  0.0620
17771W        W34618   8.832  16.740  10.919  0.0238  0.0563 -0.2576
17772W        W34619  11.826  13.015  14.773  0.0332  0.1170 -0.1462
17773W        W34620   0.219   1.353  13.408 -0.0086 -0.0147  0.2035
17774W        W34621   8.923  16.202   0.647 -0.0941 -0.2354  0.2655
17775W        W34622   6.969  10.714  11.047 -0.1525  0.0297  0.1591
17776W        W34623  15.604  18.815   0.150 -0.1988 -0.0566 -0.1114
17777W        W34624  17.061   3.407   1.560 -0.0741  0.3083  0.0584
17778W        W34625  14.129   7.371   2.308 -0.0250 -0.3320 -0.3712
17779W        W34626   3.505   4.980  13.548 -0.2249 -0.0550  0.0407
17780W        W34627  18.766  11.083  15.729 -0.1818 -0.2329  0.0990
17781W        W34628  17.500   6.339   5.034  0.0040 -0.2422 -0.0059
17782W        W34629   0.584  11.445  14.972 -0.0846  0.0702  0.0055
17783W        W34630  17.355  13.517  11.592 -0.3344 -0.3963  0.0788
17784W        W34631  12.453   1.711  14.946  0.2131 -0.2016 -0.2021
17785W        W34632   8.701   5.075  11.939 -0.0391 -0.1360  0.0241
17786W        W34633   7.476   8.139  11.989  0.0263 -0.0867 -0.1223
17787W        W34634   2.137  14.967  15.290 -0.4236 -0.2111 -0.0650
17788W        W34635  16.826   8.659   2.270 -0.0096 -0.3421  0.2500
17789W        W34636   5.030  10.226   4.129  0.1799  0.0571 -0.3145
17790W        W34637  12.130   8.589  11.223 -0.1413  0.2770  0.2325
17791W        W34638  16.270  14.323  12.996 -0.0067  0.1205 -0.0800
17792W        W34639   0.904  16.976   1.155  0.0094  0.0004  0.3306
17793W        W34640  14.793  11.831  11.976  0.0046  0.2132  0.2512
17794W        W34641   3.741   7.641   3.988 -0.1294 -0.3318  0.2469
17795W        W34642   4.356   0.805   0.836  0.0958  0.1347  0.0144
17796W        W34643  15.410  11.353   4.120  0.1592 -0.1609  0.2711
17797W        W34644   8.812  15.681  14.099 -0.0708 -0.0786 -0.2202
17798W        W34645  16.900   8.568   0.340 -0.1348 -0.2840  0.2101
17799W        W34646   3.698   3.327   2.096  0.2846  0.0792  0.2818
17800W        W34647  17.002   8.876   1.481  0.0333  0.0773  0.1396
17801W        W34648   7.545  10.889  13.027 -0.2095 -0.1204 -0.5261
17802W        W34649  15.584  14.490   3.319 -0.0775  0.0850  0.1413
17803W        W34650  11.690   8.749   3.270  0.3512  0.2445  0.3241
17804W        W34651  14.997   8.378  11.304 -0.1212  0.4084  0.0849
17805W        W34652   3.292   7.174  11.718 -0.0292 -0.3486 -0.0254
17806W        W34653  18.324   3.794   1.172 -0.0791 -0.1687 -0.2262
17807W        W34654   9.726  10.755  13.707 -0.2823  0.1609  0.2569
17808W        W34655   6.118   8.741   1.193  0.2053  0.2388 -0.3402
17809W        W34656   0.751  14.168  12.155  0.1857  0.1477 -0.1952
17810W        W34657   5.775   6.313   5.248  0.2049  0.1297  0.3440
17811W        W34658  18.447   2.086   2.759 -0.0246  0.0376  0.1143
17812W        W34659  12.689  12.221  13.091  0.0427  0.1263 -0.0194
17813W        W34660   7.948   3.413   3.610 -0.1806 -0.0773  0.0906
17814W        W34661  13.199  11.105   2.532 -0.3897 -0.1379 -0.2841
17815W        W34662  18.663   3.183  12.536  0.0868  0.1444 -0.0282
17816W        W34663  18.137  12.164   0.398 -0.1650 -0.2181 -0.0868
17817W        W34664   3.931  17.381  11.501 -0.0044  0.1473  0.0607
17818W        W34665  18.723  12.941  11.881  0.0155 -0.2559  0.0818
17819W        W34666  13.347   4.310   4.417 -0.0918  0.1054  0.2098
17820W        W34667   0.517   4.067  11.555 -0.0477 -0.0095  0.1757
17821W        W34668   8.014   5.047   1.826  0.1692  0.2293  0.0188
17822W        W34669   5.972   9.703  10.966  0.2365  0.1767  0.2744
17823W        W34670   7.752  17.428   0.239  0.2882 -0.1840  0.0165
17824W        W34671   0.404  16.215   4.468 -0.1183 -0.1024  0.0590
17825W        W34672   9.794   1.833   0.847  0.0650 -0.0563  0.1795
17826W        W34673  16.051  12.474  11.698 -0.1063  0.0457  0.1559
17827W        W34674  11.651  10.373  14.904 -0.0826 -0.0113 -0.1058
17828W        W34675   1.235  14.685   1.781 -0.1615 -0.0897  0.1104
17829W        W34676   2.051  17.814   3.810  0.1140  0.3021  0.1773
17830W        W34677  18.349   9.817  10.896  0.1502  0.2319 -0.1618
17831W        W34678  18.175   4.338   5.404 -0.0155  0.2450  0.0426
17832W        W34679  13.773  15.906   3.364 -0.0060  0.2936 -0.3382
17833W        W34680   4.853   4.109   3.215 -0.1420 -0.1298 -0.2093
17834W        W34681  13.208  16.902  11.859 -0.0475 -0.1967 -0.0592
17835W        W34682   6.044   6.505  11.213  0.0208  0.0582 -0.2591
17836W        W34683  13.117   1.376  12.214 -0.0551 -0.0015 -0.2145
17837W        W34684  13.655  12.182  11.369 -0.1030  0.2771  0.0756
17838W        W34685   2.293  16.799   2.407 -0.0280  0.3999 -0.1243
17839W        W34686  10.233   8.656  15.475  0.1341  0.1714  0.1760
17840W        W34687   5.418  12.543   2.825 -0.1011  0.2711  0.1200
17841W        W34688   0.969   3.609   1.049 -0.0429 -0.0632  0.3734
17842W        W34689   2.962  10.240   2.913  0.0765  0.2630 -0.0207
17843W        W34690   2.484  12.338   3.889 -0.0575 -0.1203 -0.0697
17844W        W34691   0.756   6.820   5.819  0.0226  0.0186 -0.0083
17845W        W34692  14.437   8.466  14.313 -0.0843 -0.0827  0.1337
17846W        W34693  12.152  18.694   2.346 -0.0166 -0.0457 -0.1122
17847W        W34694  13.365  17.572  14.782 -0.2980 -0.1825 -0.0376
17848W        W34695   7.065  10.228  15.028  0.2126  0.4314 -0.1078
17849W        W34696   1.634   9.822   1.814  0.0383  0.1641  0.1727
17850W        W34697   9.543  14.620   1.840  0.1683 -0.0858  0.0022
17851W        W34698  10.256   9.894  10.502 -0.1085  0.2011 -0.3000
17852W        W34699   4.384  17.588   0.213  0.1176 -0.1440 -0.0841
17853W        W34700   4.255   7.727   4.439 -0.0615  0.0097  0.0431
17854W        W34701   7.909   8.743   4.228 -0.0473  0.0119  0.0342
17855W        W34702  16.040   1.749   5.394 -0.0463 -0.0196 -0.1402
17856W        W34703  16.833   6.299  12.647 -0.0445 -0.2007  0.1352
17857W        W34704   4.081   5.736  14.367  0.2012 -0.2274 -0.2366
17858W        W34705   9.538  13.075   4.444 -0.2489 -0.1138  0.4092
17859W        W34706  11.287   8.511  11.317 -0.3560  0.0804 -0.0260
17860W        W34707   6.089   2.127   2.784  0.1016 -0.0249  0.3495
17861W        W34708  12.222  16.247   1.099 -0.0423 -0.1466  0.2315
17862W        W34709   9.845   0.230  14.870 -0.1221  0.1333  0.0362
17863W        W34710   0.552  16.471   3.479 -0.2012  0.4709 -0.0808
17864W        W34711   9.381  10.087   4.735 -0.0709  0.1241 -0.2569
17865W        W34712   2.132  14.858  13.740  0.0197  0.1456  0.0526
17866W        W34713  17.638   0.104  11.255  0.0037 -0.0235 -0.0075
17867W        W34714  14.818  17.505   2.512 -0.5559  0.1225 -0.1599
17868W        W34715  12.644  17.248   3.488  0.1661  0.0340  0.0198
17869W        W34716   4.607   1.685  10.705 -0.1293 -0.1424  0.0350
17870W        W34717  15.544  13.456   0.680  0.0112 -0.3242 -0.0737
17871W        W34718  11.455   0.755  10.957 -0.3836  0.0326 -0.0767
17872W        W34719  13.346  14.882  14.383  0.2945 -0.0301  0.0313
17873W        W34720   8.473  17.140   1.338  0.3677  0.4698  0.0574
17874W        W34721   7.246   1.671   4.245  0.2199  0.1857 -0.1896
17875W        W34722   0.713   9.583  13.478  0.1009 -0.0757  0.0962
17876W        W34723   5.279  11.901   4.783  0.2289  0.1965 -0.1634
17877W        W34724   5.861   4.837   3.717 -0.1868 -0.2640 -0.2781
17878W        W34725   2.820   1.889   3.337 -0.1504  0.2191 -0.3962
17879W        W34726   5.883   6.051  12.975 -0.0309  0.0444 -0.1257
17880W        W34727   2.390   6.346   2.367 -0.1036 -0.1026  0.0853
17881W        W34728   6.570   0.260   3.351 -0.2396 -0.1587  0.2687
17882W        W34729  15.579   1.486   3.761 -0.0387  0.2187  0.1118
17883W        W34730   4.657   8.906  13.057 -0.2707  0.0654  0.0716
17884W        W34731  15.106   6.971  12.438  0.1366  0.0174 -0.1661
17885W        W34732  11.511  12.308  11.631 -0.0501  0.0217  0.0338
17886W        W34733  10.790   0.368  12.483  0.0736  0.2248 -0.1805
17887W        W34734   1.204   3.060   0.917  0.0986 -0.0929  0.2294
17888W        W34735  12.199  18.804   1.165  0.0628  0.1420 -0.2531
17889W        W34736   5.958   6.936  12.460  0.0748 -0.2066 -0.1329
17890W        W34737   6.203   8.298   2.199 -0.1930 -0.3499 -0.1670
17891W        W34738   2.746   7.516   2.241 -0.1146  0.0772 -0.2438
17892W        W34739   2.707   5.243   0.547  0.1671  0.0871 -0.1413
17893W        W34740   1.322   5.567   3.540  0.1125 -0.4623  0.0392
17894W        W34741  13.965  16.889  14.425 -0.3193 -0.0428 -0.1773
17895W        W34742   1.195   5.143  14.206 -0.1845 -0.1369  0.1620
17896W        W34743   6.290   8.882  12.459 -0.3432  0.2186  0.1488
17897W        W34744  13.881   7.425  11.071  0.1569  0.0176 -0.2426
17898W        W34745  14.629   0.053  11.668  0.0134  0.2357  0.1437
17899W        W34746   5.354  14.987  14.400 -0.1938 -0.0431  0.3952
17900W        W34747   4.062   2.919  11.784 -0.0345 -0.1322 -0.0853
17901W        W34748  12.513   8.962   3.082  0.0940 -0.1569  0.1004
17902W        W34749   5.531   3.705  15.760 -0.0522  0.1678 -0.1308
17903W        W34750  18.085   6.628  14.442  0.0065  0.4098 -0.2497
17904W        W34751  13.816  11.560   0.631  0.2465 -0.0407 -0.1813
17905W        W34752  12.984  10.645   5.281  0.0690  0.0806 -0.6037
17906W        W34753   9.732  18.101  15.654 -0.1013  0.1183 -0.1285
17907W        W34754  14.915  14.365   2.755 -0.0713 -0.3480 -0.0438
17908W        W34755  12.886   8.122  13.662  0.3049 -0.2259 -0.3930
17909W        W34756  13.192  15.805   2.655  0.0929 -0.0632 -0.1105
17910W        W34757  12.176   9.847   0.562  0.2102 -0.2874  0.0952
17911W        W34758  18.849  12.539  12.352 -0.0371  0.2094 -0.1434
17912W        W34759   4.067   3.825   4.144  0.2603 -0.1122  0.1148
17913W        W34760   2.828   7.989   2.554 -0.4012  0.0314  0.1142
17914W        W34761  12.433   9.916  11.725  0.3831  0.2099  0.1162
17915W        W34762   6.612  12.924  11.690 -0.2420  0.0861  0.0307
17916W        W34763   8.851  15.315  14.441 -0.0810  0.3821 -0.1025
17917W        W34764  13.741   5.753  13.446  0.3261  0.4009  0.0528
17918W        W34765  15.326   2.102   4.686 -0.1531  0.1999  0.3702
17919W        W34766  12.607   7.508  15.714 -0.2179 -0.4164 -0.6487
17920W        W34767  18.108  12.945  11.749 -0.0167 -0.0313 -0.1359
17921W        W34768  15.492  13.769  13.503  0.0443 -0.3190  0.3307
17922W        W34769   7.206   5.539   3.338  0.0132 -0.0684  0.0595
17923W        W34770  14.254  13.771   2.940  0.1456 -0.2790 -0.0248
17924W        W34771   6.507   5.958   4.067  0.2396 -0.1479  0.0669
17925W        W34772  17.525   8.867   4.836  0.4134 -0.0854  0.0215
17926W        W34773  10.476  11.215   0.714 -0.0647 -0.3374  0.0794
17927W        W34774   5.977  18.195   4.118 -0.1400 -0.0684 -0.1407
17928W        W34775  18.719  17.568  11.987 -0.0274 -0.1978 -0.0676
17929W        W34776  17.286  13.000  15.540  0.0198 -0.0206  0.0283
17930W        W34777   4.817  18.665   3.210  0.1264 -0.2011 -0.0020
17931W        W34778   3.569  11.714   2.893  0.0733  0.1381 -0.1081
17932W        W34779  12.416   2.413  15.323  0.0969 -0.1444  0.2747
17933W        W34780   3.713  11.973  11.809  0.0375  0.1008 -0.1731
17934W        W34781   9.781  17.988  14.220 -0.0962  0.1200  0.3605
17935W        W34782   0.451  18.835   1.394 -0.0515 -0.1122 -0.0371
17936W        W34783   5.312   8.631   5.282  0.1753  0.0476  0.0630
17937W        W34784  11.900   1.446   0.758  0.1564  0.1191 -0.2874
17938W        W34785  14.414   7.457   0.324 -0.4362 -0.2370 -0.2572
17939W        W34786   8.427   4.637   3.053  0.0324  0.3054  0.0529
17940W        W34787  13.460   3.635   1.326 -0.0031 -0.2038 -0.0270
17941W        W34788  10.037   7.369  13.463  0.1397 -0.0405 -0.2364
17942W        W34789  11.976  10.600  13.652  0.1901  0.0536 -0.0959
17943W        W34790   0.021  16.717   5.113 -0.1295  0.0353 -0.1408
17944W        W34791   2.152   0.305   1.173 -0.3100  0.0374 -0.0329
17945W        W34792   9.815  14.112   0.354  0.2209  0.3319  0.0713
17946W        W34793  11.141  12.675   4.528  0.0756  0.0960  0.0927
17947W        W34794   7.176   7.707  12.977  0.0825 -0.0323 -0.0561
17948W        W34795   8.407   0.794  15.757  0.1784  0.0592 -0.4434
17949W        W34796   2.602   7.077  13.449 -0.1807  0.1109 -0.2835
17950W        W34797   5.319   3.290   0.677  0.1026 -0.3337 -0.3440
17951W        W34798  11.416  15.776   3.631 -0.0030 -0.1274  0.1068
17952W        W34799  13.579  11.560   2.139  0.1782 -0.0007  0.1146
17953W        W34800  12.152  15.365   2.307 -0.1035 -0.1684 -0.3934
17954W        W34801   5.050   8.192   5.117 -0.0810  0.0596  0.0757
17955W        W34802   6.042   5.354   3.966 -0.0679 -0.1294  0.1546
17956W        W34803   9.899  10.596  10.694 -0.0981 -0.0576 -0.1480
17957W        W34804  12.310  10.005  12.212  0.1573 -0.0257 -0.0870
17958W        W34805   7.828  18.260   3.757 -0.1079 -0.2312 -0.0440
17959W        W34806  16.283   4.185  15.688  0.0191 -0.1274  0.0158
17960W        W34807   2.889   6.071   4.217 -0.3121 -0.2946  0.0599
17961W        W34808   2.043  15.636  14.732 -0.2200 -0.2070  0.1175
17962W        W34809   0.891  12.794  11.845 -0.0162  0.0369  0.2647
17963W        W34810   2.283  12.368  12.991 -0.0841  0.1142  0.1252
17964W        W34811   5.197   5.351   0.371  0.2582 -0.0740  0.3427
17965W        W34812   7.608  16.461   1.146  0.1369  0.0141  0.0311
17966W        W34813   2.689   5.032   3.636  0.3732 -0.2540 -0.0883
17967W        W34814   2.609  13.926  10.192  0.1145 -0.3288 -0.0425
17968W        W34815   2.377   0.112  13.076  0.0909  0.0925  0.0282
17969W        W34816   9.375   1.601  12.915 -0.0253  0.3382  0.0662
17970W        W34817  11.524  18.731  11.162 -0.0749 -0.0144 -0.2370
17971W        W34818   2.821   9.981  11.584 -0.0753  0.0334  0.0418
17972W        W34819   6.511   3.904   1.703 -0.3971 -0.0163 -0.2444
17973W        W34820   9.042   8.691   2.979 -0.0222  0.2556 -0.1928
17974W        W34821   9.740  12.754   3.800 -0.1332 -0.0125  0.0719
17975W        W34822   6.927   8.545  15.361 -0.0990 -0.4068  0.3031
17976W        W34823   6.042  17.260   2.646  0.4404 -0.1392 -0.0495
17977W        W34824  13.981   0.530   3.163 -0.0406  0.0149  0.0349
17978W        W34825  14.415   5.539   1.407 -0.1039 -0.1283  0.0652
17979W        W34826   4.600  14.878  14.969 -0.3026 -0.1628  0.0328
17980W        W34827  17.167   2.060  12.260 -0.0713 -0.1008 -0.1626
17981W        W34828   1.597  12.340  10.749 -0.0791 -0.1537 -0.1392
17982W        W34829  18.681   9.740  11.264  0.0456 -0.1249  0.2013
17983W        W34830   0.240  11.183   1.202 -0.1803 -0.2456  0.2682
17984W        W34831  10.160  11.061  15.657 -0.2221  0.2455 -0.1497
17985W        W34832  14.602   4.621   1.885  0.0876 -0.1498  0.2507
17986W        W34833  17.707   5.347  12.969 -0.0088  0.3465  0.1874
17987W        W34834  10.458   7.566  13.287 -0.1765 -0.6045  0.2260
17988W        W34835  11.377   0.892  15.123  0.2861 -0.2177 -0.2223
17989W        W34836   7.177  12.579  10.840 -0.0431 -0.0735  0.0593
17990W        W34837  17.678  12.124   4.328  0.1461 -0.1561  0.0504
17991W        W34838   0.735  17.116   2.280 -0.0635  0.1388 -0.1291
17992W        W34839   6.399  17.137  10.290  0.0077  0.0918 -0.6242
17993W        W34840   9.055  16.531   3.575  0.0397  0.1621 -0.2845
17994W        W34841   8.088  12.843  10.751 -0.3455 -0.2482  0.2397
17995W        W34842   9.141  17.496  12.012 -0.2251 -0.1961  0.5019
17996W        W34843  16.093  18.525   0.834  0.2818 -0.0878 -0.2478
17997W        W34844   2.203  14.103  14.865  0.2759  0.3363  0.1643
17998W        W34845  12.573  18.443   2.030 -0.2081  0.2709 -0.0936
17999W        W34846  16.753  17.924  13.582 -0.1903 -0.0804 -0.2681
18000W        W34847  16.307  18.749   6.040  0.0295 -0.0219  0.0883
18001W        W34848  17.489  15.728   2.660  0.2678 -0.3355  0.0604
18002W        W34849   9.056   4.977   1.719  0.0577  0.3537  0.3232
18003W        W34850   5.665  17.098  13.370 -0.1529  0.2968  0.0095
18004W        W34851   2.801   3.027  11.176  0.1369 -0.1841 -0.0487
18005W        W34852  16.415   1.695   6.223  0.2685  0.1473 -0.0693
18006W        W34853   4.666  16.105   1.288  0.2114  0.2674  0.2033
18007W        W34854   4.619  16.629   9.624  0.0787  0.0788  0.1827
18008W        W34855  10.158  16.200   0.021 -0.3165 -0.6073 -0.2428
18009W        W34856   9.017   7.604   1.960 -0.0091 -0.1427 -0.2814
18010W        W34857  16.371  14.451   1.259  0.3665  0.0007 -0.1670
18011W        W34858  17.017   7.125  13.380  0.1342  0.3656  0.1083
18012W        W34859   8.208   2.823  13.000 -0.0528  0.0898 -0.2560
18013W        W34860  12.636  11.134   2.745 -0.0496  0.0040 -0.2331
18014W        W34861   3.176   9.810  11.954 -0.1446  0.2871  0.0345
18015W        W34862   7.781   0.240   3.412 -0.0805 -0.2937 -0.2774
18016W        W34863  12.183   4.532  13.625 -0.0177 -0.0432  0.1582
18017W        W34864   1.185   2.822   3.838 -0.0635  0.1529 -0.0241
18018W        W34865   5.053   2.133  11.341 -0.0887 -0.1383  0.1099
18019W        W34866   2.451   9.706   0.421 -0.0356  0.3750  0.0465
18020W        W34867   9.213   7.743   0.041  0.1924 -0.1999  0.0310
18021W        W34868   4.419  17.346   4.284  0.0962 -0.0796  0.1051
18022W        W34869   0.637  13.177  11.571 -0.1814 -0.0615  0.0390
18023W        W34870   0.392   1.267   2.746 -0.2974 -0.1010  0.1990
18024W        W34871  11.125   9.568  10.523  0.1633  0.1491  0.0312
18025W        W34872  15.647   6.589   2.657  0.1839 -0.0297 -0.1839
18026W        W34873   7.279   8.091   0.382 -0.0235  0.0092  0.0561
18027W        W34874   6.223  13.616   3.291 -0.0657  0.1776  0.0038
18028W        W34875   5.031   1.862   1.075  0.1814 -0.0647 -0.0315
18029W        W34876  15.365  11.670  12.722 -0.2937  0.1704  0.0084
18030W        W34877   6.368  18.153  12.165 -0.1078  0.1279  0.1201
18031W        W34878   0.790   3.275  15.229  0.1242 -0.2637 -0.3622
18032W        W34879   2.253   9.666  11.061  0.1252  0.0006 -0.1502
18033W        W34880  18.538  10.540   3.675  0.0899  0.1037 -0.2879
18034W        W34881   5.197  14.672   2.107 -0.2008 -0.1766 -0.1417
18035W        W34882   4.704  10.510  13.079  0.0599 -0.2283  0.0295
18036W        W34883   3.665  14.602  10.300  0.0675  0.0566 -0.2906
18037W        W34884  10.767  18.707  13.767 -0.0714 -0.2157  0.1161
18038W        W34885   0.121   5.958   2.934  0.0571 -0.2487  0.0002
18039W        W34886   3.976   5.946   1.703  0.0199  0.3487  0.0627
18040W        W34887   6.712   7.305  15.082 -0.0797 -0.0085 -0.1059
18041W        W34888  18.836  15.772   0.574 -0.1412  0.2042  0.1323
18042W        W34889  15.929   2.907  14.039 -0.1841  0.0744 -0.0199
18043W        W34890  12.770   7.164   3.638  0.2717  0.0891 -0.2293
18044W        W34891   9.797  15.362   1.741  0.1602 -0.1030 -0.1532
18045W        W34892  18.321  13.180   1.776 -0.1855  0.2821 -0.1823
18046W        W34893  10.960   6.766   1.341 -0.0126  0.4292 -0.0408
18047W        W34894  15.071   0.497  15.240  0.1651  0.2045 -0.0634
18048W        W34895   3.907   6.811  13.807 -0.0513 -0.0171  0.2702
18049W        W34896  15.894   9.248   1.252  0.1022  0.0501 -0.1176
18050W        W34897  10.003  12.759  12.610  0.3005  0.3616 -0.2592
18051W        W34898   5.210   5.901   2.049  0.1503  0.1476 -0.0312
18052W        W34899   9.549   3.554  12.457  0.2421  0.0424 -0.1188
18053W        W34900   1.768  16.411   1.242  0.1098 -0.0685 -0.0926
18054W        W34901  10.236  14.795   2.759  0.0060 -0.3292 -0.0549
18055W        W34902   1.689  17.421   0.535 -0.0649 -0.1726 -0.0652
18056W        W34903  14.192   9.995   4.828  0.1264 -0.1926  0.3195
18057W        W34904   4.375   0.526   2.407  0.1698  0.0023 -0.1854
18058W        W34905  14.734   5.806  12.540 -0.1402 -0.2805  0.3110
18059W        W34906   7.044  11.443   1.134  0.0187 -0.0158  0.1430
18060W        W34907  12.824   3.819  14.296  0.0039  0.0679  0.0284
18061W        W34908   5.911   4.394   1.969  0.0761 -0.2139  0.2846
18062W        W34909  17.139  18.654  15.136 -0.1616  0.2719 -0.0967
18063W        W34910   3.823   9.599   1.855 -0.0066 -0.0091  0.1738
18064W        W34911   4.179  13.957   4.425 -0.0554 -0.0481  0.0761
18065W        W34912  11.290   5.022  13.679 -0.0487 -0.0625 -0.1459
18066W        W34913   4.597  11.355  15.100  0.1154 -0.2777 -0.1498
18067W        W34914  16.670  15.372  11.639  0.0530 -0.1776 -0.1965
18068W        W34915   8.793   0.457  11.538  0.1018 -0.3077  0.1568
18069W        W34916   2.311   0.067  15.588 -0.1529 -0.0977  0.1694
18070W        W34917  13.505  18.499   0.149  0.1250  0.0598  0.1417
18071W        W34918  17.233  10.467  12.130 -0.0677  0.0492  0.1226
18072W        W34919  16.511   4.683   5.087  0.0043 -0.1221 -0.2491
18073W        W34920   2.219   1.207  11.685  0.0140 -0.1852 -0.1994
18074W        W34921   3.543   2.135  13.416 -0.0084 -0.1166  0.1899
18075W        W34922  12.500   5.858  12.004  0.0932 -0.0275  0.1278
18076W        W34923  11.054   4.074  13.462  0.2433  0.1382 -0.0507
18077W        W34924   7.792  11.207   1.744  0.0786 -0.1051 -0.1577
18078W        W34925   4.262   4.730   2.779 -0.1213 -0.4025 -0.2324
18079W        W34926   6.146   9.197   4.056 -0.2203 -0.0262  0.0573
18080W        W34927  11.338   8.760   0.401  0.1017 -0.6072  0.0709
18081W        W34928   4.224   9.679   2.145 -0.0141  0.0943 -0.1700
18082W        W34929  15.292  15.048   5.964  0.0515 -0.0265  0.0503
18083W        W34930   2.893   1.445   2.135  0.0253 -0.2152  0.3389
18084W        W34931  16.219  10.483   4.378  0.0306 -0.2956 -0.2041
18085W        W34932  18.070  18.181   2.310  0.3263 -0.3079  0.1897
18086W        W34933   3.403   0.462  13.629 -0.0147  0.1759 -0.1376
18087W        W34934   5.216  16.927  14.158 -0.0347 -0.1257 -0.0910
18088W        W34935   8.349  16.775   0.516 -0.2258 -0.1768 -0.1059
18089W        W34936  11.959   4.524  14.105  0.3262 -0.2370 -0.0896
18090W        W34937  18.697   4.252   3.949  0.1098  0.4976  0.3144
18091W        W34938   9.337   6.110   4.140 -0.3929  0.4213 -0.2513
18092W        W34939   0.887  10.383   3.015  0.2906  0.2550 -0.0721
18093W        W34940   0.959   9.132   2.252 -0.0771 -0.1784 -0.1629
18094W        W34941   0.316   4.091  15.280 -0.1126 -0.5198  0.3252
18095W        W34942   5.017  10.538   1.004 -0.1535  0.1885 -0.2677
18096W        W34943   5.288  11.231   4.334  0.0231 -0.0190 -0.0794
18097W        W34944  10.178   7.323   2.232  0.4895  0.3629 -0.0241
18098W        W34945  13.192  10.369  14.988 -0.0757 -0.1637  0.0803
18099W        W34946  12.351  12.494   4.614  0.2569 -0.0127  0.0231
18100W        W34947   9.962   1.007   0.244  0.5503 -0.1218  0.2536
18101W        W34948  17.396   8.194   3.133 -0.1319  0.4272 -0.1282
18102W        W34949  13.123   1.999  15.538  0.0309  0.0498  0.0967
18103W        W34950   4.882   1.521   0.411  0.0160  0.6958  0.0817
18104W        W34951   6.235  13.060   4.752 -0.2080 -0.0181  0.0906
18105W        W34952  12.267  10.405  12.919  0.0396  0.1211 -0.4326
18106W        W34953   1.017   1.875   4.103 -0.1619  0.0848 -0.2076
18107W        W34954   2.944  17.309   4.109 -0.1636 -0.0701  0.3559
18108W        W34955   7.518   6.987   0.911 -0.2770  0.0800  0.0932
18109W        W34956   3.280   0.675  11.251  0.0802 -0.1481 -0.0885
18110W        W34957   5.613   2.359  14.493 -0.4740  0.0933  0.1418
18111W        W34958  12.524  10.640   0.347 -0.0462 -0.1339  0.1170
18112W        W34959   2.552  17.508  13.823 -0.1581  0.1238 -0.0498
18113W        W34960  15.769   7.175   5.310  0.1637  0.1804 -0.1854
18114W        W34961   0.576  14.514  12.718  0.3041 -0.0583 -0.2453
18115W        W34962   4.989  13.401   2.462 -0.2365  0.2392 -0.1344
18116W        W34963   6.604   9.140  11.916  0.2580 -0.3990 -0.2478
18117W        W34964   3.733   6.900  12.468 -0.0801 -0.0840  0.0243
18118W        W34965   4.370   5.692   5.161  0.0884 -0.1654 -0.3737
18119W        W34966  17.803   2.872   5.367 -0.2161  0.0863  0.1103
18120W        W34967  12.816   8.312   3.374  0.0153  0.1933  0.2166
18121W        W34968  18.774  18.501  12.976  0.3152  0.0751 -0.0505
18122W        W34969   2.347  13.274   1.730  0.0227  0.1323 -0.0980
18123W        W34970   8.952  11.042   3.921 -0.2945  0.0884  0.0177
18124W        W34971  11.285   4.076  13.886 -0.0090 -0.1158 -0.2675
18125W        W34972  15.200  17.756   3.372 -0.3794  0.0545  0.1294
18126W        W34973  14.065   9.136   5.264  0.0732  0.0669 -0.0488
18127W        W34974  17.233   4.227   2.251 -0.4048  0.0692  0.0199
18128W        W34975   4.378   4.719   1.852 -0.1519 -0.1908  0.0612
18129W        W34976   7.125   6.735   0.884 -0.0056  0.1538  0.3711
18130W        W34977   9.919  17.404  15.018  0.4217  0.0978  0.1891
18131W        W34978  12.131  14.234  15.772  0.2411  0.2650  0.1702
18132W        W34979  13.600   6.486  12.771  0.4398  0.1872  0.0846
18133W        W34980  16.278   5.556   1.322 -0.0721 -0.0164  0.1220
18134W        W34981  18.403  16.174   3.852 -0.1121  0.4457  0.0873
18135W        W34982  10.597   9.427   1.674  0.2407 -0.1112 -0.3194
18136W        W34983   0.951   9.796  11.185  0.1620 -0.1232  0.1434
18137W        W34984  14.507  11.172   1.253  0.1018 -0.0963  0.0826
18138W        W34985   5.481  14.275   3.317  0.0667  0.2059 -0.1569
18139W        W34986   4.946   8.600   3.479  0.5103 -0.0086  0.2717
18140W        W34987  17.140   6.950   4.017 -0.0211  0.1170  0.0349
18141W        W34988  13.758   8.024   0.112  0.0075 -0.1558  0.4796
18142W        W34989  14.400  16.950  14.133  0.0720  0.1328  0.0724
18143W        W34990   3.223  10.053   1.397 -0.0276  0.0518 -0.2121
18144W        W34991   5.601   3.505  14.575  0.1045 -0.2857 -0.1242
18145W        W34992  14.522  11.960  14.912 -0.3045  0.0588 -0.0393
18146W        W34993  11.643   5.918   5.623  0.2766 -0.2246 -0.0594
18147W        W34994   6.139  13.109  11.983 -0.0538 -0.0810  0.0525
18148W        W34995  16.581   8.617  13.932 -0.3965  0.0231 -0.2687
18149W        W34996  14.186   6.953   1.033  0.1355 -0.1651 -0.0140
18150W        W34997   5.537  18.603   3.174 -0.0680  0.3654 -0.0811
18151W        W34998   3.522   1.919   4.408 -0.1333 -0.1543 -0.0411
18152W        W34999   1.825   1.810  14.770  0.0424  0.2021 -0.1419
18153W        W35000   8.354   5.843  12.319  0.5471  0.1217 -0.1589
18154W        W35001   9.248   2.859   9.970  0.1570 -0.2827 -0.1538
18155W        W35002  18.130   8.641  15.407  0.0570 -0.0382  0.1865
18156W        W35003  11.078   7.041   4.000 -0.2137  0.3237 -0.3464
18157W        W35004  10.031   1.891  14.346 -0.1389  0.0041  0.1621
18158W        W35005   4.426   7.349   3.691 -0.1066  0.3868 -0.0752
18159W        W35006   1.093  14.116   2.365  0.0651  0.0563  0.2576
18160W        W35007   4.314   7.756  13.983  0.0969 -0.2204 -0.1210
18161W        W35008   3.671  16.628  12.620  0.1561  0.0074 -0.2336
18162W        W35009  18.830  13.342   1.579  0.0155 -0.0022 -0.0146
18163W        W35010   8.634  16.066   3.683 -0.1713  0.0697  0.1167
18164W        W35011  12.454   9.859   4.139 -0.0919 -0.2452  0.0873
18165W        W35012   7.964  10.038   3.389 -0.2551  0.2177 -0.0924
18166W        W35013  16.936   8.919   2.834  0.2190 -0.2503  0.0920
18167W        W35014   0.850   7.522  13.337  0.3604  0.2888  0.0429
18168W        W35015  15.101   8.174  15.472 -0.1926 -0.1195  0.1267
18169W        W35016   6.186   4.006  12.924  0.0799 -0.0246  0.0622
18170W        W35017   2.545  10.638   4.385 -0.0665  0.3834 -0.1569
18171W        W35018   3.637   8.302  12.290  0.1566  0.0925  0.1696
18172W        W35019  17.398  17.725  12.140  0.0759  0.1767  0.1044
18173W        W35020  16.621   9.944   0.068  0.0293  0.0858 -0.1813
18174W        W35021   7.946   9.792   0.964 -0.2460  0.0677  0.0437
18175W        W35022   4.767   6.361   2.203  0.3906  0.2346 -0.2102
18176W        W35023  18.590  18.373   4.882 -0.4236 -0.1297 -0.2251
18177W        W35024  10.283  12.388  12.770 -0.0718  0.0196  0.0168
18178W        W35025  11.283  11.821  14.147  0.1348  0.2754  0.3441
18179W        W35026   8.159   1.139  12.817 -0.0288  0.0174  0.4302
18180W        W35027  10.624   5.485  12.520  0.1943 -0.0617  0.0666
18181W        W35028   7.624   8.045  14.730 -0.0037 -0.1315 -0.0902
18182W        W35029  18.633   4.695   1.898 -0.2040  0.0482 -0.0408
18183W        W35030  15.655   6.937   1.211  0.0215  0.1649  0.1320
18184W        W35031   0.533   6.149   2.505 -0.1505  0.1850  0.3606
18185W        W35032  12.990  17.798   1.685  0.1816  0.3008 -0.0457
18186W        W35033  16.090  14.279   1.682  0.0554  0.0656  0.2987
18187W        W35034   5.967   7.503   4.438  0.0460  0.0442  0.0366
18188W        W35035   8.691   3.165   2.275 -0.1962 -0.2726  0.1471
18189W        W35036   4.873  11.230   2.984 -0.1362  0.1387 -0.0220
18190W        W35037   5.580   2.923  11.735 -0.1199 -0.0231 -0.3758
18191W        W35038  11.618   7.619  12.919  0.0529 -0.1929  0.3094
18192W        W35039   9.417  17.887   4.651 -0.2165 -0.0407 -0.0440
18193W        W35040  18.009   8.020  13.712  0.0963  0.3268 -0.0607
18194W        W35041  15.148  10.655   3.236 -0.1267 -0.0789 -0.0948
18195W        W35042  12.966   8.956   5.153  0.2273 -0.0791 -0.0735
18196W        W35043  11.923   2.044  12.743  0.4593 -0.2212 -0.0630
18197W        W35044  11.614   2.232   2.394  0.0770  0.0927  0.2340
18198W        W35045  18.461   0.196   4.072 -0.1171  0.1402 -0.2935
18199W        W35046   7.313   2.833   1.316 -0.0152 -0.1106 -0.1926
18200W        W35047  16.304   3.377   2.342  0.0738  0.1321 -0.0537
18201W        W35048  16.768   4.236  15.622  0.2589  0.0580  0.2388
18202W        W35049   1.737   9.322   2.045  0.1470 -0.1112  0.1989
18203W        W35050   8.645  11.008  11.228 -0.3305 -0.0593  0.0863
18204W        W35051   3.947   9.720  10.624 -0.0547 -0.2802  0.9071
18205W        W35052  17.771   0.065   2.903 -0.0613  0.0166 -0.2142
18206W        W35053   2.593   6.223  15.314 -0.2609  0.0700 -0.0438
18207W        W35054   2.237  16.483   1.513 -0.1683 -0.1430  0.1879
18208W        W35055  17.349  12.846   5.337 -0.2062  0.2197 -0.1047
18209W        W35056   5.921   7.040  10.939 -0.0615  0.1589  0.1334
18210W        W35057  16.860   8.183   0.962 -0.2002  0.1645 -0.0246
18211W        W35058   6.309  15.988   0.900  0.1153  0.0536  0.4409
18212W        W35059  18.686   3.592  14.560 -0.3510 -0.1293 -0.1560
18213W        W35060   5.215   0.757   1.890  0.0746 -0.0048  0.0037
18214W        W35061  15.259   4.927  12.213 -0.1387  0.1692  0.0056
18215W        W35062  12.191  11.123   5.413  0.0328 -0.0823 -0.0406
18216W        W35063  13.519  11.786   5.731  0.4173  0.0628 -0.0065
18217W        W35064  11.155   9.819  13.228 -0.3889 -0.1870  0.2783
18218W        W35065  13.484   2.100  11.028  0.0324  0.2614 -0.2485
18219W        W35066   6.003   7.797   1.321 -0.3593  0.2434 -0.2668
18220W        W35067   1.091   0.253  13.668  0.0617 -0.0880 -0.0934
18221W        W35068   2.872   9.831  15.308 -0.1786  0.3502 -0.2167
18222W        W35069   8.223   3.601  12.247 -0.0174 -0.0313  0.2643
18223W        W35070   7.277   6.152   0.927 -0.0400  0.1410 -0.2638
18224W        W35071  11.848   7.719   4.170 -0.0009 -0.2351  0.0703
18225W        W35072  13.348   0.247   0.315 -0.1346 -0.0234 -0.2943
18226W        W35073   9.256   5.799   2.096 -0.3404  0.3689  0.0467
18227W        W35074   5.743   0.104   0.912 -0.0547 -0.1807  0.0383
18228W        W35075  13.523  14.560   3.986 -0.1321 -0.2544 -0.0593
18229W        W35076  14.038  11.331  11.431  0.1891  0.1490  0.3361
18230W        W35077   0.902  17.640   4.151 -0.0857 -0.1601  0.0358
18231W        W35078   1.148  16.883   4.338  0.2807  0.0353  0.2741
18232W        W35079  11.949  17.454   3.190  0.0781 -0.1001 -0.2696
18233W        W35080  17.853   4.109  11.517  0.1334 -0.0823  0.2451
18234W        W35081   6.561  15.505  14.132 -0.0385  0.0286 -0.1139
18235W        W35082   5.545  15.780  11.697 -0.2389  0.3460  0.1460
18236W        W35083   7.791   7.683   1.040  0.3557 -0.4139  0.0667
18237W        W35084  17.871   2.874   2.401  0.1982  0.0885 -0.2954
18238W        W35085  14.299  15.354  11.846  0.1250 -0.2876  0.1806
18239W        W35086   4.566   8.465   5.831  0.1295  0.1375  0.2352
18240W        W35087   6.346  15.240  15.048 -0.0105  0.0851  0.3728
18241W        W35088   2.645  15.021  15.226 -0.0886  0.1964  0.2905
18242W        W35089  15.182  16.865  14.307  0.1366 -0.1979 -0.1720
18243W        W35090  11.198   9.352  12.264 -0.0302  0.1823  0.1154
18244W        W35091  12.622   4.676   2.183 -0.3097  0.1503 -0.1875
18245W        W35092   8.428  16.183   4.152  0.1469  0.0031 -0.0127
18246W        W35093   7.695   6.478  13.597 -0.2196  0.0199  0.5141
18247W        W35094   3.294  18.610  14.428 -0.0909  0.2391  0.0183
18248W        W35095   6.051  14.937  12.105  0.0804 -0.1640 -0.3902
18249W        W35096   7.155  14.091  15.433 -0.2775  0.2157  0.2121
18250W        W35097   2.817  18.838  14.220 -0.1092  0.0953 -0.0186
18251W        W35098   6.354   7.426   1.237  0.1157  0.0509  0.1929
18252W        W35099  15.412  12.917   0.922 -0.1538 -0.1588 -0.0882
18253W        W35100  13.421  10.410   1.602 -0.0875  0.1294 -0.0355
18254W        W35101  16.072  12.200   4.415 -0.0239 -0.0294 -0.0346
18255W        W35102   8.775   1.600   2.545  0.1248 -0.1960  0.3648
18256W        W35103  14.412   4.813  12.824 -0.2011 -0.4427 -0.0456
18257W        W35104  18.236  12.547  11.238 -0.1782 -0.0543 -0.1320
18258W        W35105  16.904  12.984  12.981 -0.1792  0.0471  0.1096
18259W        W35106   2.754   7.209  12.276 -0.0829 -0.0379 -0.2389
18260W        W35107  16.647  15.714  10.309 -0.1658  0.0799 -0.1753
18261W        W35108   9.160  18.808   5.337 -0.0868 -0.2463 -0.1667
18262W        W35109   5.031   3.589   1.918  0.0056 -0.2962  0.0710
18263W        W35110   5.261   3.611  13.896 -0.1952 -0.0101 -0.0021
18264W        W35111  16.963  14.671  14.019  0.1292  0.2124  0.2898
18265W        W35112   5.720  18.096   2.148  0.1442 -0.2227  0.0901
18266W        W35113  16.721   1.196   1.736 -0.0986  0.1719  0.3140
18267W        W35114  18.002  16.379  13.177 -0.0420  0.3537  0.0808
18268W        W35115   9.652  13.950   3.969 -0.1108 -0.3935  0.2641
18269W        W35116  13.977  16.570   2.259 -0.1101 -0.2498  0.0955
18270W        W35117  13.056   1.995  11.333 -0.3733 -0.1829  0.2948
18271W        W35118  17.845   6.917  11.640 -0.0033 -0.0769  0.3100
18272W        W35119  17.581  14.818   0.006 -0.4008 -0.0869  0.0157
18273W        W35120   3.239   0.967   4.916 -0.1377  0.3027  0.0894
18274W        W35121   5.012   0.241  13.344  0.1292  0.0599 -0.0352
18275W        W35122  11.311   6.310   0.493  0.0268 -0.1806  0.0216
18276W        W35123  13.526  13.086  12.904  0.0701 -0.1077 -0.1243
18277W        W35124   2.018   0.253  12.407  0.0694  0.2482 -0.0249
18278W        W35125   6.255  18.289  10.367 -0.0868  0.2426  0.1400
18279W        W35126  11.090  14.383  15.016  0.3639  0.1121 -0.0665
18280W        W35127  13.266   1.351   0.033 -0.0591 -0.2919  0.1908
18281W        W35128  14.907   2.192  11.483  0.0685 -0.1201 -0.2634
18282W        W35129  15.142  15.872  12.845 -0.1426  0.1250 -0.0250
18283W        W35130   3.300   8.690  11.048  0.1168  0.1017  0.1515
18284W        W35131   1.400   4.708   5.095  0.0569  0.1066  0.1506
18285W        W35132  13.890   3.398  14.206  0.0039  0.1588 -0.0219
18286W        W35133  16.331  13.745  15.005 -0.0355 -0.2594  0.2881
18287W        W35134   7.931   7.913   1.442 -0.0342 -0.3023 -0.1482
18288W        W35135  17.287   6.558  12.787 -0.0155  0.0448 -0.0103
18289W        W35136   9.793  18.757   3.522 -0.0167 -0.1250  0.2433
18290W        W35137   6.062   5.514   1.545 -0.1353  0.1445 -0.2866
18291W        W35138   9.234   4.778  13.779 -0.0185 -0.1902 -0.0047
18292W        W35139  11.013  11.436  12.043  0.2090  0.1108 -0.4539
18293W        W35140   4.875   6.961   0.564  0.1889 -0.2936 -0.2982
18294W        W35141   8.480  15.870  12.682 -0.1521  0.0923  0.2516
18295W        W35142   3.243   9.681  13.744 -0.0074 -0.1607 -0.2375
18296W        W35143   6.314  14.063  11.011 -0.0079  0.2085  0.0267
18297W        W35144  16.610  18.402   2.476  0.2936 -0.0178  0.0228
18298W        W35145  11.851   9.419   4.290 -0.0770  0.2911  0.0145
18299W        W35146   8.089  13.462   1.479 -0.1425 -0.1338 -0.3192
18300W        W35147  13.042  10.337  15.477 -0.0036 -0.2081  0.2220
18301W        W35148  12.145  14.940  13.504  0.0576 -0.0242  0.0469
18302W        W35149  16.930  11.305  13.280  0.1418  0.0981  0.1075
18303W        W35150  16.240   7.770  12.918  0.0868  0.0531 -0.3776
18304W        W35151   5.363   4.020   3.517  0.0989 -0.0742  0.1000
18305W        W35152   5.809  11.589  14.587 -0.1905  0.0164  0.1642
18306W        W35153   6.124  11.009  12.086 -0.0849  0.1035  0.0362
18307W        W35154   1.052   3.690  11.430 -0.1969 -0.0862 -0.1143
18308W        W35155  16.520   9.175   1.298  0.2503  0.2467  0.1462
18309W        W35156  17.782  10.857  15.317 -0.0203  0.0823 -0.2678
18310W        W35157  13.680   0.832  14.588 -0.1093  0.0336 -0.4041
18311W        W35158  13.578   5.415  14.011 -0.0466 -0.0460  0.1180
18312W        W35159  18.390   7.287   4.682 -0.1061 -0.0028  0.1944
18313W        W35160   1.950  13.805  11.112  0.2517  0.2937  0.1514
18314W        W35161   6.612   6.914   2.311 -0.1577 -0.2825 -0.1091
18315W        W35162  15.250  10.093   3.540  0.0649  0.3416 -0.0001
18316W        W35163  11.012  11.401  15.012  0.2140  0.0628 -0.1243
18317W        W35164   5.159   3.058   5.341  0.2536 -0.1964  0.2484
18318W        W35165   8.529   8.831   2.113  0.0657 -0.0609  0.0744
18319W        W35166  14.643   1.386   0.502  0.0855 -0.1926  0.3112
18320W        W35167   2.501   7.188   3.067 -0.2261  0.0647 -0.0951
18321W        W35168  10.006   3.657  13.748  0.0438 -0.1397  0.0376
18322W        W35169  11.086  11.833   0.112 -0.3135  0.0264 -0.1355
18323W        W35170  12.464   3.213  11.727  0.2441  0.2782  0.0176
18324W        W35171   7.168  13.023   2.695 -0.0053 -0.2867 -0.2157
18325W        W35172   3.031  12.838   3.590  0.1167 -0.0683  0.1798
18326W        W35173  14.677   0.733   1.748 -0.0108  0.1547 -0.2489
18327W        W35174  12.927   8.296  15.276 -0.0125  0.1372 -0.1849
18328W        W35175   7.562  13.319   4.306  0.1487  0.0840 -0.1036
18329W        W35176  10.486   6.999   5.744  0.0063 -0.4627  0.1315
18330W        W35177   6.368   3.051  13.251  0.0119 -0.4516 -0.0095
18331W        W35178   4.060  13.414   2.383  0.1177 -0.2483 -0.0644
18332W        W35179   8.210   2.880   0.343 -0.1520  0.2992 -0.1049
18333W        W35180  17.459  13.439   4.476  0.0140  0.1656 -0.4241
18334W        W35181  18.278   1.584  13.871  0.1893 -0.2855 -0.3965
18335W        W35182  12.351  14.863  14.334 -0.1570  0.2989  0.1167
18336W        W35183  14.458   0.717  12.918  0.2111  0.2772 -0.2671
18337W        W35184  18.179   2.915   1.644  0.4056 -0.1826 -0.2212
18338W        W35185   9.715  13.101   3.367  0.1566 -0.0796  0.2620
18339W        W35186   5.032   8.850   3.891 -0.2421  0.2331  0.2021
18340W        W35187  14.168   8.216   1.655  0.0604 -0.0085 -0.3289
18341W        W35188   5.360  11.139   2.777  0.0038  0.1419  0.1053
18342W        W35189   3.624  15.682   0.306 -0.2471  0.1638  0.1892
18343W        W35190   8.519  17.748  11.735  0.1650  0.4900 -0.0958
18344W        W35191  10.241  15.343   2.052  0.1232 -0.0683 -0.3056
18345W        W35192  12.845   1.796  12.207  0.1884 -0.1642  0.0866
18346W        W35193  14.543  17.668   2.998 -0.0558 -0.0653  0.3084
18347W        W35194  17.347  13.194   4.941 -0.1786 -0.2105 -0.0370
18348W        W35195   7.307  15.874  14.719  0.1623 -0.1776 -0.0079
18349W        W35196  16.212  12.316  14.563 -0.2779 -0.0345  0.4934
18350W        W35197   8.972  13.370   1.368  0.2304 -0.1011  0.3063
18351W        W35198   7.046   2.553  15.531 -0.0411  0.1531 -0.0311
18352W        W35199  14.256  11.643   3.180  0.0290  0.0950  0.1243
18353W        W35200   7.142   2.172   2.541 -0.3203 -0.2112  0.1853
18354W        W35201   6.852   1.718  14.886 -0.0375 -0.1348 -0.1028
18355W        W35202   4.790   0.969  14.301  0.1093 -0.2093 -0.1986
18356W        W35203   7.253  10.216  15.511 -0.0348  0.0309  0.0155
18357W        W35204  14.177   0.195  14.717 -0.1726 -0.1249  0.0319
18358W        W35205  15.247  12.145   2.927  0.0417  0.3283  0.2232
18359W        W35206  14.616   8.777   2.356  0.0096 -0.0564  0.0882
18360W        W35207   4.829   9.774   4.122 -0.0213 -0.0870 -0.1711
18361W        W35208  13.246   6.646   3.475  0.1676  0.0997 -0.1917
18362W        W35209   0.263  11.005   1.684 -0.0020  0.2812  0.2504
18363W        W35210  12.012   1.004   0.609 -0.2962  0.2362 -0.2394
18364W        W35211  18.554  15.296  14.564 -0.0226 -0.1472  0.0529
18365W        W35212  14.033  11.427  12.067 -0.2096  0.2629  0.4465
18366W        W35213  12.254  12.790  15.280  0.1166 -0.1793 -0.0883
18367W        W35214   9.064   5.816   3.270  0.3300  0.1117 -0.2636
18368W        W35215   2.043  10.056  12.817  0.1040 -0.1720 -0.1165
18369W        W35216   8.930  15.301  15.777  0.3314 -0.0502  0.0582
18370W        W35217  15.969  12.309  15.598  0.2016 -0.1176 -0.0598
18371W        W35218   3.089  16.402  11.595  0.2341 -0.0571 -0.0347
18372W        W35219   1.761   4.015  12.946 -0.0508 -0.0094 -0.0749
18373W        W35220   4.915   6.111   1.662 -0.1065  0.4287 -0.1239
18374W        W35221  14.910  12.743   5.924 -0.1251  0.1446  0.1922
18375W        W35222   8.906  16.338  13.949  0.0894  0.2481  0.0407
18376W        W35223   3.277  13.723   2.464  0.1581 -0.4184  0.1122
18377W        W35224   9.589   5.212  13.602 -0.2306 -0.2878 -0.1461
18378W        W35225  14.163   0.152  11.522  0.0695  0.3164  0.0742
18379W        W35226  15.518  15.327   0.500  0.0151  0.1285 -0.1770
18380W        W35227  11.322  13.040   4.228 -0.1582 -0.1525 -0.1768
18381W        W35228  18.588  15.860   5.629  0.1385  0.0584  0.0159
18382W        W35229   3.481   4.177   0.925  0.2078 -0.0150  0.1297
18383W        W35230   6.952  18.277   3.489  0.0397  0.3098 -0.2555
18384W        W35231  13.845   4.158  14.377  0.3442 -0.0817 -0.2934
18385W        W35232  17.019   0.704   5.019 -0.2109  0.1771 -0.1478
18386W        W35233   2.922  14.771  13.938  0.0019  0.0476 -0.0051
18387W        W35234  18.655  13.486   2.940  0.2396  0.1858 -0.3248
18388W        W35235   7.696  13.355   1.778 -0.1720 -0.1189  0.0234
18389W        W35236  11.160  18.096   2.665 -0.0074 -0.0604 -0.1179
18390W        W35237  17.973   8.111  15.419 -0.0556  0.1805 -0.2647
18391W        W35238  17.960   8.043  12.341  0.0855 -0.2316  0.0553
18392W        W35239  18.387   8.418   1.319 -0.4021 -0.1897 -0.1686
18393W        W35240   7.056   9.332  10.899 -0.0196  0.0426 -0.0018
18394W        W35241  16.697  10.132   4.505 -0.0887 -0.1151 -0.1441
18395W        W35242  17.760   0.560  11.404 -0.1222  0.0697 -0.2274
18396W        W35243   1.994   9.123   4.405 -0.1775 -0.2557 -0.0391
18397W        W35244   9.485   4.683   4.856 -0.0913 -0.4487 -0.1870
18398W        W35245   3.952  16.578  14.841  0.3453  0.2456 -0.0028
18399W        W35246   2.059   4.016  14.390 -0.1163 -0.0669 -0.0226
18400W        W35247  18.203   0.907   2.651 -0.2113  0.0034 -0.0928
18401W        W35248   3.700   9.320   4.421 -0.0583  0.2712  0.1991
18402W        W35249   7.672   4.905  12.167  0.0731  0.1089 -0.0517
18403W        W35250  11.822  15.978   0.452 -0.0217  0.3720 -0.0275
18404W        W35251   4.332   5.082  11.259 -0.3735  0.0848 -0.0842
18405W        W35252  13.825  18.334   4.297  0.0690 -0.0889 -0.0831
18406W        W35253   2.133  12.473   2.454  0.1551 -0.3729 -0.4234
18407W        W35254   7.258   7.397   1.689  0.3793 -0.1802 -0.1679
18408W        W35255   7.365   0.490   3.442  0.0947  0.0025 -0.0603
18409W        W35256  12.919  15.158  12.100  0.1402  0.2737  0.0102
18410W        W35257   2.473  16.532   2.018 -0.1015 -0.1811  0.1791
18411W        W35258  15.395  12.336   2.503  0.0031 -0.1039  0.1015
18412W        W35259  14.643   3.794  13.710  0.4558 -0.0214  0.0545
18413W        W35260   5.599   3.806   2.756  0.0669  0.1034  0.1125
18414W        W35261   7.212  13.547   5.233 -0.0620  0.2200  0.2565
18415W        W35262   0.131   9.368  11.060  0.0247  0.2059 -0.1228
18416W        W35263  10.304  18.145   4.610  0.1048 -0.0718 -0.1144
18417W        W35264   7.685   2.978   0.752  0.0317  0.0093  0.2693
18418W        W35265  15.528   7.539  15.493  0.1729 -0.5631 -0.0575
18419W        W35266   0.642  14.306   3.588  0.1622 -0.1558  0.2984
18420W        W35267   6.918  15.098  12.445 -0.0131 -0.0708  0.3416
18421W        W35268  14.264   4.951  15.476  0.0963 -0.1444 -0.0553
18422W        W35269   0.524  14.953  12.316  0.1530 -0.2034  0.3383
18423W        W35270  16.418   5.588  13.074 -0.1527 -0.2842 -0.5464
18424W        W35271  16.433  18.271  13.465 -0.0041 -0.2238 -0.2094
18425W        W35272   3.448  13.283  12.430 -0.0063 -0.1583 -0.2749
18426W        W35273  15.099  14.977   2.675  0.0678  0.0320 -0.2097
18427W        W35274  15.315   6.929   3.936 -0.1726 -0.0223 -0.0744
18428W        W35275   7.839  15.443  15.237  0.1836 -0.0545 -0.0831
18429W        W35276   8.811   6.456  13.363  0.1741 -0.0038 -0.1364
18430W        W35277   4.061   3.046   4.391 -0.0377  0.0927 -0.3138
18431W        W35278  12.457  11.607  15.319  0.2696  0.0966 -0.2303
18432W        W35279  13.487   4.580   3.000 -0.4889 -0.0139  0.3409
18433W        W35280  11.336  14.097  15.391 -0.0197  0.1797 -0.1703
18434W        W35281   8.152   1.917  11.138  0.1872  0.1710 -0.2851
18435W        W35282   1.955   9.950   3.992 -0.0264  0.0611  0.0780
18436W        W35283  15.308  12.431   5.779 -0.1030  0.0861  0.1690
18437W        W35284  11.378  11.301  15.575  0.0783 -0.1268 -0.0041
18438W        W35285  14.582  18.238   4.751 -0.0608 -0.0841  0.0471
18439W        W35286  10.599   8.631  14.177  0.1358  0.0431 -0.1130
18440W        W35287  16.243  15.491  15.206  0.0611  0.1628  0.1742
18441W        W35288  17.326  18.345  12.961  0.0121  0.2682 -0.1315
18442W        W35289   2.920  18.701  11.242  0.1715  0.6006 -0.0325
18443W        W35290  17.654  10.670   2.813  0.0626 -0.0019 -0.0647
18444W        W35291  16.086   4.775   0.579 -0.0334  0.0402 -0.2327
18445W        W35292   4.840   4.813  12.187 -0.0208  0.1872 -0.2714
18446W        W35293  18.594  11.446  10.757 -0.3123 -0.0012 -0.0499
18447W        W35294  13.780   6.479   3.718  0.0137  0.0712  0.1540
18448W        W35295  12.489   8.020   1.196  0.0804 -0.1976 -0.0224
18449W        W35296  10.638   4.849  13.564 -0.0202  0.2722 -0.1357
18450W        W35297   0.344   7.026   4.789 -0.0050  0.0006 -0.1598
18451W        W35298   3.411   5.765  12.069  0.0983 -0.0605 -0.2990
18452W        W35299  11.546   3.780  10.858  0.0113 -0.0608  0.0637
18453W        W35300  14.581   0.840   2.642  0.3779  0.3465  0.2102
18454W        W35301   2.044  14.313  12.133 -0.3395  0.1183  0.1596
18455W        W35302   7.127   0.959   3.618 -0.2907 -0.0437  0.2079
18456W        W35303  18.549  12.550   4.663 -0.3452  0.2425 -0.1681
18457W        W35304   2.550  11.997   4.374 -0.2058  0.1081  0.0220
18458W        W35305   4.751  17.255   2.963  0.2377  0.0673  0.0689
18459W        W35306   5.438   8.159   0.767  0.1136  0.0480  0.4314
18460W        W35307  16.533   6.706   1.015 -0.2024 -0.1378 -0.1980
18461W        W35308   5.487  17.207  13.829 -0.0111 -0.1092  0.0014
18462W        W35309  12.956   4.567  15.650 -0.2613 -0.1819 -0.3291
18463W        W35310   0.990   7.322  12.899  0.3546  0.3308  0.1054
18464W        W35311   6.412   1.877   0.801 -0.0772 -0.1020 -0.1863
18465W        W35312  13.517  11.390  13.339  0.2952  0.1651 -0.0846
18466W        W35313   5.280  11.879  13.293  0.0579  0.3845 -0.2711
18467W        W35314  12.814   9.669   3.767 -0.0110 -0.1527  0.0590
18468W        W35315   3.944  12.965   3.254  0.4729 -0.0870 -0.0597
18469W        W35316   1.022   0.497  15.509  0.0037  0.0631 -0.0812
18470W        W35317   7.045  16.869  13.249  0.2621  0.5928  0.0592
18471W        W35318   5.919   8.596  15.672 -0.4397  0.3479 -0.0020
18472W        W35319   0.094  18.583  14.571 -0.0110  0.1171  0.0232
18473W        W35320   3.908   6.910  15.579 -0.2094 -0.1135 -0.1625
18474W        W35321  16.216   5.267   4.119  0.0915  0.0720  0.0226
18475W        W35322   9.059  10.484  11.780 -0.1010 -0.0652  0.3823
18476W        W35323   5.277   2.935   2.491 -0.1127  0.0199  0.2082
18477W        W35324  18.448  13.501   4.372  0.0736 -0.0382  0.2195
18478W        W35325   2.227  16.455   3.337 -0.1837 -0.2058 -0.3204
18479W        W35326   4.947  13.014  14.486 -0.0373  0.1783 -0.1683
18480W        W35327  14.431   9.154  11.769  0.4890  0.3925 -0.1749
18481W        W35328  16.604   2.599   1.519 -0.0613  0.1183 -0.1825
18482W        W35329  13.754   6.216  13.225  0.0799 -0.0060  0.0176
18483W        W35330   3.234   9.899  13.245  0.4682 -0.2063 -0.1424
18484W        W35331   4.327   5.910   2.120  0.0042 -0.2295 -0.0624
18485W        W35332   5.749  11.032   1.491 -0.0068 -0.2334  0.1032
18486W        W35333   4.196   6.717  12.457 -0.2382  0.1170 -0.1535
18487W        W35334   4.948   8.887   4.821  0.3171  0.2628 -0.1132
18488W        W35335  15.972   3.505  11.859  0.0161  0.4505 -0.0811
18489W        W35336  12.202   6.146   1.841  0.1892 -0.1172 -0.1927
18490W        W35337  11.151   9.951   0.197 -0.3174 -0.2410  0.2356
18491W        W35338   5.464  18.729   0.065 -0.2726 -0.4292 -0.2561
18492W        W35339  14.723  15.053  14.587  0.1456  0.0233  0.3116
18493W        W35340  10.149   1.112   2.503 -0.2154 -0.1610 -0.5746
18494W        W35341  18.085   4.762  15.028  0.0493  0.1824 -0.1829
18495W        W35342   9.095  12.399  14.924  0.0060  0.0618 -0.3593
18496W        W35343   6.963  16.134   2.144 -0.1466 -0.0815  0.2548
18497W        W35344  10.765  18.824  12.699  0.2089  0.2240  0.2922
18498W        W35345  12.450  18.066   4.781  0.2221 -0.0376 -0.1316
18499W        W35346   3.745  14.650  11.636  0.0473 -0.0089 -0.0746
18500W        W35347  17.646   6.960   3.701  0.2402  0.1424  0.1893
18501W        W35348   9.043  15.499  13.673  0.1265  0.1465 -0.0967
18502W        W35349   6.075   0.517   1.983  0.0306  0.2709  0.0084
18503W        W35350  15.766  15.381  14.946 -0.0482 -0.3141  0.1270
18504W        W35351   4.139   0.130   1.590  0.6026  0.2717 -0.3338
18505W        W35352   4.898  10.360  12.232 -0.3216 -0.2571  0.2025
18506W        W35353   2.136   0.769   3.105  0.0048  0.1369  0.1329
18507W        W35354  15.561  11.282   1.170 -0.0180  0.2767 -0.1372
18508W        W35355  15.787   6.086  13.392  0.1436  0.1327  0.2538
18509W        W35356   9.819  13.261   4.062  0.1144 -0.1043  0.0891
18510W        W35357   8.217  17.076   5.021 -0.0005  0.1621  0.1971
18511W        W35358   8.959   9.795   1.116  0.2036  0.0282  0.0071
18512W        W35359  18.593  11.682   3.306  0.4373  0.3184 -0.1139
18513W        W35360  11.104  15.635   4.665 -0.0989 -0.1545 -0.0648
18514W        W35361  13.964  11.907  14.875  0.4966  0.0961 -0.1335
18515W        W35362   7.498  12.111  10.931  0.2616 -0.0827 -0.0969
18516W        W35363   6.723  14.368  11.912  0.0618 -0.2430 -0.1733
18517W        W35364   9.039   3.755   5.141  0.0927 -0.1724  0.1577
18518W        W35365   0.323  15.230   1.604 -0.1580 -0.1810 -0.1232
18519W        W35366  15.394   9.128  13.091  0.2733 -0.5952 -0.1481
18520W        W35367  13.684   0.611   0.350 -0.0560 -0.2478  0.0646
18521W        W35368   8.631  14.174   1.499 -0.1105 -0.2539 -0.1790
18522W        W35369   4.672  11.792  15.374 -0.0333  0.0621  0.0840
18523W        W35370  12.764   8.729  12.537 -0.1949  0.0927  0.1381
18524W        W35371   3.513   1.951  11.052  0.0695  0.0941  0.3032
18525W        W35372   7.274   6.478  12.836 -0.2101  0.2621 -0.0484
18526W        W35373   1.850   0.285  14.037 -0.0620  0.0012 -0.1232
18527W        W35374   0.552   9.104  14.201 -0.2473  0.1180 -0.0722
18528W        W35375   6.740   8.140   3.028  0.1873 -0.0191  0.1890
18529W        W35376   1.530   8.102  12.645  0.1947 -0.0961 -0.3436
18530W        W35377  17.891  10.052  13.406  0.1117 -0.0605 -0.0645
18531W        W35378  13.356  12.773   2.906  0.4976 -0.0749 -0.0587
18532W        W35379  13.088   6.465  14.318  0.0850 -0.0530  0.2743
18533W        W35380   1.885   9.619  15.476 -0.0635  0.0008 -0.0141
18534W        W35381  18.299   6.877  11.860 -0.2255  0.0330 -0.1932
18535W        W35382   8.833   0.748  13.819  0.3094  0.0406 -0.3467
18536W        W35383   8.435   8.076  14.822  0.3047  0.0454  0.2296
18537W        W35384   7.086  17.502   4.617  0.2413 -0.1514 -0.0314
18538W        W35385  15.714   4.123  14.619 -0.1479  0.1197 -0.0707
18539W        W35386  16.207  13.108  13.127  0.1604  0.0758 -0.0541
18540W        W35387  13.071   0.355   3.954  0.0019 -0.0530 -0.0944
18541W        W35388   0.759   5.243   4.247  0.2114  0.0922  0.1792
18542W        W35389   1.757   5.693  15.590  0.0979 -0.4137  0.0509
18543W        W35390  10.295  12.721   2.785  0.0056  0.0742  0.2599
18544W        W35391   9.929  14.218   2.032 -0.0044  0.0855  0.0076
18545W        W35392  18.799   2.939   4.991  0.2756  0.0673  0.2999
18546W        W35393   8.776  16.377   2.542  0.1080 -0.1611 -0.0196
18547W        W35394   2.308   5.090   0.159 -0.1378 -0.1788  0.2137
18548W        W35395  11.305   5.248   0.449 -0.1735  0.2165  0.4127
18549W        W35396   9.702  16.857  12.683  0.1036  0.0429  0.1357
18550W        W35397   6.990   9.120  13.210 -0.0485 -0.1802 -0.0892
18551W        W35398  10.814   8.368  13.507 -0.1523  0.0921 -0.0118
18552W        W35399   4.913   5.227   2.314  0.1515  0.3763 -0.1289
18553W        W35400   3.912   0.553   0.269 -0.3597 -0.1020 -0.3763
18554W        W35401   0.671  14.232  15.200 -0.1611 -0.0864  0.0019
18555W        W35402  15.433   9.457   2.351  0.2038  0.0645 -0.0715
18556W        W35403  13.031   9.256   0.105 -0.0999  0.3616 -0.0587
18557W        W35404  18.852  15.425  15.658  0.0306  0.1711 -0.0941
18558W        W35405   6.620  15.135   4.068 -0.1333  0.3727 -0.1828
18559W        W35406  15.923  18.502   3.930  0.0160  0.0441 -0.0643
18560W        W35407   6.329  10.115  12.763  0.0920  0.0147  0.0871
18561W        W35408   6.311  13.433   1.523 -0.1054 -0.3090  0.1668
18562W        W35409   7.565  14.086   2.924  0.0670 -0.1770  0.0587
18563W        W35410  17.558  11.153  12.619 -0.5202  0.1041  0.2590
18564W        W35411   6.407  12.865   2.121 -0.2532  0.2618 -0.0315
18565W        W35412   3.049  18.711   5.056  0.0075 -0.1637 -0.0111
18566W        W35413   3.868  11.003  14.652 -0.2258 -0.0935  0.3441
18567W        W35414   3.680  10.799   4.045 -0.0116 -0.3493  0.0859
18568W        W35415   5.869   4.230  11.014  0.0527 -0.2107  0.0844
18569W        W35416   4.292   6.377   4.488 -0.0467  0.2402  0.2684
18570W        W35417  10.789   0.556  14.741  0.2002 -0.2412 -0.2672
18571W        W35418   7.691  18.505   0.970  0.1026 -0.1966  0.2649
18572W        W35419   4.598   7.934   2.032  0.2548 -0.1535  0.0285
18573W        W35420   6.583   0.060   4.808  0.2615  0.1516  0.1448
18574W        W35421   5.111  15.340  12.448 -0.1476 -0.1206  0.0184
18575W        W35422  11.648  12.633   0.305  0.4453  0.2713 -0.1042
18576W        W35423   8.083   7.666   2.281 -0.0736 -0.3445 -0.0410
18577W        W35424   9.763   0.766   5.579 -0.1756  0.0621 -0.1321
18578W        W35425   3.499  12.948  13.356 -0.3990 -0.0762 -0.2180
18579W        W35426   6.726  17.877  14.436 -0.1735 -0.5509  0.2327
18580W        W35427  12.324  12.827  14.801 -0.3208  0.0886  0.0034
18581W        W35428  17.284  14.759   5.054  0.0997  0.0262  0.2331
18582W        W35429   1.864  11.491   2.963 -0.0785  0.2855 -0.0613
18583W        W35430   7.139   3.484  15.412 -0.3688  0.0060 -0.0112
18584W        W35431   4.096   3.117   6.107  0.2486  0.5658 -0.2706
18585W        W35432  17.557  13.178  13.921 -0.0917 -0.0922  0.2988
18586W        W35433   4.711  10.669  12.612  0.3394  0.0994  0.0016
18587W        W35434  14.330   1.732   0.081 -0.2179 -0.0972 -0.2474
18588W        W35435  13.640  12.688   3.376 -0.1775  0.1522  0.1782
18589W        W35436  17.169   5.055  12.448  0.1795 -0.0408  0.3734
18590W        W35437  17.226   4.218  12.401  0.4227  0.1417 -0.0800
18591W        W35438  15.593   8.504   4.480  0.2415 -0.1178  0.2535
18592W        W35439   5.639  16.760   1.896  0.0703  0.2589  0.0154
18593W        W35440   7.746   5.637  11.157  0.2405  0.3728  0.1316
18594W        W35441  16.716   4.698  11.924  0.0442  0.1463  0.2680
18595W        W35442  10.125  13.366   3.617  0.3429 -0.1701 -0.0699
18596W        W35443   1.191   7.862   6.149 -0.0687 -0.1118 -0.0033
18597W        W35444   7.084  15.614  12.408 -0.2970  0.1861 -0.2995
18598W        W35445  11.626  14.338   5.040  0.1662  0.0121  0.2169
18599W        W35446   9.495   2.412   3.906  0.1788 -0.0841 -0.0553
18600W        W35447  18.650   8.352  15.453 -0.1924  0.4810  0.0007
18601W        W35448  14.486   3.499   0.423 -0.3941 -0.2661  0.1180
18602W        W35449  18.626   9.468   0.889 -0.2998 -0.1255  0.1439
18603W        W35450   3.576  16.035   4.511 -0.4392 -0.3583  0.0321
18604W        W35451  10.253   6.301   0.929 -0.2393 -0.2979 -0.3548
18605W        W35452   4.425   9.412  14.388  0.1996  0.0375 -0.1159
18606W        W35453   0.643   8.679  12.808 -0.0710 -0.0573  0.0437
18607W        W35454  18.807  16.514  12.598 -0.2349 -0.0384 -0.1381
18608W        W35455  18.028  18.855   5.679 -0.0258 -0.0498  0.1916
18609W        W35456  15.978   4.269  12.569 -0.0158 -0.0182  0.1961
18610W        W35457   4.172  13.287   5.209  0.0125 -0.2888  0.3208
18611W        W35458   5.497  14.537   1.724 -0.2221 -0.1039  0.2300
18612W        W35459   8.998   2.966  13.752 -0.0801  0.1337 -0.1802
18613W        W35460  10.888  10.389  15.650 -0.0145  0.3141  0.2340
18614W        W35461   1.445   2.122  13.563  0.0726  0.0194  0.0423
18615W        W35462   1.275  12.973  12.696  0.0214  0.0056  0.0395
18616W        W35463  16.140  13.491  14.103  0.2346 -0.0740  0.1263
18617W        W35464  14.466   2.791   1.026  0.1156 -0.2452  0.0855
18618W        W35465   3.744  18.830   2.614 -0.3200  0.1649  0.0801
18619W        W35466  18.052   6.385   5.785 -0.0038  0.2943  0.0874
18620W        W35467   0.821  13.464   3.508  0.3472  0.0686  0.5181
18621W        W35468  11.799   6.335   2.987  0.1201  0.3258  0.2235
18622W        W35469  12.214   4.470   3.986 -0.1099  0.2281 -0.1916
18623W        W35470  10.587   3.809  13.577 -0.0021 -0.1817  0.0060
18624W        W35471   0.208   6.755   3.519  0.3854 -0.3027  0.0533
18625W        W35472  12.636   5.815   2.758  0.0261  0.2740 -0.2777
18626W        W35473  13.078  16.536  12.130  0.0200 -0.0523  0.0460
18627W        W35474   7.594  16.288  11.354 -0.0102  0.1035  0.0102
18628W        W35475   9.422  14.657   0.114 -0.1993 -0.1163 -0.0088
18629W        W35476   3.885  10.937   4.983  0.2840  0.2275  0.0537
18630W        W35477   9.887   8.797   4.406  0.3049  0.2378  0.0916
18631W        W35478   7.381   0.313  15.384 -0.0171  0.1093  0.0536
18632W        W35479  11.586  16.462   4.710 -0.0531 -0.2224  0.1713
18633W        W35480  13.286   8.150   3.542 -0.0575 -0.0295  0.2134
18634W        W35481  11.916   0.703  10.798 -0.1933 -0.1319  0.0469
18635W        W35482   4.079   4.860  14.634 -0.1392 -0.4323 -0.2295
18636W        W35483  11.630  18.222  13.882  0.0173 -0.0500 -0.0633
18637W        W35484   0.895   4.616   1.166 -0.0572  0.0771 -0.2786
18638W        W35485  13.381  15.267  12.695 -0.3415  0.0408  0.0067
18639W        W35486   3.705   3.984   2.682  0.0539 -0.0847  0.1527
18640W        W35487  15.704  17.516  14.554 -0.3702 -0.1321 -0.0582
18641W        W35488   1.097   2.925  13.390 -0.0320  0.0040 -0.0456
18642W        W35489  12.644   1.279  15.124 -0.1353 -0.1832  0.3028
18643W        W35490  18.092   7.366  12.620  0.3359  0.1382 -0.2423
18644W        W35491  10.427  12.643  11.781  0.1034  0.4511  0.0182
18645W        W35492   5.545   0.052  10.722 -0.1204  0.3227  0.2014
18646W        W35493   7.877   0.774  13.035  0.2187  0.1618 -0.1763
18647W        W35494  13.757   7.942   3.636  0.1954  0.0824  0.1327
18648W        W35495   7.871  10.172   1.240 -0.5830  0.1587  0.1969
18649W        W35496   1.220  18.396  12.538  0.0428 -0.1455 -0.1833
18650W        W35497   2.544  11.876   2.775  0.1254 -0.1957 -0.0491
18651W        W35498   5.052   7.481   2.706  0.0221 -0.0216 -0.4008
18652W        W35499   4.254   1.794  13.775 -0.0641  0.1498  0.1512
18653W        W35500  11.205  13.686   0.881  0.1539 -0.3545  0.1381
18654W        W35501   0.739  17.411   4.818  0.2428 -0.1611  0.2006
18655W        W35502  18.819  15.274   3.846  0.1183 -0.1485 -0.0320
18656W        W35503  15.599   6.496   4.798  0.1771 -0.3448  0.0936
18657W        W35504  13.381  11.579   4.224  0.2083  0.0789 -0.2703
18658W        W35505  16.058   5.067   2.697 -0.1896 -0.0774  0.2086
18659W        W35506  10.469   4.830  14.956 -0.1364  0.0683  0.1825
18660W        W35507   0.881  12.058   3.862 -0.3177 -0.4466 -0.1873
18661W        W35508   1.431  10.665  12.749 -0.0281  0.0826  0.2379
18662W        W35509   2.749   7.826   3.663  0.1083  0.1232 -0.0586
18663W        W35510   3.290   1.543  11.199  0.0210  0.1757  0.3642
18664W        W35511  10.873   9.989   5.160  0.1068 -0.1214 -0.2111
18665W        W35512   9.866  17.392  10.771 -0.0435 -0.2377 -0.2795
18666W        W35513  10.327   1.932   5.149 -0.0110  0.0646 -0.0747
18667W        W35514   9.096   6.891   1.611  0.1356 -0.0093 -0.1283
18668W        W35515   4.144  13.723  15.289 -0.0222 -0.2613  0.0455
18669W        W35516   0.150  18.788   4.100  0.2499  0.0598  0.0599
18670W        W35517   5.002   5.302   3.728  0.1116  0.0221  0.1137
18671W        W35518   2.364  14.185   1.233 -0.0040  0.0049  0.1575
18672W        W35519  12.580  11.740  13.319  0.3717  0.1018  0.1191
18673W        W35520  10.250   9.030   1.666  0.1417 -0.2751 -0.0390
18674W        W35521  12.487   3.095   2.679  0.2237  0.0063 -0.0123
18675W        W35522   4.537   0.504  12.021  0.1160  0.0370 -0.0516
18676W        W35523  12.476   2.581  14.839 -0.2453 -0.1372  0.3995
18677W        W35524  17.166   3.754   1.197 -0.1850 -0.0909 -0.1982
18678W        W35525  13.997   2.635  13.531 -0.2047  0.4182  0.0455
18679W        W35526   9.984   9.494   3.180  0.6056 -0.2538  0.1701
18680W        W35527  12.628   0.951   0.602  0.3803 -0.2949 -0.2102
18681W        W35528   8.329  15.353  13.988 -0.2361 -0.1609 -0.1284
18682W        W35529   4.904   4.641   2.037  0.1781  0.2253 -0.1193
18683W        W35530  14.759  10.318  14.408 -0.0685  0.2619 -0.0966
18684W        W35531   8.794  10.636  12.714 -0.2454 -0.0078  0.3550
18685W        W35532   3.449  15.515  14.892 -0.2329 -0.1175 -0.1022
18686W        W35533   8.478  17.814   3.241  0.1241  0.2982  0.0403
18687W        W35534   5.572  15.215  13.018 -0.1486 -0.0416  0.4250
18688W        W35535   7.651  11.150   2.852 -0.0778 -0.1213  0.1658
18689W        W35536   5.535   7.682   0.961 -0.1767 -0.2338 -0.1373
18690W        W35537  11.708   6.937  11.546 -0.1778  0.0073  0.0834
18691W        W35538   7.487   6.505   3.187  0.3057  0.0203 -0.1326
18692W        W35539   2.160   1.724   0.374 -0.0031  0.1586  0.1560
18693W        W35540  18.062  14.466  12.900  0.1516 -0.0113  0.2863
18694W        W35541   7.095   9.425   5.886 -0.3282 -0.0642  0.1151
18695W        W35542   1.808  14.031  14.390  0.2073  0.0327 -0.0464
18696W        W35543   5.868   2.353  11.611  0.0849  0.0476 -0.1027
18697W        W35544  13.325  11.818   1.025  0.0493  0.2049  0.1051
18698W        W35545  15.407   9.117   1.287 -0.0139 -0.1025  0.1778
18699W        W35546  14.696   1.102  12.719 -0.0151 -0.0556  0.0363
18700W        W35547   0.700   5.660  14.342  0.0192  0.3006 -0.0061
18701W        W35548  12.682  13.489  13.908 -0.1048 -0.2352 -0.4747
18702W        W35549   8.918  14.586   2.397  0.2757 -0.0914 -0.4040
18703W        W35550   8.748  14.882  10.531  0.2377  0.0612  0.1832
18704W        W35551   1.179   2.440   2.700  0.1697  0.1370 -0.1324
18705W        W35552  14.250  13.492  14.588  0.1013  0.2646  0.3005
18706W        W35553  15.080  14.798   3.879  0.2406 -0.2722  0.4800
18707W        W35554   2.348   5.821   3.453 -0.2239  0.1705  0.1566
18708W        W35555  12.944   7.198   0.779  0.0769  0.1558 -0.3518
18709W        W35556  10.582  10.758  10.276  0.1748  0.2967  0.1153
18710W        W35557   1.509   4.416  11.560 -0.1337 -0.2346  0.3076
18711W        W35558  18.772   2.294   3.610  0.1285  0.1144  0.2893
18712W        W35559   3.211   2.062  14.221 -0.0495  0.0242 -0.3037
18713W        W35560  10.150   2.880  15.137 -0.1050 -0.1113 -0.0747
18714W        W35561  10.732   1.767   0.845  0.3738 -0.0063 -0.3177
18715W        W35562   5.980  18.824  12.760 -0.0285  0.3556 -0.2329
18716W        W35563  16.544  15.544  12.395  0.0214  0.0320 -0.2815
18717W        W35564  15.026   0.471  13.623 -0.0033 -0.0937 -0.0137
18718W        W35565  15.338  10.767   0.830  0.2719  0.3495  0.2308
18719W        W35566   3.505  13.594   1.139  0.1470 -0.0398 -0.1130
18720W        W35567   5.764   5.074  13.282 -0.0442  0.1835 -0.0435
18721W        W35568   3.789  10.195   4.342  0.0969  0.0799 -0.1056
18722W        W35569   3.277  14.858  11.696  0.1733  0.0404 -0.0258
18723W        W35570   4.756   9.276   3.987  0.2226 -0.2508  0.1437
18724W        W35571  13.560   5.892   1.848  0.2424  0.0585  0.1821
18725W        W35572  15.940  14.825   4.010 -0.2915  0.0941  0.0511
18726W        W35573   7.701  16.877  10.686 -0.2262 -0.1612 -0.1428
18727W        W35574  15.518   0.265  10.683  0.0410  0.2977 -0.2081
18728W        W35575   3.817  18.439   1.073  0.2978  0.2862 -0.0916
18729W        W35576  12.871   8.612   2.894  0.0214  0.0292  0.1102
18730W        W35577   8.929  10.421   4.797 -0.0601  0.0817 -0.0124
18731W        W35578   9.467  12.664  12.681  0.0594 -0.1960 -0.0138
18732W        W35579   9.029  16.460   4.598  0.2804 -0.3710 -0.0382
18733W        W35580  11.783  10.603   4.714 -0.1095  0.1556  0.1481
18734W        W35581  11.773   5.658   4.380  0.4282 -0.0788  0.0343
18735W        W35582  17.184   0.058   2.855 -0.0721 -0.1099 -0.1009
18736W        W35583   7.261   5.428  15.652 -0.0481  0.0940 -0.0781
18737W        W35584  14.655  18.027  12.247 -0.1474  0.2811  0.2241
18738W        W35585  15.384   1.841   2.333 -0.3057  0.3233 -0.0832
18739W        W35586   8.661  15.466  11.524  0.1315  0.0434  0.0511
18740W        W35587   2.931  18.168  15.265  0.2838  0.2533  0.3440
18741W        W35588   3.219   8.083   5.127  0.0362 -0.0411  0.1737
18742W        W35589  15.910  18.656   5.692  0.3274  0.3843 -0.0884
18743W        W35590   0.285  14.812  13.530 -0.2557 -0.1356  0.2778
18744W        W35591  13.070   6.962  15.349 -0.2581  0.0107  0.2698
18745W        W35592  13.545  16.147  12.346 -0.2475 -0.1493  0.1343
18746W        W35593  12.575  15.295   4.595 -0.0955 -0.2522 -0.2740
18747W        W35594   9.335  15.968   4.385 -0.1130 -0.1798  0.5745
18748W        W35595  15.063   0.080   4.623 -0.1614 -0.1890 -0.0531
18749W        W35596  16.663  10.283  15.212  0.2011 -0.0545  0.1421
18750W        W35597   1.351   2.577  12.383 -0.1266  0.0755 -0.0708
18751W        W35598  16.584  11.075  12.248  0.0510 -0.3660  0.0681
18752W        W35599  17.796   4.347  12.709 -0.0735  0.2984  0.2287
18753W        W35600   4.668   5.409  13.558  0.1213 -0.3318  0.1002
18754W        W35601  15.617   2.903  15.275 -0.2636  0.1613 -0.1847
18755W        W35602  10.004   5.851   0.866 -0.0402 -0.0687  0.0623
18756W        W35603   0.326   8.975   5.776  0.1158  0.1282  0.0024
18757W        W35604   0.533   0.439  14.812 -0.0768 -0.2811  0.1393
18758W        W35605   3.043  15.281  10.919 -0.1136  0.3538  0.0811
18759W        W35606  10.962  12.374   0.288  0.3354  0.2045 -0.1654
18760W        W35607   5.011  17.174  14.635  0.4997  0.0601  0.2580
18761W        W35608  10.960  11.492  14.374 -0.2133  0.1939 -0.1058
18762W        W35609  13.452  12.089  14.280  0.1110 -0.1741  0.2144
18763W        W35610   0.204  12.555   4.773  0.2911  0.1584 -0.0629
18764W        W35611  13.914   9.294   3.306  0.2188 -0.0985  0.2435
18765W        W35612   6.732   7.413  14.321  0.2301  0.2509  0.1576
18766W        W35613  15.598   1.765  15.413 -0.1660  0.0208 -0.0651
18767W        W35614  11.485   3.217  13.660 -0.1266 -0.4427  0.3632
18768W        W35615  12.376  18.685   1.614 -0.1182 -0.0784  0.1079
18769W        W35616  15.329  10.823   3.851 -0.2170  0.0407  0.0392
18770W        W35617  15.608  17.582   1.875 -0.0934 -0.2141  0.1713
18771W        W35618  17.504   4.890   5.148  0.1283  0.0304 -0.1071
18772W        W35619   5.576   6.414  13.720 -0.1319  0.3956  0.0004
18773W        W35620   9.217   1.995  15.736 -0.1015  0.2039 -0.1173
18774W        W35621  14.944   2.691   0.266  0.0433 -0.0895 -0.0489
18775W        W35622  10.593  16.320  11.596  0.2754 -0.1004 -0.0632
18776W        W35623  11.086   9.889  14.323  0.2322  0.1414 -0.0434
18777W        W35624  13.700   6.014   1.327  0.1260 -0.1056  0.3876
18778W        W35625   9.520   5.980  14.599 -0.0302  0.2453  0.3497
18779W        W35626  12.392  16.212  11.532 -0.0476 -0.0769 -0.1989
18780W        W35627   7.171  18.533  14.734 -0.0678  0.0580 -0.1711
18781W        W35628  10.968   2.234  11.428  0.2264 -0.1653  0.0794
18782W        W35629   5.975  13.327  13.307 -0.1192  0.3204  0.0937
18783W        W35630  16.527   9.194   0.022 -0.4265 -0.3099 -0.0326
18784W        W35631  11.510   3.013  11.473 -0.1604 -0.0445 -0.1816
18785W        W35632  11.806   6.088   2.243  0.1568 -0.2813 -0.2829
18786W        W35633   3.815   4.700  13.296  0.1708  0.0120  0.2951
18787W        W35634   2.547  12.559  14.696  0.2383  0.1062  0.1697
18788W        W35635  15.682   4.395   4.501  0.1172 -0.0397  0.0184
18789W        W35636  18.736   2.959   1.416 -0.2668  0.0681  0.0802
18790W        W35637   0.869  11.820   0.402  0.2031 -0.0257 -0.1439
18791W        W35638   2.132  14.652  12.490  0.0224  0.1170  0.1675
18792W        W35639  14.564   5.182   3.819 -0.2967  0.0491 -0.0169
18793W        W35640   6.304   0.607  11.454 -0.1651 -0.1763  0.0158
18794W        W35641   2.362   8.878   0.421  0.0791  0.4271  0.2274
18795W        W35642   9.781  17.463  15.499 -0.1319 -0.1053 -0.1030
18796W        W35643   5.089  16.706  14.615  0.1152 -0.2141  0.1655
18797W        W35644  10.386   7.085   4.077  0.0474  0.1910 -0.2933
18798W        W35645   1.263   4.765  14.699 -0.1037 -0.5492  0.0420
18799W        W35646   8.601   3.908   2.987  0.0287 -0.1022  0.3496
18800W        W35647  11.024  13.479  11.200  0.1795  0.0272 -0.2930
18801W        W35648  14.401  10.019  13.410 -0.0446  0.0984 -0.3902
18802W        W35649   4.664   8.798  12.448  0.5800  0.2169  0.0409
18803W        W35650   0.632   3.099  13.338 -0.0588  0.3654  0.1295
18804W        W35651  12.400  10.628  14.386 -0.1654  0.2225 -0.0417
18805W        W35652  18.216  15.874  13.198  0.2339 -0.1567 -0.0653
18806W        W35653   3.297   0.935  14.949 -0.1847  0.0955 -0.1633
18807W        W35654   4.086   0.121  13.357 -0.1283  0.1364  0.0010
18808W        W35655   7.032   9.399  14.269  0.4501 -0.0254  0.0656
18809W        W35656   1.629   1.742  14.348  0.1475  0.0785 -0.0467
18810W        W35657  15.128   0.205   2.874 -0.1467  0.2878 -0.3003
18811W        W35658   7.389   3.725  15.750 -0.0570  0.0436  0.2945
18812W        W35659  18.539   8.945  12.650  0.1596 -0.1802 -0.0529
18813W        W35660  15.027  14.208   2.310 -0.0152 -0.4476  0.0897
18814W        W35661   7.240   0.697   4.756 -0.4031  0.0874 -0.0965
18815W        W35662   1.870  13.004   1.727  0.2570  0.0533 -0.1338
18816W        W35663   9.123   1.004   2.542 -0.1013 -0.2538 -0.0125
18817W        W35664   6.925   7.338  11.024  0.3541 -0.1797  0.1845
18818W        W35665   3.180  10.148  11.319 -0.0954  0.0629  0.0436
18819W        W35666   1.918  16.009   3.962  0.2401 -0.2535 -0.1837
18820W        W35667   7.632   3.737   1.894  0.1993 -0.2809 -0.0322
18821W        W35668   7.692   6.748  11.097  0.0774 -0.0842 -0.0034
18822W        W35669   9.127  18.657  14.637  0.2430  0.2617  0.0512
18823W        W35670  12.003  16.041  11.241  0.1973  0.0631  0.0372
18824W        W35671   1.662  14.628   3.534  0.1036 -0.1277 -0.2714
18825W        W35672  11.702   4.618   0.899  0.0080 -0.2245  0.1397
18826W        W35673   8.561   7.557  10.656  0.3946  0.1719 -0.0440
18827W        W35674   2.635   8.973  12.297 -0.0857 -0.3059 -0.0793
18828W        W35675  17.202  16.660  14.588 -0.0003  0.1232 -0.5746
18829W        W35676   7.208  15.659  13.017 -0.3368 -0.0966 -0.1564
18830W        W35677  12.519   9.578  11.362  0.1302  0.2098  0.0576
18831W        W35678  13.763  12.342   4.263 -0.2293 -0.1548 -0.1495
18832W        W35679   4.858   3.624   3.403  0.3048 -0.1127 -0.0083
18833W        W35680   5.551  12.977   3.115  0.0578 -0.0640 -0.0293
18834W        W35681   5.407   6.421   3.611 -0.0506  0.3930  0.1700
18835W        W35682  15.044  13.988   0.689 -0.2683  0.2944 -0.0903
18836W        W35683   5.649  18.048   3.288 -0.0838  0.1297 -0.3985
18837W        W35684   2.133  12.436  13.445 -0.0004  0.2008 -0.1234
18838W        W35685  14.823  17.406  14.465  0.0115 -0.0188 -0.0657
18839W        W35686   3.579   6.017  12.552  0.0959  0.1516 -0.2373
18840W        W35687  16.106  11.702  13.821 -0.0305 -0.0489 -0.0932
18841W        W35688  18.655   8.950   0.940 -0.0041  0.3849 -0.1216
18842W        W35689   2.399   2.559   2.206 -0.4015  0.0656  0.2226
18843W        W35690   0.699   1.489  14.450 -0.1312 -0.0651  0.1983
18844W        W35691  14.044  13.571  15.044 -0.1719 -0.0603 -0.2885
18845W        W35692   7.615   3.164   3.289  0.1768  0.0664 -0.0432
18846W        W35693  16.806   2.513   2.644 -0.2952  0.0303 -0.1124
18847W        W35694   9.822   1.961   5.235  0.4191  0.0958 -0.1256
18848W        W35695  17.202   7.304   2.533 -0.1661  0.2368  0.0295
18849W        W35696  10.822  14.803  10.509 -0.0375  0.0352  0.0296
18850W        W35697   0.946  10.470  12.866  0.1533 -0.2073 -0.2448
18851W        W35698  16.472  17.720  11.175 -0.1013  0.2757  0.0701
18852W        W35699  14.459  16.270   3.018 -0.1682 -0.2346  0.0907
18853W        W35700  10.954  15.731  14.668  0.1516  0.3433  0.0704
18854W        W35701   1.819  10.966  12.153 -0.0958 -0.1496  0.2385
18855W        W35702   7.204   9.566   1.424 -0.0849 -0.1191  0.0709
18856W        W35703   1.234  16.394   4.144  0.0366  0.1065 -0.2311
18857W        W35704   6.181   6.471   0.022  0.1169 -0.1399 -0.1419
18858W        W35705   6.461  11.731   2.451 -0.2178  0.2489  0.1568
18859W        W35706  17.418   3.826   5.549 -0.0596  0.1072  0.0758
18860W        W35707  17.826  18.039   3.659 -0.2064  0.0747 -0.2560
18861W        W35708   6.100  18.071  15.594 -0.0606 -0.1497  0.1190
18862W        W35709  12.707   9.409  13.053 -0.0925 -0.2549 -0.0777
18863W        W35710  10.778  16.768   1.847  0.1017  0.1010 -0.0441
18864W        W35711  11.016   2.494  14.997 -0.0528 -0.0686 -0.1683
18865W        W35712  11.030  11.009  15.348 -0.1508  0.2763  0.0479
18866W        W35713  13.553  10.143   2.832  0.2107 -0.0889 -0.3216
18867W        W35714   8.051   9.020  13.056 -0.2375 -0.0424 -0.1702
18868W        W35715  10.131   7.513   4.087  0.1210 -0.0481 -0.1317
18869W        W35716   9.553   0.388  15.243 -0.0125  0.0781  0.1623
18870W        W35717  17.699   7.235   2.738 -0.2275  0.2293  0.2267
18871W        W35718   2.254   3.888   2.868 -0.2384 -0.0615  0.2209
18872W        W35719   2.717   2.387  13.773  0.2916 -0.0594 -0.1799
18873W        W35720   4.840  14.312   1.806 -0.2162 -0.3421 -0.1141
18874W        W35721   6.362   3.445  14.929 -0.2482  0.2179 -0.2876
18875W        W35722   0.321  10.123  12.344 -0.0789  0.0391  0.3773
18876W        W35723   3.052   5.274   1.695  0.1478 -0.0578  0.0933
18877W        W35724  12.549   2.345   2.261  0.1837  0.1464  0.3223
18878W        W35725   4.223   9.657   5.150 -0.3070 -0.2441 -0.0049
18879W        W35726   7.631   7.576  14.638  0.1965  0.2438 -0.1343
18880W        W35727  14.792  12.572   0.918 -0.2633 -0.0746  0.0136
18881W        W35728   8.217  17.033  13.666  0.3005  0.3879 -0.0879
18882W        W35729   5.372   4.970   3.615 -0.2325  0.8930  0.1386
18883W        W35730  12.086  14.647   0.311 -0.3153  0.0719 -0.0128
18884W        W35731  17.186   8.335  13.391 -0.0851  0.1107  0.0176
18885W        W35732   6.734  14.912   2.327 -0.1391 -0.2154  0.0051
18886W        W35733  14.688  17.762  13.184  0.2209  0.4289 -0.1619
18887W        W35734  14.615   2.552   5.320 -0.1370  0.0550 -0.1371
18888W        W35735  17.565   5.861  12.304 -0.1092 -0.3427  0.1156
18889W        W35736  18.706  17.117   1.481  0.0781  0.0169  0.1411
18890W        W35737   4.214  14.532  14.137 -0.0304 -0.1196  0.0401
18891W        W35738   5.502  13.053   4.108  0.0290 -0.0559 -0.2237
18892W        W35739  15.959   3.913   4.339  0.0212 -0.0111 -0.1802
18893W        W35740  10.809   4.643   1.060 -0.0080 -0.3981 -0.0623
18894W        W35741   4.026   2.170   1.079 -0.2937 -0.0740 -0.0575
18895W        W35742   4.077  10.205  10.136 -0.0766 -0.2896 -0.0528
18896W        W35743   4.809  13.939  12.147  0.1093 -0.1498  0.0014
18897W        W35744  14.066   1.873   4.378  0.0362  0.2000  0.1768
18898W        W35745  16.274  11.198  11.833 -0.2308 -0.3752 -0.0695
18899W        W35746   1.342   6.096  13.517  0.0219  0.0363  0.1333
18900W        W35747   0.347   2.769   3.108  0.0012  0.3385 -0.0443
18901W        W35748   7.563   3.448  13.704  0.1560 -0.1270 -0.3051
18902W        W35749  18.348  16.323   1.901  0.1085  0.0708 -0.1140
18903W        W35750  18.267   8.731   1.718 -0.2470 -0.0971 -0.4671
18904W        W35751   8.534   4.511  14.638  0.0469  0.4197  0.2592
18905W        W35752   3.981   2.080   4.539 -0.2131 -0.0242  0.0520
18906W        W35753   6.134  17.396  14.728  0.0862 -0.0330  0.1541
18907W        W35754   4.294  12.749   4.274 -0.1679  0.0661  0.2371
18908W        W35755   5.109  15.007  12.095 -0.0957  0.0838 -0.0072
18909W        W35756  13.722  13.296  15.351 -0.0284 -0.1762 -0.0242
18910W        W35757  16.137  13.418   1.434  0.0400 -0.1981  0.0552
18911W        W35758   7.659   4.006  15.433 -0.2202  0.0399 -0.2369
18912W        W35759   5.588   2.220  15.377 -0.3117  0.0115  0.4665
18913W        W35760  15.205   7.875   2.701  0.0529  0.0221  0.1353
18914W        W35761   4.566  14.518  11.214  0.5183  0.2336  0.0812
18915W        W35762  16.857   7.160   3.725 -0.0952  0.0166  0.0507
18916W        W35763   8.946  17.626  14.771  0.0632  0.0807 -0.0350
18917W        W35764   8.867   1.204   1.176 -0.1059 -0.2160  0.2231
18918W        W35765  10.600  11.098  13.161  0.2111 -0.0983  0.0786
18919W        W35766   2.912  15.671  11.862  0.0821  0.0993 -0.1489
18920W        W35767   3.046  17.072   1.832 -0.2201  0.1008  0.1954
18921W        W35768   1.204   4.544   3.075 -0.1757  0.0928  0.0713
18922W        W35769  16.233   4.580  11.699 -0.1484  0.2495 -0.1777
18923W        W35770   0.424   7.063  11.105 -0.0839  0.3065 -0.0635
18924W        W35771  14.198  10.022   3.891  0.1579  0.1761 -0.2454
18925W        W35772   2.576   8.809  12.788  0.0848  0.1269 -0.0027
18926W        W35773  11.011   8.262  12.159 -0.1310  0.0503  0.2329
18927W        W35774  16.707   9.682  11.698 -0.1145 -0.2138 -0.2591
18928W        W35775   2.106  12.625  14.859 -0.0779 -0.2289  0.0073
18929W        W35776   8.279   7.547   0.956 -0.0564 -0.1571  0.1627
18930W        W35777  11.676   3.698  11.724 -0.1569  0.0131  0.1654
18931W        W35778  16.935   9.388   3.054 -0.0363  0.0622  0.0526
18932W        W35779  12.456  14.327  12.580  0.1705  0.2144 -0.1786
18933W        W35780   8.586   4.868  12.489  0.0475  0.1058 -0.1381
18934W        W35781  10.005   6.317  10.831  0.1049 -0.0634 -0.1040
18935W        W35782   2.332   3.011   2.423  0.0676  0.1822 -0.2347
18936W        W35783   4.675   5.602   3.968 -0.0236 -0.1602  0.4658
18937W        W35784  14.960  15.562  11.276 -0.3426 -0.0184  0.2788
18938W        W35785  10.046   7.814  14.961 -0.2002  0.1761 -0.2632
18939W        W35786   6.897   1.649   1.610  0.0942  0.2325 -0.0967
18940W        W35787  17.472  10.463  11.297 -0.0067 -0.1682  0.0255
18941W        W35788   1.391  14.547   1.029  0.2306  0.0731 -0.1623
18942W        W35789   4.611   8.347  13.326  0.1036 -0.2063  0.1187
18943W        W35790  13.453   1.121   1.551 -0.0651 -0.2973  0.1158
18944W        W35791   6.352  10.176   0.998 -0.1433  0.4670 -0.0347
18945W        W35792  11.856   0.391  13.638 -0.1106  0.1255  0.0000
18946W        W35793   7.908  18.384  11.118 -0.2897  0.3890 -0.0062
18947W        W35794   0.405   1.142   4.083 -0.0513  0.1732  0.0284
18948W        W35795  12.787   5.998  11.076 -0.0213 -0.3187 -0.0214
18949W        W35796   9.629  16.345   2.834 -0.0730  0.1147 -0.0886
18950W        W35797  11.624  13.473   2.673 -0.1565 -0.2053  0.1780
18951W        W35798  11.022  11.477   2.331 -0.0420  0.2054 -0.0691
18952W        W35799   8.440  15.810   3.256 -0.0430  0.2169 -0.0771
18953W        W35800  17.868  16.692  11.136 -0.0619 -0.1425 -0.0448
18954W        W35801  14.493  12.833   5.232 -0.1351  0.0694  0.0706
18955W        W35802  11.029  16.894  13.380  0.3407 -0.3162 -0.0331
18956W        W35803  12.565   3.651  15.608 -0.2024  0.0656  0.1728
18957W        W35804  16.463   4.319  12.211 -0.0500  0.3548 -0.0584
18958W        W35805   9.600   6.301   3.779 -0.4076 -0.0174 -0.0448
18959W        W35806   9.423  17.689  15.144  0.0037  0.0664  0.2756
18960W        W35807   1.621   0.674   2.342  0.1701 -0.3154 -0.0905
18961W        W35808  15.785  12.517   5.555  0.0680 -0.2917  0.1226
18962W        W35809   2.361   1.976   5.187 -0.0720 -0.1142  0.1593
18963W        W35810  17.547   0.645  12.815  0.0180  0.1036  0.1707
18964W        W35811   9.512  15.405  10.828 -0.1361  0.1286  0.0958
18965W        W35812  17.813   1.460  15.057  0.0615 -0.1438 -0.0934
18966W        W35813   9.718   4.136   2.486  0.1951  0.3199  0.5080
18967W        W35814   4.457  16.129  14.047 -0.2340  0.0878 -0.1547
18968W        W35815  13.929  14.493  15.393 -0.2592 -0.1000 -0.1196
18969W        W35816   8.075  12.539   4.739 -0.4202  0.0736  0.2180
18970W        W35817  13.575   5.873  11.759  0.0081  0.0116  0.1748
18971W        W35818   4.375   2.360   5.022  0.0970 -0.0323 -0.2099
18972W        W35819  16.181   0.326   4.500  0.2490 -0.2927  0.1018
18973W        W35820  10.767  10.062  14.642  0.1671 -0.1383 -0.1313
18974W        W35821   1.778  11.810   1.406  0.1769 -0.0809 -0.1286
18975W        W35822   1.970   2.721  10.697 -0.1216  0.2558 -0.0544
18976W        W35823   5.981  14.160   0.434  0.0277  0.0024 -0.2564
18977W        W35824   6.930  18.061   1.492  0.0479 -0.0267  0.0621
18978W        W35825   3.650   1.429   5.821 -0.1500  0.1483 -0.0260
18979W        W35826  15.225   8.478  12.522 -0.0715 -0.2016 -0.1224
18980W        W35827   6.316   8.421  12.622 -0.1732 -0.0039 -0.0361
18981W        W35828   1.357   6.507   2.482  0.0284  0.3766  0.1103
18982W        W35829  10.707   8.278  10.911  0.0207  0.2485 -0.1084
18983W        W35830   8.496  15.575  12.139  0.1112 -0.0546 -0.1432
18984W        W35831   6.417   3.154   4.900  0.0091  0.0123  0.0576
18985W        W35832   9.935   7.787   1.981 -0.2749  0.1632 -0.1041
18986W        W35833   5.585  14.285  12.725  0.0211 -0.3122 -0.0041
18987W        W35834  13.760  18.487   0.535 -0.2997  0.3251 -0.4103
18988W        W35835  18.519  10.423   1.328  0.0979 -0.1169  0.2772
18989W        W35836   6.061   8.971   0.741 -0.2031  0.0403  0.2738
18990W        W35837   5.731  18.790   1.430  0.4140 -0.2298 -0.1034
18991W        W35838   2.537   7.431  15.334 -0.0899  0.1099  0.1194
18992W        W35839   2.196   0.728  11.323  0.1052 -0.0193  0.0437
18993W        W35840  17.932   1.495   2.974  0.0522  0.1629  0.1412
18994W        W35841  10.192  17.915   2.423  0.0301  0.1227 -0.1540
18995W        W35842  10.949   1.218   1.704 -0.1662  0.0412 -0.0005
18996W        W35843  15.210   3.139   0.376 -0.2001 -0.2305 -0.1101
18997W        W35844   6.786   4.873   2.018  0.4124 -0.1106  0.0973
18998W        W35845   8.710   7.845   0.180 -0.4239  0.0649  0.2509
18999W        W35846  18.109  11.900  12.353  0.0058  0.2901 -0.0096
19000W        W35847   7.175   3.054   3.009  0.1309 -0.1777 -0.1682
19001W        W35848  16.342   6.697   0.568  0.1022 -0.1605 -0.3174
19002W        W35849   5.061  13.060   3.338 -0.1779 -0.3149 -0.0005
19003W        W35850  12.050   7.892  13.900  0.0257  0.2372  0.0702
19004W        W35851   8.126   1.217  15.751 -0.1675 -0.1925  0.1204
19005W        W35852   7.070   7.987  15.391 -0.1119 -0.2464  0.0673
19006W        W35853  18.113  13.260   3.723 -0.2606 -0.0214  0.3297
19007W        W35854  14.987  13.758  13.368  0.0417 -0.4815 -0.4068
19008W        W35855   3.450   8.118  11.869 -0.1940  0.0725 -0.1132
19009W        W35856  17.169   9.832  14.140  0.4810 -0.2859 -0.0890
19010W        W35857  10.572   2.963   3.631 -0.1233 -0.2989 -0.0409
19011W        W35858   7.145  12.508   2.675 -0.0774  0.1615 -0.1848
19012W        W35859  13.862   9.908   3.497  0.2382  0.0319  0.0611
19013W        W35860   4.267   9.301   1.722 -0.1230 -0.1324 -0.3010
19014W        W35861   1.442  14.162  11.270 -0.0782  0.1922  0.1435
19015W        W35862  13.514  15.555  13.646  0.1004 -0.0920 -0.2070
19016W        W35863   6.399   5.920   0.755 -0.0152  0.1041  0.2069
19017W        W35864   4.344   9.761  12.072  0.1398  0.0325 -0.3422
19018W        W35865   4.395  17.835  13.328 -0.1322  0.1225  0.0367
19019W        W35866  11.672  16.512  12.083  0.2808 -0.1519  0.0241
19020W        W35867   3.042  13.740   1.359 -0.2083  0.0301 -0.2436
19021W        W35868   2.829   9.659  13.429  0.1125 -0.2074  0.1537
19022W        W35869   5.564  18.253  10.164 -0.0050 -0.3062  0.1683
19023W        W35870  10.410  17.070  11.371 -0.2022 -0.2453 -0.2268
19024W        W35871  10.310   2.566   0.593 -0.0474  0.4069  0.1802
19025W        W35872   0.076  17.723   2.190 -0.3243 -0.1893 -0.1435
19026W        W35873  18.840   7.160  12.007  0.3965 -0.1005  0.0581
19027W        W35874  18.113   8.095   0.132  0.1366 -0.2256  0.0356
19028W        W35875  12.104   2.841   2.979  0.1464 -0.5623  0.0374
19029W        W35876   4.766   2.852   2.523 -0.0771  0.3022 -0.2565
19030W        W35877   3.016  12.679   2.572  0.1445 -0.0510 -0.1064
19031W        W35878   8.672  17.558   2.080  0.3672  0.1226  0.0088
19032W        W35879   5.114   6.599   2.083 -0.2013 -0.2038  0.0914
19033W        W35880   7.921   9.048   1.459 -0.2822 -0.1576  0.2562
19034W        W35881   9.636  13.765  15.330  0.1414  0.2757 -0.1196
19035W        W35882   1.181   0.596   2.653 -0.0803  0.1115  0.2226
19036W        W35883   2.888  13.291   4.542 -0.0651 -0.3179 -0.0513
19037W        W35884   2.734  12.161   1.768  0.2622 -0.1198 -0.3597
19038W        W35885  14.019   9.738   4.353  0.2354 -0.0538 -0.2308
19039W        W35886  18.493   4.515  15.192 -0.0564 -0.0743 -0.0049
19040W        W35887  10.864   5.954  11.932  0.0302 -0.1387  0.0147
19041W        W35888   7.226   7.515   4.680 -0.0063  0.1627 -0.0517
19042W        W35889   2.646   9.414  12.583  0.2479  0.1935  0.2305
19043W        W35890  17.089   7.862   3.368  0.0949  0.1674  0.2929
19044W        W35891  14.123  11.070  10.958 -0.2654 -0.0523 -0.0088
19045W        W35892   0.891  10.958  13.625 -0.0114  0.2028  0.0070
19046W        W35893  16.895  10.570   4.562 -0.1353  0.1145 -0.0529
19047W        W35894  13.632  14.110   2.156 -0.4348  0.0609  0.2644
19048W        W35895  18.327   1.823  11.285 -0.0389  0.0961 -0.0226
19049W        W35896  12.633   4.503   0.519 -0.2017 -0.2753 -0.0717
19050W        W35897  14.738  18.783  14.625 -0.2153 -0.3420 -0.1666
19051W        W35898   2.985  13.525   2.147  0.0646  0.0105 -0.1029
19052W        W35899  15.089   1.358   1.078  0.0363  0.1551 -0.1527
19053W        W35900  13.989   4.851   0.620  0.0582  0.0874  0.2595
19054W        W35901  13.355   1.201  13.721  0.1569 -0.0440 -0.0251
19055W        W35902  10.661  14.043   5.331  0.0673  0.2408 -0.1658
19056W        W35903  16.991  17.253   3.245  0.2789 -0.3450 -0.0275
19057W        W35904   1.131   7.205   0.763  0.1852  0.0174 -0.1232
19058W        W35905   7.162   0.166  11.882  0.0887  0.0663 -0.3062
19059W        W35906   3.126  11.287  11.432  0.2636 -0.0198  0.0796
19060W        W35907   0.322   7.928  12.168  0.0237 -0.0414  0.1198
19061W        W35908  18.447   5.831  13.404 -0.0362 -0.3686 -0.0028
19062W        W35909  10.934  11.305   4.286  0.3427 -0.1156 -0.1214
19063W        W35910  12.206  15.668   2.739  0.0129  0.1503  0.0017
19064W        W35911  11.967  11.852   2.181 -0.0232 -0.0152 -0.1152
19065W        W35912   9.874   9.619  14.708  0.1186  0.0296 -0.0959
19066W        W35913   6.530  15.234   2.677  0.1416 -0.0472  0.0269
19067W        W35914   7.331   5.093  14.658 -0.3093  0.1887 -0.1573
19068W        W35915  15.720   7.325   1.663 -0.0943 -0.1695  0.3287
19069W        W35916   1.888  14.807   4.973  0.0154  0.2359 -0.1907
19070W        W35917   0.269   8.707   3.304 -0.2188  0.0905  0.0590
19071W        W35918  13.104   9.397   3.394 -0.3033 -0.0139 -0.0259
19072W        W35919   6.034   8.907  13.477  0.0833 -0.0387 -0.0346
19073W        W35920  18.801   7.806   2.012  0.0231  0.1122  0.2198
19074W        W35921   3.056   7.824   2.081 -0.3650 -0.3308  0.0006
19075W        W35922  18.449  15.686   1.172 -0.0795  0.3570 -0.0324
19076W        W35923   8.858   3.604  15.060  0.1342  0.0130 -0.0556
19077W        W35924  15.141  11.591   1.283  0.0089  0.0161  0.0231
19078W        W35925  13.642  14.863  11.394  0.2461 -0.1666 -0.2501
19079W        W35926  14.592  17.222   5.929  0.0655 -0.2281  0.3406
19080W        W35927   5.018  14.010   3.809  0.1418  0.2396  0.0430
19081W        W35928   9.942   1.026  14.190  0.1447 -0.2546  0.0933
19082W        W35929   7.229   4.325   2.737  0.1481  0.0289  0.1422
19083W        W35930  16.705  16.601   1.771  0.2654 -0.0833  0.1367
19084W        W35931  12.601  12.245   1.731 -0.1688 -0.1467  0.0873
19085W        W35932   3.923  17.439   2.654 -0.2557 -0.1297 -0.3133
19086W        W35933   9.535   0.873   4.681 -0.2831  0.1297  0.0480
19087W        W35934  15.578   0.468  14.993  0.5841 -0.0284  0.5610
19088W        W35935  18.662   9.748  13.031 -0.1472 -0.2090  0.1343
19089W        W35936   3.914   0.572   4.848 -0.0707 -0.3124 -0.0484
19090W        W35937  11.089  13.229  13.339 -0.1541 -0.0380 -0.1911
19091W        W35938   8.992  13.442  13.086  0.1396  0.4037 -0.1181
19092W        W35939  17.204   1.607  11.894  0.1614  0.1793 -0.2854
19093W        W35940  15.680   9.394  11.658 -0.0728  0.2438 -0.1274
19094W        W35941   5.564   7.355  13.644 -0.3038 -0.1231  0.1843
19095W        W35942  15.343   2.549   4.492  0.2628 -0.1886 -0.2510
19096W        W35943   5.493  12.210   2.298  0.2406  0.0415 -0.2676
19097W        W35944   7.312  14.544  15.514 -0.3781  0.4399 -0.1550
19098W        W35945   6.282   0.028   1.717 -0.0385  0.0293  0.0767
19099W        W35946   7.932   5.969  14.971 -0.0732 -0.0934  0.0680
19100W        W35947  18.368   2.599  12.630  0.3073 -0.1562 -0.1657
19101W        W35948  18.469   5.014  15.277 -0.1407 -0.0788  0.1771
19102W        W35949  16.165   7.935  13.424  0.3038  0.1014 -0.1639
19103W        W35950   1.679   0.990  14.677 -0.2419  0.0554  0.0004
19104W        W35951   1.229   3.222  11.260 -0.0815 -0.0424 -0.0494
19105W        W35952   1.997   5.441   4.678  0.1507 -0.0085 -0.0690
19106W        W35953  17.684   8.480  12.178 -0.0486 -0.4407 -0.1219
19107W        W35954  11.611   4.086   0.763 -0.1589 -0.1011 -0.1090
19108W        W35955  11.774   7.481   4.612 -0.2464 -0.2479 -0.2324
19109W        W35956  18.320  18.217  11.513 -0.1893 -0.2287 -0.0483
19110W        W35957  11.168  14.574  11.340 -0.1741 -0.0153 -0.2662
19111W        W35958  11.554   5.127  15.217  0.2660 -0.1831 -0.0643
19112W        W35959  15.218  15.932  13.899  0.2562 -0.2959 -0.0144
19113W        W35960   1.721   8.953  14.313  0.0659  0.2766  0.0925
19114W        W35961  11.803   4.453  10.726  0.1894  0.2922 -0.1894
19115W        W35962   8.221   9.767   0.425 -0.0328  0.0304 -0.0821
19116W        W35963   2.330  18.390  13.079  0.0275  0.3544 -0.0787
19117W        W35964   4.108   2.629  14.590  0.0714 -0.4177  0.2491
19118W        W35965   6.849  14.928  11.888 -0.0629  0.1408 -0.1073
19119W        W35966   4.622   7.840  13.081 -0.1563  0.2334 -0.0669
19120W        W35967  15.744  18.094   5.398  0.0053  0.0156  0.0160
19121W        W35968   3.987   0.554   1.162 -0.1476 -0.0022  0.2333
19122W        W35969   3.525   0.663   5.642 -0.0917  0.4093  0.1111
19123W        W35970   5.347   7.109   2.225 -0.0046  0.2548  0.0177
19124W        W35971  13.702   9.186  10.868 -0.0083 -0.2243 -0.2472
19125W        W35972   5.008  12.782  13.506  0.1685 -0.2259 -0.1821
19126W        W35973  17.177  14.600   0.741 -0.2106 -0.0739  0.2744
19127W        W35974  10.240  17.481  10.348 -0.0256 -0.1098 -0.0312
19128W        W35975   7.294  10.262   0.247  0.3324 -0.1207  0.2064
19129W        W35976   9.043   4.302   3.153 -0.3937 -0.0349  0.0397
19130W        W35977  17.798   4.983  14.300  0.1795 -0.0865 -0.2476
19131W        W35978   7.666   1.895  11.087  0.1193  0.1006  0.1758
19132W        W35979   8.542  14.850   2.227  0.0940 -0.2936  0.0425
19133W        W35980   2.187   9.557  10.563 -0.0353  0.1144 -0.0905
19134W        W35981  13.880   2.234  11.598 -0.0517 -0.0441 -0.0978
19135W        W35982   5.978   0.963  14.515 -0.2028 -0.0341  0.0752
19136W        W35983   3.648  16.751   4.300 -0.0009  0.2485  0.0326
19137W        W35984  18.049  18.178   6.091  0.3781 -0.0141 -0.2003
19138W        W35985  12.706   6.306  12.644  0.1681  0.1381  0.0123
19139W        W35986  14.634  18.764   4.835 -0.1085  0.1593 -0.2351
19140W        W35987   8.843   9.582  12.977  0.0379 -0.3602 -0.0275
19141W        W35988   5.661  11.845  15.032  0.1651 -0.1079  0.0129
19142W        W35989  17.026   2.234   3.732  0.1601  0.4000 -0.3927
19143W        W35990   2.156   9.084  12.466  0.1730  0.1108 -0.0191
19144W        W35991  14.249  12.696   1.631 -0.1988 -0.1448 -0.0621
19145W        W35992   1.394   9.697  15.321  0.2824  0.2496 -0.0260
19146W        W35993   6.706   4.102  15.650  0.2913 -0.0951  0.2144
19147W        W35994  14.685   9.627  11.507 -0.0373  0.1135 -0.0130
19148W        W35995   3.841  10.434  13.941  0.0424 -0.1430  0.2187
19149W        W35996  12.342  17.401   2.779  0.2824 -0.1956  0.0772
19150W        W35997  17.702  12.299   0.744 -0.0595  0.2729  0.0140
19151W        W35998   6.834  10.891   4.683  0.0048  0.2763 -0.0894
19152W        W35999   9.614   0.211  13.349 -0.2397  0.2250 -0.0259
19153W        W36000  16.192   7.410  15.769  0.0710  0.0670  0.2938
19154W        W36001  14.574   7.378  15.448 -0.0631  0.2009  0.3073
19155W        W36002   7.815  12.784  13.545 -0.0402 -0.2389  0.3044
19156W        W36003   8.361  13.507  10.970  0.1924  0.2394 -0.1891
19157W        W36004  15.219   6.081  14.677 -0.2467  0.1418 -0.1881
19158W        W36005   8.571   6.923  15.556 -0.1461  0.0724  0.2016
19159W        W36006   1.848   3.983  10.175  0.2567 -0.5003 -0.0493
19160W        W36007  14.763   3.621  13.161  0.0091  0.5639  0.2451
19161W        W36008   3.810  15.626   2.825 -0.1539  0.1632 -0.3410
19162W        W36009   9.877  10.699   4.365 -0.0170  0.0255  0.1438
19163W        W36010   3.433  18.156   1.959  0.0422 -0.2602  0.2674
19164W        W36011   4.343   4.768   3.892  0.1047 -0.1278 -0.1823
19165W        W36012   7.675   3.938  12.548 -0.0331  0.1536  0.0241
19166W        W36013  11.944  15.380  11.708  0.0522 -0.1247 -0.1851
19167W        W36014   2.355   9.262  12.001 -0.0994  0.1601 -0.1150
19168W        W36015  17.740   8.986  12.314  0.1454  0.0014 -0.0228
19169W        W36016  16.898   1.279  14.574 -0.2917 -0.3791  0.0282
19170W        W36017  12.545   2.057   3.339  0.2761  0.1825  0.0184
19171W        W36018   9.944  14.922  11.889  0.3045  0.1037  0.1902
19172W        W36019   1.322  11.028  12.354  0.1595  0.2591 -0.1647
19173W        W36020  13.085  17.496  12.675  0.0171 -0.2494 -0.0735
19174W        W36021   4.794  14.720   0.324 -0.1945 -0.1752  0.2733
19175W        W36022   2.202  10.126  11.505  0.3511 -0.1709  0.2816
19176W        W36023   1.713   4.138   1.149  0.0287  0.1106  0.0503
19177W        W36024  18.250   6.681  13.729  0.1251  0.2150 -0.1743
19178W        W36025  16.229  12.255   5.352  0.2808 -0.1305 -0.2046
19179W        W36026   5.465   7.239   0.064  0.0150 -0.3411 -0.0213
19180W        W36027   4.818  18.012   0.932  0.1881 -0.1117  0.0424
19181W        W36028  16.012   5.147  14.033 -0.1306 -0.1403  0.0038
19182W        W36029   1.598   1.322  11.960  0.0475 -0.0393  0.0629
19183W        W36030   9.683  13.800  14.787  0.1031  0.0388 -0.0372
19184W        W36031   6.918   2.417   4.889 -0.1070  0.2511  0.2839
19185W        W36032   1.441  15.950   2.990  0.2666 -0.1772 -0.0623
19186W        W36033  10.582  11.036  13.633 -0.1180  0.1245 -0.3009
19187W        W36034  14.221  14.724   5.567 -0.3057 -0.2083  0.1701
19188W        W36035  15.111  12.683   1.266  0.0882 -0.0405 -0.1659
19189W        W36036  18.274   3.276  15.501 -0.0313 -0.3775 -0.2509
19190W        W36037  14.096  13.395  13.085 -0.1671 -0.1126 -0.1459
19191W        W36038  18.530  18.449   0.969  0.0823  0.2914 -0.2429
19192W        W36039   9.007   1.198  12.743  0.2101 -0.3255  0.1626
19193W        W36040   2.829   4.695   5.790 -0.0543  0.0910  0.0768
19194W        W36041  18.860  12.422  14.035 -0.0288 -0.0811 -0.0988
19195W        W36042   1.462  14.338   0.540  0.1499 -0.1635 -0.2626
19196W        W36043   6.323  14.511   3.560  0.2297 -0.2092 -0.1555
19197W        W36044   1.315   0.927   2.066 -0.0923  0.0506  0.1087
19198W        W36045  13.155  11.116   0.954  0.0896 -0.0436  0.1693
19199W        W36046  12.066   6.024  11.822  0.0363  0.0288  0.3683
19200W        W36047  14.168  12.356  11.261  0.2707 -0.1314 -0.0301
19201W        W36048  17.153   5.542   1.354 -0.0685  0.5748 -0.0798
19202W        W36049   9.466  17.004  15.246  0.1658  0.2243 -0.0563
19203W        W36050   3.208   7.700   1.323 -0.2583 -0.1098  0.1480
19204W        W36051  17.886  10.325   4.302  0.3178  0.1579 -0.0616
19205W        W36052   1.421   0.083   2.918 -0.1994  0.0610 -0.0590
19206W        W36053  10.305  14.668  14.586 -0.2665  0.3780 -0.3705
19207W        W36054  12.808   8.123  14.720  0.3649 -0.4225  0.0512
19208W        W36055  17.801  15.958   5.319  0.0047 -0.0214 -0.1151
19209W        W36056   7.567   9.499  10.918 -0.0502 -0.2174 -0.0507
19210W        W36057  15.017   0.033   1.136  0.0685 -0.1500  0.0490
19211W        W36058   2.950   7.772   5.462 -0.3870 -0.0939  0.4424
19212W        W36059  15.364   6.301  12.055  0.1330 -0.1133 -0.0090
19213W        W36060  13.184  18.472  14.354 -0.1799 -0.0218  0.1949
19214W        W36061   0.949  15.876  11.361  0.2251 -0.4321 -0.0454
19215W        W36062   9.853   3.834  14.310  0.3802  0.2509 -0.2545
19216W        W36063   8.748   1.935  12.125 -0.0669 -0.0565  0.2554
19217W        W36064   5.497   0.722   0.420  0.4222 -0.2993 -0.0126
19218W        W36065  18.371   7.522   0.731  0.0104 -0.1667 -0.0441
19219W        W36066   8.204  17.697  11.372 -0.2288 -0.2186 -0.0635
19220W        W36067   1.047  10.504   0.226 -0.1461  0.0790 -0.2178
19221W        W36068  11.121   1.093  13.178  0.3015 -0.0066 -0.1438
19222W        W36069   1.409   1.102   1.125 -0.2211 -0.0074  0.4375
19223W        W36070  15.511  16.473  14.548  0.1575  0.0018  0.1455
19224W        W36071  18.636   0.144  13.158 -0.1035  0.0186  0.0648
19225W        W36072   6.232   8.715  11.926 -0.1544 -0.0601  0.0730
19226W        W36073   9.100  15.437   1.241  0.0896  0.0652  0.0441
19227W        W36074   9.699  10.328   2.683 -0.1228 -0.0765 -0.1266
19228W        W36075  11.324  16.518  10.785  0.4626 -0.0212 -0.0762
19229W        W36076  16.865  16.203  15.510  0.5639  0.3195 -0.0913
19230W        W36077  14.302  15.223  14.247  0.0490 -0.0491  0.0519
19231W        W36078   6.314  16.254   0.043 -0.0336 -0.2285 -0.0711
19232W        W36079  12.026   3.207   1.120  0.2066 -0.0032 -0.0429
19233W        W36080   4.775  15.791  12.291 -0.0907  0.0248 -0.0618
19234W        W36081  18.484  16.880  12.347  0.1813 -0.0887  0.1342
19235W        W36082  13.397   9.361   2.971  0.0043  0.2102  0.1636
19236W        W36083  11.334   9.134   0.037  0.1649  0.0098  0.0826
19237W        W36084  15.789   3.403   0.951 -0.0020  0.0193 -0.0671
19238W        W36085   8.042  13.077  12.112  0.4496  0.3110 -0.0773
19239W        W36086   2.481  12.771  13.372  0.2311  0.0119  0.2410
19240W        W36087   0.478   2.989   5.196  0.2324  0.1850 -0.2540
19241W        W36088  11.521   2.355  12.497 -0.0383  0.1420 -0.3384
19242W        W36089   3.775  16.328  10.948 -0.3738 -0.1599 -0.2504
19243W        W36090   5.538   9.945  10.910 -0.0603 -0.0002 -0.1092
19244W        W36091  15.245   4.638   0.001 -0.1517  0.0839 -0.0708
19245W        W36092  17.482  13.007   0.284 -0.2266 -0.0252 -0.0458
19246W        W36093   9.307   0.314   0.360  0.2372  0.0260  0.1845
19247W        W36094   5.247  18.742   4.459 -0.1838  0.1181  0.0258
19248W        W36095   8.027  12.874  10.230 -0.0143  0.0278 -0.0680
19249W        W36096   0.349   0.032  13.135  0.2217  0.0801  0.2848
19250W        W36097  14.763  14.095   5.209  0.2531  0.1836 -0.4579
19251W        W36098   7.343   9.298  11.378  0.1006  0.1216 -0.1696
19252W        W36099   8.271   2.821  14.980  0.4845 -0.0502  0.1660
19253W        W36100  10.796   5.024  11.054  0.0613 -0.0301 -0.1340
19254W        W36101  12.222   3.583   4.974 -0.2860  0.3609  0.1313
19255W        W36102   1.535  17.403  12.847 -0.1805  0.2939  0.2096
19256W        W36103  11.448   0.968   4.825 -0.3981  0.0524 -0.0925
19257W        W36104  14.457   9.413   1.433  0.0409  0.0301 -0.1243
19258W        W36105  12.840  12.967  15.446 -0.2736  0.1046 -0.1098
19259W        W36106   8.708   7.560  11.106 -0.1456  0.1730  0.2941
19260W        W36107  18.506   5.857   0.660 -0.1943  0.4480 -0.1544
19261W        W36108  12.804   8.899  15.361  0.1357  0.2035 -0.0678
19262W        W36109  15.827  15.606  14.433 -0.2678  0.3089  0.0327
19263W        W36110   2.488  17.656   1.514 -0.3254  0.1756  0.0432
19264W        W36111  11.608  10.804  14.036 -0.0495  0.3142  0.1934
19265W        W36112   6.334   8.993   3.074 -0.3566  0.3356 -0.2467
19266W        W36113   3.143  18.387   1.476  0.0214  0.1383  0.1055
19267W        W36114  13.757   4.141   3.290 -0.0623 -0.2203 -0.3935
19268W        W36115   1.720   0.393   0.304  0.1839 -0.1827  0.0365
19269W        W36116   8.529  17.216   3.819  0.0844 -0.0747  0.0029
19270W        W36117   2.972   9.817   4.041  0.0065 -0.2123 -0.1987
19271W        W36118   2.697   2.131  12.082 -0.0541  0.0583 -0.0331
19272W        W36119  17.522   0.306   0.196 -0.0706 -0.1919 -0.4517
19273W        W36120   9.187  13.782  15.626 -0.0545  0.0396 -0.1293
19274W        W36121   2.727  11.767  14.343  0.0150 -0.0568 -0.1400
19275W        W36122  10.300   4.279  14.204 -0.0271 -0.1346 -0.0836
19276W        W36123   0.229  15.934  12.942  0.3881 -0.0240 -0.1469
19277W        W36124  13.979  14.433   5.083  0.0439  0.0807  0.2709
19278W        W36125   0.642  18.770  15.039  0.1951 -0.0737 -0.0474
19279W        W36126  10.260  12.876  14.308  0.0726 -0.1414  0.1768
19280W        W36127   9.174   8.611  14.274 -0.0382 -0.0001 -0.2381
19281W        W36128  12.314   2.243  12.437  0.1907  0.2239 -0.1704
19282W        W36129   6.984   3.296  11.361  0.0121 -0.0165  0.0069
19283W        W36130   9.430   1.041  14.438 -0.1184  0.0749  0.2401
19284W        W36131  17.843   9.496   0.328 -0.2269 -0.1742  0.1392
19285W        W36132   6.605   0.933   2.575  0.1720  0.0838 -0.1335
19286W        W36133  13.501   4.812   0.847  0.4898 -0.3818  0.2380
19287W        W36134  16.736  18.708   5.005  0.1587 -0.1867  0.1611
19288W        W36135   0.372  12.410   4.307 -0.0124 -0.1221 -0.0756
19289W        W36136   9.228   2.653   0.321 -0.4305 -0.1323  0.0971
19290W        W36137   7.936  18.403  15.658 -0.0853 -0.0053  0.0260
19291W        W36138  14.213  13.470   6.065 -0.0444 -0.0832 -0.0261
19292W        W36139   5.209   9.155   2.631 -0.0508  0.1354  0.0584
19293W        W36140   5.962  14.192   3.359 -0.1785  0.3384 -0.2509
19294W        W36141   2.612   7.653  12.098  0.0906  0.1365 -0.1344
19295W        W36142   9.228  13.708  10.857  0.1166 -0.0981  0.0503
19296W        W36143  10.058   0.872   2.082 -0.1142  0.2399  0.1982
19297W        W36144   7.967  16.420   4.374 -0.1755  0.2981 -0.1504
19298W        W36145  15.754  15.028   5.690  0.0593  0.1519  0.1317
19299W        W36146   3.343   4.222  13.885 -0.0928  0.0863  0.2030
19300W        W36147  10.728  12.943  10.569 -0.0129  0.1876 -0.1937
19301W        W36148  10.935   0.775  12.801 -0.1629  0.0259 -0.2246
19302W        W36149   7.706   6.502  13.031  0.1227 -0.2997  0.1424
19303W        W36150  12.083  17.905  13.098  0.1955 -0.1706  0.4853
19304W        W36151  13.370   5.100  14.982 -0.0808 -0.0984  0.3090
19305W        W36152   2.033   6.152  14.842  0.1347  0.0685  0.3612
19306W        W36153  12.071   4.094  11.712 -0.0405 -0.0257 -0.2304
19307W        W36154   0.455  12.646   2.869  0.0846 -0.0702 -0.1966
19308W        W36155   5.707  18.627   4.169  0.1437  0.0686  0.0013
19309W        W36156   6.595   7.182   3.649 -0.0740  0.5898  0.4094
19310W        W36157   4.266  17.739  10.579 -0.2639  0.2813 -0.0986
19311W        W36158  17.646   1.156   0.808  0.2649 -0.1771 -0.0246
19312W        W36159  13.261   7.471   3.598  0.0665  0.1274  0.2112
19313W        W36160   1.569  13.781   5.248  0.2821 -0.3619 -0.1779
19314W        W36161   6.315  16.470  14.560  0.2501 -0.0131  0.1718
19315W        W36162   1.980  14.329   2.227  0.3003 -0.0052  0.1256
19316W        W36163  18.479  18.079   2.891  0.0199  0.1563  0.3284
19317W        W36164   1.700  10.070  15.598 -0.2578 -0.0311 -0.0684
19318W        W36165   6.649  11.385  15.684  0.0420 -0.0136  0.0231
19319W        W36166  10.115  17.295   1.273 -0.0912 -0.1751  0.1175
19320W        W36167  16.956  17.960   2.728 -0.1913 -0.2533  0.2817
19321W        W36168  12.690   2.383  11.342  0.1518  0.0802 -0.2663
19322W        W36169   6.098  13.382  15.620  0.2049  0.0198 -0.0234
19323W        W36170   2.963   1.082   3.013 -0.1922  0.1383  0.1991
19324W        W36171  16.799  12.264   2.450  0.0958  0.1018 -0.0746
19325W        W36172   7.796   6.231   4.363 -0.5967  0.0386  0.0833
19326W        W36173  12.288  12.724  10.689  0.0362 -0.0653 -0.3430
19327W        W36174   8.081   6.536  13.330 -0.3208  0.0875  0.0213
19328W        W36175  13.382   8.732   2.793 -0.0361  0.0483  0.0599
19329W        W36176   1.640   3.011   0.049 -0.0801  0.0612  0.0272
19330W        W36177   1.973   1.508   4.336  0.3333  0.3768 -0.0427
19331W        W36178   2.240  17.079  13.678 -0.1165  0.1144 -0.0520
19332W        W36179   6.370  17.351   4.028  0.3766 -0.3469  0.0071
19333W        W36180   7.298   0.874   0.655  0.3157 -0.1436 -0.2832
19334W        W36181  12.343  16.806   1.104 -0.2413 -0.1136 -0.0938
19335W        W36182   3.654  15.332  10.943 -0.2560  0.1267  0.2304
19336W        W36183  17.911   4.807   3.634 -0.2805 -0.0506 -0.1404
19337W        W36184   3.465   4.358   2.929 -0.0156  0.2163 -0.2840
19338W        W36185  17.419   8.447  14.616  0.1436 -0.3925  0.0006
19339W        W36186   3.221  15.456   0.029  0.2182 -0.0813  0.1242
19340W        W36187   2.133  14.708   3.441  0.1403 -0.1610  0.1138
19341W        W36188   0.130   2.514   1.691  0.1113  0.1226  0.0643
19342W        W36189   0.587   9.158  15.290  0.1495  0.2560  0.1098
19343W        W36190   8.595  13.991   3.471  0.0370  0.0252  0.0211
19344W        W36191  13.448  15.699  12.074 -0.1189 -0.1108 -0.0001
19345W        W36192  17.034   7.241   4.916  0.2512  0.2599  0.0981
19346W        W36193  15.113  18.840  11.006  0.1078 -0.3597 -0.1224
19347W        W36194   7.835  13.342   0.242 -0.1245  0.1889  0.0467
19348W        W36195   6.163   2.450   2.399  0.3846  0.0979  0.0560
19349W        W36196   4.846   2.160   4.921  0.0033  0.0827 -0.1289
19350W        W36197   7.212   1.851  13.046  0.1550  0.1166 -0.0416
19351W        W36198  15.059  18.590  15.044  0.3141 -0.0719  0.0038
19352W        W36199  13.232   7.106  11.486 -0.1484  0.3508 -0.2038
19353W        W36200   0.123   2.072   4.412 -0.0869  0.1941  0.0733
19354W        W36201   5.303  13.659  11.840  0.0959  0.0911  0.0545
19355W        W36202  12.140   0.999   1.771 -0.1371  0.3624  0.0396
19356W        W36203   9.320  13.910  11.258 -0.2586 -0.3757 -0.3556
19357W        W36204   0.143  14.799   2.877 -0.2036 -0.1215 -0.2038
19358W        W36205  11.390   5.826  10.852 -0.1965 -0.1164 -0.0073
19359W        W36206  14.203   1.205  10.247  0.0264  0.2597  0.1987
19360W        W36207  15.699  10.950  12.507 -0.2089  0.0006 -0.0113
19361W        W36208   6.695   1.269   3.708 -0.0338 -0.3783 -0.0134
19362W        W36209   1.204  14.083  14.208  0.1423  0.1016 -0.0773
19363W        W36210  17.835   6.851  14.881  0.0621  0.2840  0.2888
19364W        W36211   4.769   7.471   0.611 -0.2581  0.0576  0.0164
19365W        W36212  11.364  11.134   1.081  0.2207  0.0068 -0.0397
19366W        W36213   5.218   5.798   0.627 -0.0334  0.0956 -0.1016
19367W        W36214   8.724   8.073  10.560 -0.0504 -0.1210 -0.4727
19368W        W36215   5.149   6.362   4.067  0.2169 -0.1648 -0.0178
19369W        W36216  17.462   2.844  15.359 -0.2093  0.0650  0.3130
19370W        W36217  14.914   8.525  14.671  0.0494 -0.5243  0.2224
19371W        W36218  16.732  14.779   0.490 -0.3963 -0.0666 -0.0154
19372W        W36219   0.663   1.805   5.481  0.1408  0.0912  0.0662
19373W        W36220   3.064  15.216   2.985  0.3606 -0.0816  0.1441
19374W        W36221  17.652   4.933  12.666 -0.3304  0.1228 -0.0851
19375W        W36222   1.242   3.595   2.975 -0.2066  0.0329 -0.0896
19376W        W36223   0.617  17.758  12.531 -0.0940  0.1726 -0.0096
19377W        W36224   7.975  17.920   4.869 -0.0760 -0.0744  0.1389
19378W        W36225  17.403   8.387   0.688 -0.0676 -0.0517 -0.0437
19379W        W36226   0.410   2.304   2.168  0.2238  0.1424  0.0353
19380W        W36227  16.461  14.327   3.689 -0.4647 -0.2218  0.1865
19381W        W36228   1.561  18.590  11.424  0.2031  0.1416 -0.4227
19382W        W36229  16.208  15.776  11.485  0.3858  0.1068  0.4612
19383W        W36230   0.310  13.813   2.449 -0.1557 -0.0838 -0.0799
19384W        W36231   2.785  10.509   3.914 -0.2647 -0.1293 -0.0857
19385W        W36232  11.993  12.413   0.039  0.0010  0.0228 -0.2312
19386W        W36233  17.868   1.661  14.272 -0.2555 -0.0600  0.1241
19387W        W36234   6.121  13.815   3.814  0.2371  0.2306 -0.1971
19388W        W36235  16.339  17.146   1.135 -0.2173 -0.5909  0.0976
19389W        W36236  17.666   5.769  11.533 -0.2193  0.3543 -0.1058
19390W        W36237   7.441  11.382   1.403 -0.1531  0.1488  0.1466
19391W        W36238   9.955   8.609   3.390 -0.1542 -0.1883 -0.0879
19392W        W36239  16.533  18.710   0.145 -0.1217  0.3364 -0.2181
19393W        W36240   5.452   4.678   1.300  0.2099  0.0044 -0.0249
19394W        W36241   7.954  11.771  12.271 -0.0007 -0.3040 -0.3182
19395W        W36242  10.251  11.310   0.299  0.0313  0.1655 -0.1352
19396W        W36243   6.692   4.478   5.482 -0.1048  0.1019  0.1343
19397W        W36244   4.637   1.572   3.773 -0.0513  0.0751  0.0159
19398W        W36245   6.538  18.004   3.443  0.3256  0.0739 -0.0869
19399W        W36246  11.097   0.403   3.225 -0.1297 -0.1797 -0.1131
19400W        W36247  15.115   3.372   1.216  0.2803  0.0466 -0.0538
19401W        W36248   7.153   1.055  13.502  0.0697 -0.1243 -0.1362
19402W        W36249   8.820   3.767   4.004  0.2737  0.2404 -0.1821
19403W        W36250   8.747  12.308   2.789 -0.3299  0.0404 -0.0134
19404W        W36251   1.505  14.412   1.497 -0.0108  0.3295  0.0901
19405W        W36252  18.012  17.258   3.196 -0.1404 -0.2693  0.2745
19406W        W36253   4.910  14.910   3.631 -0.0958 -0.3997 -0.1151
19407W        W36254   7.679   0.593   0.549  0.1430 -0.1259  0.0316
19408W        W36255   7.641   4.958   4.809 -0.2363 -0.0048  0.1176
19409W        W36256  11.452  18.479   5.585  0.1731 -0.2158 -0.2553
19410W        W36257  14.535   3.552  11.417  0.1575  0.3288  0.0875
19411W        W36258  18.079  11.603  10.811  0.0664  0.0537 -0.2922
19412W        W36259  10.528   2.470  13.619 -0.5459 -0.0062  0.2119
19413W        W36260   8.712   2.774  11.434  0.0363  0.2534  0.3095
19414W        W36261   6.451  16.320   4.332  0.1012 -0.4043  0.1518
19415W        W36262  15.212   6.180  14.164 -0.1441 -0.0944  0.1452
19416W        W36263  18.272   7.498  13.109 -0.0321  0.0530 -0.2968
19417W        W36264   5.767  17.045  11.055 -0.0390 -0.0143 -0.1795
19418W        W36265   6.525  14.916   0.043 -0.2994 -0.1180  0.0173
19419W        W36266   1.531  17.491  12.171  0.3229 -0.0561  0.1435
19420W        W36267  18.142   1.929   4.188 -0.1979  0.0893 -0.0919
19421W        W36268   5.858  17.371  12.450 -0.1200  0.2977  0.1357
19422W        W36269  17.526  16.762  11.958  0.2280 -0.1201 -0.3875
19423W        W36270   4.131  18.267  12.226 -0.2690 -0.0731  0.2167
19424W        W36271  14.987   6.680  12.045  0.1994 -0.0740  0.3277
19425W        W36272   3.628  14.150  14.612  0.4852  0.0933  0.1444
19426W        W36273   4.445  12.995   0.518 -0.2342 -0.3383 -0.0093
19427W        W36274  12.483   9.544  12.182 -0.3408 -0.0886 -0.0651
19428W        W36275   0.182  16.792  13.345 -0.1438  0.2099  0.1041
19429W        W36276  18.177   3.320  13.831  0.1389  0.1686 -0.2450
19430W        W36277   2.565   5.419   1.647  0.0263 -0.3995 -0.1048
19431W        W36278   7.090  13.962  14.265 -0.2204  0.2970  0.2169
19432W        W36279   1.282   4.071   4.301 -0.0887 -0.1352  0.0594
19433W        W36280  16.274   0.683   2.947 -0.4932 -0.1009  0.1410
19434W        W36281  15.869  16.663  14.853 -0.1831 -0.1314  0.1402
19435W        W36282  13.380   6.134  12.247 -0.0855 -0.1816  0.3581
19436W        W36283  11.664   8.057   1.116 -0.1657  0.2912 -0.4107
19437W        W36284   5.678  12.171   4.406 -0.0899 -0.1729  0.0175
19438W        W36285   9.016   6.818  14.736 -0.1802  0.1418  0.0433
19439W        W36286   4.309  14.391   0.899 -0.0971  0.0991 -0.2184
19440W        W36287  12.347   0.443   3.715  0.0347  0.1667 -0.4029
19441W        W36288   8.038  17.226  11.195  0.1347 -0.1138 -0.2828
19442W        W36289  18.730   7.361   6.049  0.0120 -0.1093  0.2547
19443W        W36290   9.036   1.089   4.575  0.0550 -0.4072  0.2425
19444W        W36291   1.334   3.391  12.616  0.0004 -0.1633 -0.3195
19445W        W36292  11.584  10.536  11.909 -0.1752 -0.1949 -0.0730
19446W        W36293   8.692  13.464   0.919  0.1285  0.1953 -0.1681
19447W        W36294  11.682   7.477  13.868 -0.0842  0.0022 -0.1262
19448W        W36295   0.633   7.454   4.890 -0.0779  0.2226  0.1845
19449W        W36296   0.489   0.656   0.882  0.1160 -0.1810 -0.2075
19450W        W36297   1.838  12.562   2.043  0.1191  0.2300 -0.0174
19451W        W36298   2.797   2.038   4.199  0.0655  0.3659  0.1331
19452W        W36299   0.969  16.825  13.488 -0.0917  0.2156  0.1516
19453W        W36300  13.097  16.318   0.248  0.0592 -0.2096 -0.0153
19454W        W36301  15.722   0.739   0.735 -0.2019  0.0321 -0.1321
19455W        W36302   5.178  12.451   0.176  0.0380 -0.0016  0.2969
19456W        W36303  13.247   5.797   1.172  0.1995  0.0367 -0.1199
19457W        W36304  16.725  15.449   3.349 -0.0658 -0.1083  0.0501
19458W        W36305   1.213   1.450   0.051  0.2034 -0.3334  0.1677
19459W        W36306   4.765  15.407   2.413 -0.0241 -0.0315  0.2500
19460W        W36307  11.617  11.085   2.995  0.0344  0.0109  0.0375
19461W        W36308  14.790   6.384   5.481  0.2089  0.0615 -0.1063
19462W        W36309   2.960  16.260  12.169  0.1085  0.3552  0.2603
19463W        W36310  14.928   7.707  12.890 -0.1683  0.3463 -0.1157
19464W        W36311   3.314  16.868   5.279 -0.0839  0.0838 -0.2767
19465W        W36312   4.805   1.287   3.371  0.0094 -0.3906 -0.0329
19466W        W36313   2.846  15.568  15.037 -0.3712 -0.2572  0.3035
19467W        W36314   7.098  17.319  10.519  0.0413  0.1833  0.1512
19468W        W36315   4.407   6.145   0.577 -0.2230  0.4816  0.0265
19469W        W36316   7.442   2.497  11.529  0.0235 -0.0905 -0.2327
19470W        W36317   9.868  17.818  11.009 -0.1436  0.0073  0.2910
19471W        W36318   7.401  15.936   3.948 -0.0322 -0.1835 -0.1524
19472W        W36319   1.171  15.189   1.868 -0.0720 -0.1501  0.0191
19473W        W36320  12.277  12.473   5.619 -0.3659  0.0361 -0.1266
19474W        W36321   6.009  18.049   4.626 -0.1865  0.1929 -0.0489
19475W        W36322  15.930   0.556   2.603 -0.0888  0.1735  0.1953
19476W        W36323   7.718   6.950   3.986  0.0568 -0.1196 -0.0408
19477W        W36324  16.673  12.154  14.049  0.1798  0.0319 -0.2808
19478W        W36325   3.669   4.888   2.179  0.3238  0.1552  0.0509
19479W        W36326  12.256  14.681  15.480 -0.0892 -0.0167  0.3130
19480W        W36327   6.476   8.181   4.805 -0.0986  0.1076  0.0887
19481W        W36328   2.462  10.100   4.833  0.1066 -0.1176  0.0451
19482W        W36329   5.704  14.675  13.116  0.0905 -0.2759 -0.2219
19483W        W36330   7.470   5.682   3.728 -0.4076  0.0329  0.1341
19484W        W36331   4.357   4.063  11.845  0.0472 -0.3013 -0.1620
19485W        W36332   4.737   3.820   4.678 -0.2005  0.3797 -0.1093
19486W        W36333   8.142   2.956   0.887 -0.0610  0.0062 -0.0919
19487W        W36334   0.086  17.192  12.206 -0.1941 -0.0864  0.0952
19488W        W36335  18.234  15.005  11.393  0.2233 -0.4031 -0.1985
19489W        W36336   4.577  14.212   1.318 -0.3130 -0.2150  0.0510
19490W        W36337   0.958  18.082   1.350  0.0652 -0.3068  0.1242
19491W        W36338  16.953  17.583  13.247 -0.0683 -0.0307  0.0290
19492W        W36339   8.218  13.330  10.487 -0.1091 -0.1149 -0.0836
19493W        W36340  15.680   2.521   4.890  0.1037 -0.2062  0.0332
19494W        W36341   8.467   6.700  13.689 -0.0354 -0.3426  0.0920
19495W        W36342  12.359  15.869   4.963  0.0623  0.0276 -0.1310
19496W        W36343   1.913  10.948   1.592  0.1785 -0.0002  0.2248
19497W        W36344   1.781  16.830  12.311 -0.0843 -0.0395 -0.0447
19498W        W36345   3.755   3.157  13.913  0.0585  0.0452 -0.0288
19499W        W36346  14.878  14.629  13.152 -0.0561 -0.1109  0.1212
19500W        W36347   9.387   2.152   1.988  0.2201  0.0251  0.0013
19501W        W36348   6.189   3.783   1.269 -0.1138  0.2481 -0.3180
19502W        W36349   7.287  11.424   1.906  0.0863  0.1802  0.1307
19503W        W36350  15.993  14.760   3.520  0.1036 -0.0230 -0.0148
19504W        W36351  11.092  17.049  11.890 -0.3779  0.0331  0.1398
19505W        W36352  16.861  18.010   5.255 -0.0082 -0.0425 -0.1001
19506W        W36353  13.266  12.373   2.524 -0.1444 -0.4080 -0.0847
19507W        W36354   5.230   1.639   3.179 -0.0905  0.1864  0.0405
19508W        W36355   5.518  14.795  14.897 -0.2519 -0.0218  0.1722
19509W        W36356   3.208   7.519  14.857 -0.2078  0.0467  0.1909
19510W        W36357  12.017  14.770  14.007 -0.0427 -0.0199  0.1864
19511W        W36358  12.321   4.920  12.511 -0.0305  0.1183 -0.0460
19512W        W36359   5.626  16.634  10.708 -0.1809  0.2309  0.0672
19513W        W36360   4.341   6.833   3.156  0.3833 -0.2507  0.1715
19514W        W36361   0.256   7.537   0.233  0.0773 -0.0769 -0.2237
19515W        W36362   7.154  10.087   4.713 -0.0618  0.2473 -0.1591
19516W        W36363  13.399   6.812  14.185  0.2510 -0.0643  0.0106
19517W        W36364  14.209   0.214   4.810  0.3488  0.3324 -0.0619
19518W        W36365   5.920  14.836   1.688 -0.0334 -0.0854  0.3141
19519W        W36366   9.984   2.536  14.635 -0.0316 -0.0064 -0.0903
19520W        W36367  16.691  11.716  12.929 -0.1014 -0.1215  0.0203
19521W        W36368   6.386   4.452  11.076  0.0090 -0.1420 -0.0128
19522W        W36369  15.717   3.993   4.846 -0.3379 -0.0831  0.1049
19523W        W36370  17.202   9.686  11.729  0.0775 -0.0002  0.2476
19524W        W36371   7.843   3.668   5.936 -0.2695  0.2081  0.1958
19525W        W36372   0.302   4.338  15.731 -0.0297  0.3067  0.0100
19526W        W36373   4.848   3.151   1.760 -0.2243 -0.3951  0.0532
19527W        W36374  10.183  14.503   0.122  0.0672  0.2017  0.4220
19528W        W36375  10.954   4.187   2.163 -0.2147  0.0913  0.3590
19529W        W36376   7.986   0.240   1.723 -0.0233 -0.0262  0.2034
19530W        W36377   7.429   7.639  11.946  0.0018  0.0384 -0.0727
19531W        W36378   4.487   7.896  14.488 -0.2267 -0.4178  0.1276
19532W        W36379   4.647   1.165   4.644 -0.0673  0.0001  0.0175
19533W        W36380  10.867  14.907   0.939  0.1183 -0.0376 -0.3185
19534W        W36381  12.209  18.159  15.305  0.1652 -0.1570 -0.0499
19535W        W36382   1.074  14.136   0.335 -0.1638  0.0407  0.1392
19536W        W36383  16.019  18.614  15.267  0.3223  0.0286 -0.3702
19537W        W36384  11.257   4.948  12.751  0.1963 -0.0426  0.0465
19538W        W36385   2.205   8.577   1.902 -0.2015 -0.0206  0.0213
19539W        W36386  14.612   3.948   0.206 -0.1469 -0.1851 -0.3108
19540W        W36387   5.218  12.064   3.177 -0.1650 -0.0105 -0.1458
19541W        W36388   4.709   5.102  12.746 -0.2460  0.0747  0.1512
19542W        W36389   3.110  14.959   3.910  0.0933 -0.2002  0.0215
19543W        W36390  15.573   8.123  11.695  0.1532  0.1802 -0.4942
19544W        W36391  10.611   4.091   4.499  0.2033 -0.2626 -0.1608
19545W        W36392   8.371   1.441  11.459 -0.0667  0.0749 -0.2711
19546W        W36393  12.089   7.529  12.566 -0.1073 -0.2268 -0.3872
19547W        W36394   9.699  16.953   3.194  0.0156  0.0115  0.0032
19548W        W36395   0.414  14.079  12.547  0.1231 -0.3700  0.1650
19549W        W36396   4.209  16.809   2.420  0.0021 -0.1672 -0.0610
19550W        W36397  15.879   6.470   0.581 -0.0402  0.2388  0.1000
19551W        W36398   6.546  13.010  10.385 -0.3581  0.3463 -0.2380
19552W        W36399  14.373   1.381  14.176 -0.1616  0.0631  0.0695
19553W        W36400   7.103   9.787   0.334  0.0302 -0.3333 -0.1191
19554W        W36401   2.908   0.527   3.190  0.3189  0.1967  0.0180
19555W        W36402   6.103  17.955  11.278 -0.2532  0.3152  0.1998
19556W        W36403  10.719  11.912  13.272  0.0975  0.0418  0.0216
19557W        W36404   5.722   2.260   3.722  0.3540 -0.1577  0.0090
19558W        W36405  18.864   4.386   4.797 -0.2984  0.1587  0.0947
19559W        W36406  10.944  10.271  11.058  0.1322  0.1563  0.0046
19560W        W36407  16.539  12.359   4.546  0.3007  0.2036  0.0319
19561W        W36408  11.123   1.358   3.509  0.0051 -0.0372 -0.0128
19562W        W36409   4.984   9.364   1.128  0.2013  0.2493 -0.0447
19563W        W36410   9.575   3.640   2.671  0.0901  0.0533  0.2085
19564W        W36411  10.457  14.319  10.941 -0.2810 -0.1894  0.0249
19565W        W36412  18.751  16.105   4.298 -0.2335  0.0057 -0.2154
19566W        W36413   5.977  18.543  12.032  0.3187  0.0826  0.2022
19567W        W36414   5.844  13.489   4.187  0.2037 -0.2472 -0.1993
19568W        W36415  18.698   1.068  11.740 -0.3351  0.0582  0.4164
19569W        W36416   6.694  18.487  13.354  0.0799  0.2226  0.2920
19570W        W36417  17.307   8.395   4.209  0.0017 -0.0682 -0.2687
19571W        W36418  12.844   6.403  12.153  0.3092  0.2742 -0.1039
19572W        W36419   3.925   4.322   1.117  0.1932  0.1692 -0.1526
19573W        W36420   4.803   8.252  14.233  0.0074 -0.1990  0.1521
19574W        W36421  11.740   0.286  12.722 -0.0376 -0.2097  0.0763
19575W        W36422   2.640   9.296  14.428  0.0454 -0.1525 -0.0807
19576W        W36423   1.568  10.593   2.300 -0.0633 -0.2140  0.0563
19577W        W36424   1.678  10.203  13.549  0.1993 -0.0009 -0.1961
19578W        W36425  12.084   2.245   4.694  0.5474  0.0782 -0.2531
19579W        W36426   0.585  13.253   5.210  0.2292  0.0268  0.0606
19580W        W36427  14.543   5.347  12.586 -0.0643  0.1772 -0.0460
19581W        W36428  14.346  18.455  12.222 -0.2120 -0.2752  0.1524
19582W        W36429  14.258  15.763   4.342 -0.3396 -0.1708  0.1159
19583W        W36430  11.822  10.303   0.624 -0.0366  0.1029  0.0422
19584W        W36431  12.852   4.785   1.752  0.3266  0.3410  0.0883
19585W        W36432  11.233   9.087  13.383  0.4139 -0.1296 -0.3126
19586W        W36433   2.990   4.097   3.375 -0.2014  0.1273  0.0804
19587W        W36434   0.529   6.571  11.590 -0.0977  0.1619  0.1092
19588W        W36435   8.427  12.381  13.492  0.1535  0.0643  0.1420
19589W        W36436   9.622   3.406  14.519  0.1941 -0.2411 -0.1875
19590W        W36437  17.019   8.206   4.605 -0.1235  0.0083 -0.2037
19591W        W36438  10.781  18.692  12.172  0.2761 -0.0025  0.1361
19592W        W36439  15.388  14.138   0.337 -0.0158 -0.0910  0.2073
19593W        W36440  17.572   6.756   0.866  0.0042 -0.0582  0.0318
19594W        W36441  12.109  10.075  10.797  0.1004  0.2571 -0.3500
19595W        W36442   8.956  11.619  15.447 -0.2905  0.0194  0.0893
19596W        W36443   2.933  11.516   0.969 -0.6261  0.0597  0.2671
19597W        W36444   0.265  16.442  11.340 -0.3872  0.1669 -0.0410
19598W        W36445  12.122  12.868   4.400  0.1906 -0.2754  0.0812
19599W        W36446  18.715   1.415  14.015  0.0965 -0.2296 -0.0654
19600W        W36447   7.163   2.412   5.584  0.2140  0.2285 -0.0408
19601W        W36448  17.479  18.744   3.279 -0.1754 -0.1843  0.1270
19602W        W36449   7.707  12.560  11.006  0.1570  0.3129 -0.1314
19603W        W36450   6.051  15.894   4.130  0.0280 -0.0119  0.1526
19604W        W36451  16.368   0.380   4.994 -0.1431  0.0666  0.1975
19605W        W36452   1.053   7.925   5.515 -0.1900 -0.1015 -0.0064
19606W        W36453   4.868  18.106   3.863  0.1418 -0.0884  0.2437
19607W        W36454  11.520   8.723   2.295 -0.0672 -0.0639  0.0738
19608W        W36455   6.173  15.044  15.512 -0.0735 -0.2675 -0.0821
19609W        W36456   7.314  12.991   0.230  0.5377  0.1553  0.2414
19610W        W36457   3.361   4.433   3.827  0.0308  0.0096 -0.0297
19611W        W36458   4.084   6.366   0.325  0.2295  0.2757 -0.0502
19612W        W36459   6.153  13.698  14.946 -0.2670 -0.1123  0.2607
19613W        W36460   3.503  13.942  12.217 -0.2626 -0.0031 -0.3694
19614W        W36461  12.815  15.413  10.660 -0.0698  0.0030 -0.3648
19615W        W36462   6.825   7.256   4.075  0.3854  0.1499 -0.1255
19616W        W36463  14.001   4.795   4.551 -0.1168  0.0684 -0.0662
19617W        W36464  15.731   6.629  13.284  0.0128 -0.0202 -0.0351
19618W        W36465   0.056  12.073   1.158  0.1407  0.1240 -0.0922
19619W        W36466  10.655  14.327   3.017 -0.2351  0.4269 -0.4781
19620W        W36467  16.527   8.721   0.617 -0.0085 -0.0873  0.0817
19621W        W36468  15.963   1.224   0.014 -0.0756  0.1973 -0.0391
19622W        W36469  14.472  14.009   2.543  0.1732 -0.2609  0.0036
19623W        W36470   5.912  16.733   2.558  0.0558 -0.1129 -0.0777
19624W        W36471  17.924   7.589  13.430  0.1563 -0.0213 -0.3573
19625W        W36472   8.155   2.688  15.472  0.1463 -0.1599 -0.2434
19626W        W36473   8.027  15.678  11.075  0.3331  0.0494 -0.1918
19627W        W36474  14.370   6.926  12.977  0.1104  0.0900  0.0491
19628W        W36475   6.512  17.035   0.531 -0.3715 -0.3960 -0.4475
19629W        W36476   4.046   1.828   0.713 -0.1126  0.3025  0.4627
19630W        W36477  13.241  16.472   0.695 -0.0147 -0.0856  0.1249
19631W        W36478   1.950  11.310  14.911 -0.0737  0.2038  0.0173
19632W        W36479  15.102  15.295   3.850 -0.0157  0.0397 -0.2307
19633W        W36480  16.140   6.016  13.941  0.2406  0.2733  0.0314
19634W        W36481  12.448   2.687  10.953  0.0818  0.1628 -0.2744
19635W        W36482   1.827   5.058   4.275  0.0424 -0.1022  0.0880
19636W        W36483  15.658   0.751  15.552  0.3290 -0.1935 -0.0163
19637W        W36484   9.145  16.104  13.155 -0.2972 -0.1225  0.0048
19638W        W36485   0.931  18.486   1.749  0.3318 -0.2577 -0.1698
19639W        W36486   4.153  12.341   1.116  0.0019 -0.0388 -0.0758
19640W        W36487   4.942  10.207  14.895  0.0859  0.0554 -0.0307
19641W        W36488   1.387  14.169  15.636 -0.2139  0.1148  0.5477
19642W        W36489  15.027   2.324  11.020  0.0426  0.0567  0.2427
19643W        W36490  10.809   5.159  13.971  0.1160  0.1536 -0.0295
19644W        W36491  17.103   0.947   5.465  0.2157 -0.2002 -0.1723
19645W        W36492  17.709   4.365   3.371  0.0593 -0.0443 -0.0968
19646W        W36493  17.103  16.541  12.717 -0.0927 -0.1507 -0.0087
19647W        W36494  14.700   1.199   4.819 -0.2824  0.1250 -0.1773
19648W        W36495  16.663  17.775   0.263 -0.0577 -0.0060  0.0091
19649W        W36496   3.498  17.168   4.095 -0.1365 -0.1101  0.2722
19650W        W36497   5.159  17.827   2.165  0.0319  0.3787 -0.2623
19651W        W36498   2.667  12.190  11.033  0.1612  0.1067  0.2005
19652W        W36499  18.425   8.335   5.630  0.1133 -0.1864 -0.4356
19653W        W36500   4.582  11.751   2.984 -0.0829  0.0015 -0.0055
19654W        W36501  11.829  12.408  12.636  0.1657  0.2758  0.1677
19655W        W36502   6.322   9.736  12.372 -0.1665 -0.0258  0.2600
19656W        W36503   1.864   8.033   2.189 -0.0721  0.1817 -0.1016
19657W        W36504   6.259  11.025  10.662 -0.1958  0.1630 -0.1318
19658W        W36505  16.972   9.835  13.055  0.2171 -0.2485  0.0742
19659W        W36506  12.750  14.243  11.775  0.2623 -0.0677 -0.1276
19660W        W36507   7.185   1.230  11.917 -0.2144  0.1073  0.1157
19661W        W36508   3.520  10.525  12.694 -0.1810  0.1379  0.0106
19662W        W36509  11.232   5.585   4.280  0.4634  0.2460  0.1583
19663W        W36510  12.894   1.113  13.937 -0.0481  0.1544  0.0233
19664W        W36511   6.620   3.075   2.944 -0.1147 -0.0298  0.0467
19665W        W36512  11.204   2.756  13.217 -0.0875  0.1850 -0.0091
19666W        W36513  10.348   3.532  11.509  0.2530  0.0147 -0.2086
19667W        W36514   3.705  17.988   4.384 -0.0956  0.1328 -0.1607
19668W        W36515   5.132   7.633  13.526 -0.1423 -0.1730 -0.3248
19669W        W36516   7.050   9.335   2.447  0.1137  0.0242  0.1027
19670W        W36517  10.027   5.061   0.269  0.1818  0.1784 -0.0618
19671W        W36518   8.004   0.924   2.371 -0.3211  0.1017 -0.0592
19672W        W36519   5.386  16.129   0.762  0.0199 -0.1834  0.2325
19673W        W36520   6.021   0.694  13.458  0.2455  0.2504  0.3360
19674W        W36521  14.399  11.123   3.774 -0.2309  0.1687  0.1044
19675W        W36522   5.052   6.818   1.140 -0.2270 -0.0263  0.2804
19676W        W36523  17.435   8.674   6.177 -0.1789  0.0262  0.1979
19677W        W36524   7.103   2.599   2.202  0.0456 -0.0070 -0.1211
19678W        W36525  16.004  11.591   2.734 -0.2691 -0.4066  0.1659
19679W        W36526   0.035  18.392  12.435 -0.1916  0.3109  0.1396
19680W        W36527  11.760   4.373   2.424 -0.1463 -0.1957  0.0609
19681W        W36528   0.978  16.911  15.083  0.0785  0.4902  0.0503
19682W        W36529  14.654  16.676   0.716  0.2592 -0.2141  0.1989
19683W        W36530   6.304  17.975  14.697  0.3560 -0.1220 -0.2388
19684W        W36531  16.057   1.935  12.199  0.0461  0.3607 -0.0070
19685W        W36532   7.506   6.647  11.616  0.0515 -0.1913  0.1279
19686W        W36533  17.628   1.946   2.796 -0.2362  0.1614 -0.4707
19687W        W36534   3.280   1.525   5.031 -0.1304 -0.0693  0.0410
19688W        W36535  10.924  12.956   0.369 -0.2718 -0.2407  0.1513
19689W        W36536   9.422   2.661  14.458 -0.1744 -0.0604 -0.0168
19690W        W36537   6.221  16.684  10.101 -0.1569 -0.1307 -0.1485
19691W        W36538  13.174   9.379  10.833 -0.1418  0.1033 -0.2256
19692W        W36539   3.382   1.252   2.086  0.0025  0.0987  0.1761
19693W        W36540   2.155   2.555  12.873  0.1510  0.0314  0.4264
19694W        W36541  17.393  15.635   0.851 -0.0605 -0.0748  0.1373
19695W        W36542  14.959   8.476   6.065  0.0238 -0.3306  0.4078
19696W        W36543   9.387   6.655   1.991 -0.0642 -0.2343 -0.1662
19697W        W36544  17.952   8.720   1.362 -0.3098  0.1389  0.0715
19698W        W36545  11.935   8.314   2.347  0.0735  0.4023  0.0929
19699W        W36546  16.998   8.119  11.563 -0.0911 -0.1388  0.4151
19700W        W36547  11.622  11.360  11.383  0.1111 -0.0077 -0.0335
19701W        W36548   6.218  11.749  13.536  0.5646 -0.1167 -0.0540
19702W        W36549   1.601  15.885  11.656  0.1030  0.0011 -0.0384
19703W        W36550   9.870  15.063   4.219 -0.2213 -0.0958 -0.1259
19704W        W36551   7.973  17.005  14.187  0.0772 -0.1602  0.1792
19705W        W36552  16.738   5.838   1.381 -0.0080  0.1170  0.2042
19706W        W36553   3.399  11.415   3.361 -0.0304 -0.0224  0.0472
19707W        W36554   6.995  14.231   4.330 -0.1326 -0.5471  0.1653
19708W        W36555   6.880  10.532   2.704 -0.0636 -0.2794 -0.1856
19709W        W36556   7.679   0.070  11.228  0.0912 -0.2010  0.0688
19710W        W36557   2.266   9.983   0.798  0.0156  0.1859 -0.1127
19711W        W36558   7.340  15.227  14.169  0.0786 -0.1811  0.0366
19712W        W36559  16.478  10.877  13.771 -0.0913  0.3831  0.1478
19713W        W36560   9.880  15.107   0.652 -0.0040  0.0102  0.0779
19714W        W36561  12.649   7.441  12.788  0.3278  0.0657 -0.1019
19715W        W36562   6.965  12.217   1.990  0.4793  0.0001  0.0729
19716W        W36563  17.832  14.233   2.199  0.0654  0.0155  0.4646
19717W        W36564  10.776  10.070   4.418 -0.4949 -0.4212  0.2245
19718W        W36565   7.591   9.049   3.412  0.0718 -0.0279 -0.1627
19719W        W36566   3.359  16.004   2.895  0.1495 -0.3043 -0.0601
19720W        W36567   2.278  12.103  14.165  0.0861 -0.0602  0.3227
19721W        W36568   6.746   8.134   4.067  0.5382 -0.0533  0.1025
19722W        W36569   1.572  10.365   0.256  0.2454 -0.0385  0.2484
19723W        W36570  14.464   8.244  12.306  0.2436 -0.5191 -0.0261
19724W        W36571  15.323  15.383   2.380  0.0473  0.2570  0.1305
19725W        W36572   7.932   4.141   1.652  0.0941 -0.1517  0.1069
19726W        W36573  15.432  13.825   5.191 -0.2825 -0.1866 -0.0967
19727W        W36574   2.922   6.373  15.643  0.0946 -0.1356 -0.0098
19728W        W36575  16.884  16.126  12.515 -0.1640 -0.0929 -0.0569
19729W        W36576  11.788   6.477  15.303 -0.0741  0.1220 -0.1761
19730W        W36577  13.554   4.572  14.125 -0.1596 -0.3325 -0.2026
19731W        W36578  17.668   0.777   2.246 -0.3712  0.3025  0.2579
19732W        W36579  11.079   5.911  14.086 -0.3614  0.0113 -0.0742
19733W        W36580  14.087   7.477   2.874  0.2391 -0.1806 -0.0369
19734W        W36581  17.107   8.634   4.968 -0.2963 -0.1149 -0.0287
19735W        W36582  10.121   9.172  10.979 -0.0256  0.0988  0.0015
19736W        W36583  14.178  15.151   1.811 -0.2026  0.1644 -0.4229
19737W        W36584  11.408  13.593  13.092 -0.2921 -0.1670  0.1617
19738W        W36585  15.105   8.780  13.623  0.1865 -0.1508  0.3362
19739W        W36586   4.268   2.554   2.434  0.1061  0.3060  0.0461
19740W        W36587   7.553   5.775  15.253 -0.0123  0.0383 -0.0927
19741W        W36588  13.469   7.094  12.074  0.2367 -0.0728  0.1979
19742W        W36589   5.104   7.369   4.312 -0.1286  0.1840 -0.1585
19743W        W36590  10.980   7.756   3.376  0.1643  0.0082 -0.0572
19744W        W36591   6.417  15.626  11.239 -0.2010 -0.3336  0.0184
19745W        W36592  12.404  11.608   2.029  0.1633  0.2576 -0.0739
19746W        W36593   2.184  16.330   4.376  0.1405  0.0983 -0.3251
19747W        W36594   0.362   9.202  13.738  0.0694  0.0014 -0.3297
19748W        W36595   7.587   6.033   1.336 -0.1136 -0.0882  0.3505
19749W        W36596  13.528   7.159  15.431 -0.2782  0.0654 -0.1219
19750W        W36597   7.491  11.705   4.594  0.2614  0.1185 -0.0376
19751W        W36598  13.339  17.417   0.230 -0.3116  0.0383  0.1908
19752W        W36599  16.117   7.072   0.851  0.0652  0.0371 -0.0993
19753W        W36600  13.888   0.912   4.508 -0.3502  0.3450 -0.0518
19754W        W36601   2.711  10.409   1.437 -0.1067  0.5899  0.5233
19755W        W36602  14.969   1.835  12.955 -0.3129 -0.1225 -0.0641
19756W        W36603  12.663  13.462  11.428 -0.0955 -0.3210 -0.0502
19757W        W36604   5.607   5.929   0.342 -0.0402  0.1366 -0.0972
19758W        W36605  15.541  10.283  11.748 -0.0825  0.1406  0.0571
19759W        W36606  16.202   7.625   4.637  0.1911  0.0777  0.2395
19760W        W36607  18.469   3.491  15.044 -0.2949  0.1584  0.0718
19761W        W36608  12.510   6.375  13.238  0.0863  0.5706  0.1450
19762W        W36609  15.147  13.872   4.560 -0.0334  0.0842 -0.0836
19763W        W36610  12.630  11.604  14.404 -0.2804 -0.1425 -0.1714
19764W        W36611  18.086   3.653  11.439 -0.4051 -0.2461 -0.2832
19765W        W36612  13.423   8.787   4.629 -0.0756 -0.1993 -0.0156
19766W        W36613  14.167   6.375  15.520 -0.0759 -0.0336 -0.0128
19767W        W36614   2.694  10.342   5.249  0.0080 -0.7675 -0.1434
19768W        W36615   1.294   3.852  13.044 -0.0305  0.4399  0.3679
19769W        W36616  16.352  16.875   1.593  0.1791 -0.0307 -0.1858
19770W        W36617   4.737   4.349  11.822  0.1545 -0.1328  0.0787
19771W        W36618  16.512  14.310   2.821 -0.2604  0.2295  0.0705
19772W        W36619  17.783   1.437  12.219 -0.3131  0.0758  0.1222
19773W        W36620   7.219   6.228  11.876  0.1137  0.1357 -0.3234
19774W        W36621   5.374  14.971   4.055 -0.0286 -0.0867 -0.0003
19775W        W36622  10.125  13.364   4.523  0.2143  0.0815  0.0206
19776W        W36623   3.982   3.610  10.731 -0.1188  0.4214  0.1995
19777W        W36624  18.489  18.551  11.134 -0.0544  0.4263  0.3198
19778W        W36625   9.993   6.894  10.903  0.0874 -0.0192 -0.0237
19779W        W36626   0.273   7.390   3.009 -0.1355  0.0754 -0.0379
19780W        W36627  17.627   4.562   6.441 -0.1879 -0.0645  0.3536
19781W        W36628   4.169   4.114   4.574  0.1228 -0.0541  0.4360
19782W        W36629   6.488   0.737  15.141  0.1148 -0.1176  0.1251
19783W        W36630   9.579   1.682   4.384 -0.0988 -0.3195  0.1589
19784W        W36631  17.766   1.041  13.054 -0.0753  0.0708 -0.1541
19785W        W36632  17.377  16.138  13.233  0.1580 -0.2069  0.0632
19786W        W36633   8.522  11.729   4.516 -0.2980  0.0204 -0.1660
19787W        W36634  11.161  15.053   4.730  0.1968 -0.0013 -0.0993
19788W        W36635  13.264  10.133  12.692  0.1576 -0.0033  0.1723
19789W        W36636   6.255  12.040  15.038  0.1316  0.1716 -0.3432
19790W        W36637  18.239   9.191   2.727 -0.2533 -0.0620  0.0406
19791W        W36638  17.699  10.650   3.748  0.2055 -0.2044  0.2527
19792W        W36639  12.944   4.778   0.900 -0.0040  0.0347 -0.3050
19793W        W36640  18.205  16.628  10.798  0.1240  0.2142  0.0889
19794W        W36641  13.549  13.246  14.855  0.2567 -0.1786 -0.1601
19795W        W36642  14.667  14.978   1.918  0.3995 -0.2153 -0.0611
19796W        W36643   4.471  13.908   9.587  0.4187 -0.1689  0.0621
19797W        W36644  16.871  14.261  14.561  0.0776 -0.0505 -0.1679
19798W        W36645   2.745   4.200   1.766  0.1643 -0.0873  0.2785
19799W        W36646   2.404  11.542  12.069 -0.3440  0.1365 -0.1622
19800W        W36647   5.101  16.176  14.575  0.2496 -0.0949 -0.0326
19801W        W36648   6.035  15.764  11.747  0.0204  0.2353 -0.0340
19802W        W36649  15.812  13.801   1.411 -0.1020 -0.0560  0.0196
19803W        W36650  11.250   2.572   2.621  0.0517 -0.3190  0.3839
19804W        W36651  14.527   5.229   1.967 -0.0427 -0.0109  0.2227
19805W        W36652   6.084  11.373  15.495 -0.0045  0.0336  0.1720
19806W        W36653   5.334  16.947   1.433  0.0629 -0.0362  0.1555
19807W        W36654   8.189  18.294  13.829 -0.3054 -0.0636 -0.0761
19808W        W36655   1.937   0.711  12.654  0.1702  0.1175 -0.0595
19809W        W36656  15.592   4.009   3.535 -0.1844 -0.3074 -0.4469
19810W        W36657  17.432  17.877   4.408 -0.0150  0.6230 -0.2285
19811W        W36658   5.284  12.731   4.787  0.4966 -0.1164 -0.1653
19812W        W36659  12.860   7.108  11.176 -0.0930  0.0974  0.0445
19813W        W36660  18.221   1.404   1.169 -0.0931 -0.2410  0.0391
19814W        W36661   8.472   7.422  14.674  0.1801  0.1538 -0.1153
19815W        W36662  12.552  14.922  15.095  0.0595 -0.4051  0.0483
19816W        W36663   6.167  12.105  11.704  0.0750  0.0276 -0.1628
19817W        W36664  17.995   4.798   5.565 -0.1826 -0.0038 -0.0117
19818W        W36665  14.174   0.214  13.560 -0.1601  0.0100  0.2333
19819W        W36666   7.464  18.628   3.601 -0.0039 -0.1505  0.0162
19820W        W36667   8.950  12.432   0.157 -0.0900  0.3479 -0.2005
19821W        W36668  15.945   4.115  13.077  0.2736 -0.3178  0.0203
19822W        W36669   1.333  14.569   0.171 -0.0902  0.0641 -0.2240
19823W        W36670  13.989  18.808   0.913 -0.0616  0.0531  0.0108
19824W        W36671   4.476   2.896   1.590  0.3069  0.2726  0.3103
19825W        W36672  13.190   7.701  13.592 -0.0004  0.0401  0.0888
19826W        W36673   6.984  14.701   0.879  0.2945  0.5005 -0.3862
19827W        W36674   6.465   1.325   3.318 -0.2153 -0.3939  0.0340
19828W        W36675   9.063  17.709   4.361  0.1966 -0.2408  0.0017
19829W        W36676   1.448  15.922  13.495 -0.0773 -0.0819  0.0234
19830W        W36677   9.190   3.645   0.665 -0.0375 -0.1377 -0.2544
19831W        W36678   9.626   2.139  13.709 -0.0896 -0.3463  0.0593
19832W        W36679   4.372   9.397   0.819  0.1615  0.0584  0.0306
19833W        W36680  13.736   5.426   3.047 -0.1618  0.2365 -0.2560
19834W        W36681   5.268   0.482   4.710 -0.5035  0.2387 -0.2366
19835W        W36682   3.715   1.533  14.632 -0.2757 -0.3122  0.1108
19836W        W36683  13.359   9.909  12.183  0.1119 -0.2515 -0.1465
19837W        W36684  15.216   7.057   1.511  0.0915  0.1230 -0.1564
19838W        W36685   1.173   1.048  14.372 -0.1160 -0.0812 -0.0481
19839W        W36686  18.778  15.766   4.653  0.1420 -0.2024  0.0895
19840W        W36687   9.094   2.714  12.453  0.0520  0.0131 -0.0610
19841W        W36688   1.841   5.642   3.469 -0.1471  0.0387 -0.0307
19842W        W36689   8.666  15.166   1.902  0.1022 -0.1202  0.0811
19843W        W36690   0.069   1.299   1.430 -0.1432  0.1584 -0.1144
19844W        W36691   8.496   6.662  11.265 -0.3255  0.1001 -0.0212
19845W        W36692  14.608   3.015  12.362 -0.2309  0.0046  0.3203
19846W        W36693  11.725   8.280   3.520  0.0066  0.1745  0.0325
19847W        W36694   6.610   2.193  10.772 -0.2037  0.0790 -0.2014
19848W        W36695   4.398  10.903   5.146 -0.2256  0.4349  0.3450
19849W        W36696   7.029  12.396  14.009 -0.2284 -0.1712  0.2317
19850W        W36697  17.991  17.790   4.126  0.2253  0.0767 -0.1828
19851W        W36698   6.220   7.576   3.545  0.2586 -0.3227  0.0905
19852W        W36699   4.230   8.816   3.475  0.0745 -0.2858 -0.0436
19853W        W36700   2.778  12.275   1.318  0.0198  0.0967 -0.0235
19854W        W36701  12.313  14.904   4.311  0.1005  0.1413  0.1595
19855W        W36702   6.205  14.396   4.414 -0.1350 -0.1676 -0.1581
19856W        W36703   0.523   0.632  13.799  0.0905  0.0656  0.2536
19857W        W36704   6.242   6.631  12.144  0.1501 -0.0011 -0.3564
19858W        W36705   8.143   4.754   5.305  0.3222  0.0903  0.0790
19859W        W36706  10.534   0.227   0.583 -0.2129  0.1171 -0.4608
19860W        W36707   6.442   2.433  11.620 -0.3267 -0.0735  0.0970
19861W        W36708  17.476   5.683  13.265 -0.3472 -0.0900  0.2779
19862W        W36709  18.202   1.054   1.730  0.2824  0.1307  0.2724
19863W        W36710   2.680  10.358   2.381  0.1445 -0.4424  0.0783
19864W        W36711  17.818  15.390   2.122 -0.3110 -0.0898 -0.1339
19865W        W36712   9.677   3.966  13.340  0.0864  0.3713 -0.1778
19866W        W36713  11.350   0.572   1.198 -0.0536 -0.0060  0.2755
19867W        W36714  12.510   8.381  14.376 -0.2700 -0.0637 -0.2786
19868W        W36715  17.139   0.398   5.634 -0.0324 -0.4712  0.0612
19869W        W36716   4.157   1.146  15.625 -0.4925 -0.1844  0.0185
19870W        W36717   1.598  17.354   1.704  0.1931  0.1172  0.1886
19871W        W36718   2.704   7.302   1.316  0.0407 -0.0281  0.4123
19872W        W36719   5.382   9.654   3.662  0.2900 -0.0238 -0.4770
19873W        W36720   6.201  17.028  13.432  0.0800  0.0876 -0.0001
19874W        W36721   4.054   6.732   1.663  0.0828  0.0528 -0.1698
19875W        W36722  10.515   5.474  11.158 -0.0882  0.1134  0.0463
19876W        W36723  15.520  17.905  12.711 -0.1711  0.0333 -0.1756
19877W        W36724   0.078  12.261   5.814 -0.0802 -0.1025  0.0435
19878W        W36725  14.637  12.291   4.288 -0.0467 -0.2941  0.3626
19879W        W36726  15.315   4.753  15.086  0.1150  0.1058 -0.0613
19880W        W36727  10.285  16.633   4.036  0.2865 -0.2166 -0.2213
19881W        W36728   4.116  11.393   4.719 -0.2645  0.0966  0.0883
19882W        W36729   5.834   3.249   3.751 -0.0215  0.0140  0.3405
19883W        W36730  13.578   7.497   3.968 -0.0016 -0.2066 -0.4625
19884W        W36731  11.543   4.939  10.456 -0.1316 -0.2133  0.0769
19885W        W36732   0.852  12.691  11.361  0.1479  0.1779  0.0433
19886W        W36733  16.499   3.641   1.901 -0.1202 -0.1109  0.1356
19887W        W36734   2.850   8.853   4.331  0.0392 -0.2438  0.0558
19888W        W36735   6.310  15.762  15.057 -0.2342 -0.3994 -0.1777
19889W        W36736  12.711  16.444   1.955  0.2487  0.0145 -0.0372
19890W        W36737  14.137  14.963  12.257  0.0429  0.1224 -0.0969
19891W        W36738   1.531  15.628  14.998 -0.1294 -0.1643  0.3832
19892W        W36739  18.230  17.866  13.708 -0.0591 -0.0364  0.0289
19893W        W36740   2.084   7.566  15.421  0.0276  0.0391 -0.0718
19894W        W36741   0.172   3.881  11.837  0.0884 -0.1869  0.2114
19895W        W36742   1.962   7.419  13.108  0.2345  0.0038 -0.0685
19896W        W36743  11.289  10.031   2.432  0.0513 -0.3904  0.2824
19897W        W36744  14.503  17.561  14.097  0.4278 -0.0292 -0.0521
19898W        W36745  11.502  16.831  15.209 -0.1022  0.0064  0.1724
19899W        W36746   8.284   5.538  11.222 -0.0852  0.0290 -0.3186
19900W        W36747   7.419  11.041   4.688  0.0961  0.0353  0.1934
19901W        W36748  18.200   5.751   5.292  0.1184  0.0826 -0.0468
19902W        W36749  17.170  17.838   0.039  0.3211 -0.0439 -0.1779
19903W        W36750   6.520  18.419   2.569  0.0911  0.1386 -0.0507
19904W        W36751   1.965   7.119   1.086 -0.0577 -0.0442  0.1130
19905W        W36752  10.944   9.818   0.704  0.1159  0.0811 -0.0177
19906W        W36753   7.298   8.439   3.150  0.1283 -0.1528  0.1526
19907W        W36754  13.984  10.983   5.425  0.0312  0.0755 -0.1636
19908W        W36755  15.081  11.767   4.141  0.2983  0.1263 -0.0611
19909W        W36756   1.431   6.569  13.276  0.0870  0.1029  0.0134
19910W        W36757   7.019   8.850   0.238  0.4315 -0.1788 -0.0278
19911W        W36758  16.846   8.028   4.154 -0.1380  0.0492 -0.1177
19912W        W36759  11.342  18.111   4.159  0.2537  0.0571 -0.1542
19913W        W36760  12.895   5.745   4.400 -0.1227 -0.0781  0.0744
19914W        W36761  12.469   7.417  12.222  0.0727 -0.0371  0.1266
19915W        W36762  18.416  11.196   5.617 -0.0889  0.1746 -0.1436
19916W        W36763   5.130   0.532  13.762  0.1704 -0.1385  0.1459
19917W        W36764  15.434  10.954   2.029 -0.1033 -0.2672  0.0131
19918W        W36765   1.503  14.923   2.149 -0.0454 -0.1129 -0.0357
19919W        W36766  10.651  13.673   2.774  0.2756 -0.3148 -0.0349
19920W        W36767   0.371   2.036  11.352  0.2992 -0.2067 -0.3491
19921W        W36768   1.479  17.174  14.983  0.5403 -0.2165  0.0347
19922W        W36769  13.957   2.103   2.845  0.1292  0.0227 -0.0872
19923W        W36770   7.531   2.282   2.928 -0.1992 -0.3799 -0.0943
19924W        W36771   9.310  12.692  14.398 -0.1781  0.0941  0.2053
19925W        W36772  13.326   3.104  14.370  0.2003  0.2641  0.1590
19926W        W36773   9.072   0.535   3.768  0.1700 -0.3628  0.0633
19927W        W36774   6.092  10.589  13.140  0.0619  0.1915 -0.1125
19928W        W36775  16.146   8.496   4.189  0.2273 -0.0292 -0.1211
19929W        W36776   8.591  17.812   2.714  0.1059  0.3827 -0.0137
19930W        W36777   7.406  14.752   2.912 -0.1850 -0.0018  0.1781
19931W        W36778  12.326  10.720   4.652  0.0561  0.3085 -0.2718
19932W        W36779  12.055   5.050   1.699  0.1813 -0.0543 -0.0342
19933W        W36780   5.311   3.415  15.466 -0.1327  0.1091  0.1244
19934W        W36781   1.792   7.422  11.817  0.0093  0.3941 -0.0709
19935W        W36782  10.038   0.273   0.416 -0.0252 -0.0418 -0.1968
19936W        W36783  12.967   2.731  14.849  0.2404  0.1625 -0.0410
19937W        W36784  14.155  15.432  12.452 -0.1287 -0.0479  0.2723
19938W        W36785   2.750  15.588  11.211 -0.0025  0.1618 -0.3125
19939W        W36786   8.164   5.901  10.926 -0.0859 -0.4222 -0.1283
19940W        W36787   2.644   4.588   3.229  0.0103  0.0199  0.4465
19941W        W36788  15.770  18.096  15.289 -0.1256  0.1172 -0.0711
19942W        W36789  11.058   1.402  15.025 -0.1452  0.0120  0.0516
19943W        W36790  13.739  13.455  14.340 -0.2057  0.0918  0.0615
19944W        W36791  16.347  16.939   0.073  0.0894 -0.1921 -0.2660
19945W        W36792   3.660   6.322  13.539 -0.0673 -0.3833 -0.0795
19946W        W36793   2.810  12.754  13.858 -0.0010  0.1316 -0.0106
19947W        W36794   5.139  18.683  11.695  0.2629 -0.0443  0.0702
19948W        W36795   2.617  18.317   2.842 -0.0617 -0.1623 -0.2163
19949W        W36796  15.798  11.388  12.754 -0.0038 -0.1212 -0.0130
19950W        W36797   2.711  15.949  12.713  0.2979  0.2446  0.2553
19951W        W36798  12.108  12.697   0.873 -0.2246  0.2022 -0.0910
19952W        W36799   9.186   7.942   4.202  0.0334  0.0735 -0.1181
19953W        W36800   6.709   4.010  13.625 -0.0229  0.1334  0.0758
19954W        W36801  10.283   2.202   0.949 -0.1625  0.0084  0.0675
19955W        W36802   8.539   3.849   4.556  0.1745 -0.2130 -0.2748
19956W        W36803   8.510  15.801   4.747  0.2355  0.1233  0.1431
19957W        W36804   9.951  16.954  15.435  0.0582 -0.1907  0.2830
19958W        W36805  15.316  15.812   3.941 -0.3342 -0.2080 -0.2703
19959W        W36806   7.242  18.496  12.269 -0.0560 -0.2084  0.0265
19960W        W36807  12.807  18.164  15.724 -0.1216 -0.4558  0.1645
19961W        W36808  11.316   5.415  14.371  0.5170 -0.0711  0.2962
19962W        W36809   1.179   0.070  11.146  0.0050 -0.2646 -0.2426
19963W        W36810   7.137  15.804  11.668  0.1705 -0.1568 -0.0335
19964W        W36811  10.667   9.971  10.240  0.1533 -0.2564 -0.1099
19965W        W36812   0.209   5.760   2.069 -0.0249  0.0760 -0.1343
19966W        W36813   8.491  14.774  13.288  0.1123 -0.0172  0.0163
19967W        W36814   7.992   4.436  11.729 -0.0451  0.4075 -0.0777
19968W        W36815  10.528  15.282  12.750 -0.1901  0.1608 -0.1018
19969W        W36816   9.425   5.482  14.331 -0.1821  0.1959 -0.0740
19970W        W36817  12.849  17.693   2.714  0.4007  0.1231 -0.0483
19971W        W36818  18.188  11.144   1.893 -0.1156 -0.2219 -0.1676
19972W        W36819   7.902   2.745  11.473 -0.1135  0.0612  0.0346
19973W        W36820   2.705   1.109   0.321  0.2341 -0.0493 -0.0942
19974W        W36821  17.449  18.204  15.583 -0.1521 -0.0515  0.1002
19975W        W36822  17.123   6.603   0.292 -0.2091 -0.2942  0.0996
19976W        W36823   1.162   1.199  13.856  0.1434 -0.1181  0.3635
19977W        W36824  17.197   8.471   2.630  0.0249 -0.0799  0.1063
19978W        W36825   4.201  14.891   0.461  0.1971 -0.2317 -0.2592
19979W        W36826  10.450   3.988  10.239 -0.0165  0.0347 -0.0361
19980W        W36827   4.552  18.261  15.689  0.1614  0.3765  0.2113
19981W        W36828  17.605   2.376  11.655 -0.0810 -0.2042 -0.0934
19982W        W36829   1.028   9.726  13.902  0.1553 -0.1971 -0.0746
19983W        W36830  17.870  10.470   1.359  0.2423 -0.4138 -0.1310
19984W        W36831  12.600   8.667   0.843 -0.0742 -0.3234  0.0811
19985W        W36832  12.273  17.314  11.954 -0.1090 -0.3514  0.1770
19986W        W36833   7.026  16.768   3.251  0.0830  0.0007  0.0371
19987W        W36834  18.360   4.354  13.510  0.0964 -0.4318 -0.2995
19988W        W36835  15.629   5.537  13.354  0.0536  0.0597  0.3154
19989W        W36836   0.921  14.526   2.132  0.0324  0.0540 -0.2941
19990W        W36837   2.512  14.456   0.833 -0.1556  0.1797 -0.1708
19991W        W36838   5.848   4.317  13.145  0.1201  0.1510  0.2178
19992W        W36839   4.125  16.753   0.249  0.0338 -0.2684  0.0200
19993W        W36840  10.826   1.747  11.332  0.0747 -0.2017  0.2279
19994W        W36841  14.920   7.266   3.910 -0.1345  0.0057 -0.0993
19995W        W36842   2.056   9.553   1.094  0.0893  0.2490  0.2326
19996W        W36843  13.327   4.605  14.546  0.0394 -0.1290 -0.1110
19997W        W36844   3.772   1.067  14.777  0.1620 -0.4159  0.0769
19998W        W36845  11.559  14.071  14.015  0.0639  0.1130 -0.0429
19999W        W36846  17.512   0.194   4.069 -0.1405  0.0115  0.0284
20000W        W36847   0.002  18.694  11.958 -0.0031 -0.2681 -0.3419
20001W        W36848   0.373   3.849   1.317 -0.0357 -0.0707  0.2307
20002W        W36849   8.450  16.200  15.580  0.1958 -0.2394  0.0611
20003W        W36850   6.610  15.300   1.640 -0.1645  0.1663  0.0501
20004W        W36851  11.972  10.846  10.000 -0.0768  0.0279  0.0860
20005W        W36852  10.307  11.686   4.622  0.4199  0.2938 -0.0788
20006W        W36853   7.886   3.284   4.189  0.2682  0.0213  0.0847
20007W        W36854   9.888  18.020  12.047 -0.0326 -0.0724 -0.0950
20008W        W36855  12.578   5.350   1.437 -0.1787 -0.0164 -0.0522
20009W        W36856   3.756  14.046  12.660 -0.4156  0.0009  0.3492
20010W        W36857  11.757  15.021   1.437  0.1521  0.1321  0.1235
20011W        W36858  14.348  18.143  13.273 -0.0815 -0.4298 -0.0922
20012W        W36859  15.913  14.201   3.603  0.3100 -0.2513 -0.3694
20013W        W36860  12.054  14.474  14.910 -0.0582  0.5293 -0.2184
20014W        W36861   5.456   0.898  15.726 -0.1309 -0.5521 -0.3002
20015W        W36862   3.953   0.930  11.099  0.0585 -0.1874 -0.1317
20016W        W36863   2.926  18.819  13.535  0.2054 -0.1450  0.2457
20017W        W36864   1.071  15.685  12.384  0.1592  0.3186  0.2858
20018W        W36865   3.972   9.630  14.444 -0.1163  0.2336 -0.1699
20019W        W36866  18.235  13.201  13.589  0.3282  0.1597  0.3071
20020W        W36867  15.544  12.298  11.551  0.1622  0.0340 -0.0952
20021W        W36868   0.764   3.619   2.143  0.0331 -0.1780  0.1210
20022W        W36869   7.020   4.011   1.802  0.1128  0.1657 -0.0790
20023W        W36870   0.243  10.583  13.245 -0.2551  0.0658  0.0480
20024W        W36871   3.662   1.936   0.232 -0.0326  0.0127  0.1116
20025W        W36872  16.162   6.349  12.986  0.2128 -0.1989 -0.1082
20026W        W36873  14.475  11.123   4.406 -0.0337 -0.0707 -0.1135
20027W        W36874  17.736   9.272  11.876 -0.0634 -0.0834  0.3045
20028W        W36875   2.442   0.015   0.820  0.1415  0.1129 -0.2483
20029W        W36876  11.017   1.938  14.231  0.0624  0.2764 -0.1321
20030W        W36877  17.124   4.576   1.827 -0.3629  0.1383  0.1793
20031W        W36878  15.891  17.537   1.370 -0.0391 -0.0838 -0.1562
20032W        W36879   5.941  10.394   3.186 -0.0504  0.0871 -0.1856
20033W        W36880  13.906  16.988  13.861  0.2724 -0.1268  0.1931
20034W        W36881  16.321   2.783  13.417  0.1065 -0.0551 -0.1298
20035W        W36882   1.357   9.937  11.007  0.0337 -0.0760  0.2058
20036W        W36883   5.134   2.247  14.320  0.0412 -0.1509 -0.0210
20037W        W36884   6.665   9.526   1.874 -0.2330 -0.1642  0.0649
20038W        W36885   2.843  14.574  15.119 -0.0560  0.2711  0.1341
20039W        W36886  10.757   9.936   2.460  0.1331  0.0297  0.0519
20040W        W36887   8.877  12.145  13.228 -0.1291  0.0894 -0.1526
20041W        W36888   8.950   8.090   2.116  0.0842 -0.0216 -0.1621
20042W        W36889  16.687   1.770  14.557 -0.2397 -0.1366 -0.2881
20043W        W36890  15.649  18.030   1.383  0.0177 -0.2102  0.1751
20044W        W36891  16.671   5.213   3.964 -0.1617 -0.0413 -0.1955
20045W        W36892   2.058   4.314   2.706  0.1122 -0.0839 -0.2621
20046W        W36893  11.453  15.800   1.042  0.0339  0.2610  0.0283
20047W        W36894   7.523   1.269   0.857  0.3480  0.0818 -0.0826
20048W        W36895   1.574   4.542  12.858  0.3268 -0.2884 -0.2399
20049W        W36896  16.266   3.779   5.218 -0.3023  0.0124 -0.0394
20050W        W36897  10.493  11.500   1.133  0.0548 -0.0801  0.1224
20051W        W36898  15.929   2.851   1.452  0.2622  0.0773 -0.4223
20052W        W36899   4.918  14.045  14.990 -0.1425 -0.2427 -0.2069
20053W        W36900  12.141   7.121  11.713  0.1638 -0.2115 -0.3691
20054W        W36901  14.215   2.603  11.449 -0.1021  0.1185 -0.0483
20055W        W36902  10.661  17.392   4.548 -0.1766 -0.1028  0.2027
20056W        W36903  13.122   5.087   5.090 -0.0766 -0.0040 -0.4401
20057W        W36904  18.043  15.690   1.602  0.1373 -0.1870  0.2048
20058W        W36905   3.624   5.365  12.558  0.4359 -0.0000  0.1823
20059W        W36906   3.246   5.432  13.392 -0.1587  0.0056  0.0275
20060W        W36907   1.424  12.367  14.121  0.1216 -0.0667  0.1183
20061W        W36908  11.742   3.006  14.601  0.1805 -0.2354  0.0196
20062W        W36909  13.124   9.942   0.043 -0.0052 -0.1801  0.4188
20063W        W36910  11.769   0.655  15.246  0.2791 -0.1990  0.2530
20064W        W36911   1.128   5.649   1.552 -0.2881 -0.3455  0.1527
20065W        W36912   8.450  17.427  10.947 -0.0340 -0.0613  0.0304
20066W        W36913  15.487   2.465  12.136 -0.0125 -0.0224 -0.2162
20067W        W36914   1.261   3.254  15.385 -0.0625  0.1319  0.0770
20068W        W36915   0.278  11.045   0.255 -0.0291  0.0495  0.1398
20069W        W36916  11.158  11.881   2.875  0.0811  0.0649  0.1643
20070W        W36917   8.653  13.470  12.309 -0.0483 -0.2536  0.1569
20071W        W36918  13.083   5.805   2.005 -0.0473 -0.1706 -0.2286
20072W        W36919   3.155  18.433   0.271  0.1322 -0.2397  0.1085
20073W        W36920  10.612   5.756  14.983 -0.2153 -0.2924 -0.4522
20074W        W36921   1.850   5.237  15.734 -0.0888 -0.0663 -0.1512
20075W        W36922  13.785   1.350  13.509  0.0489  0.0061 -0.0642
20076W        W36923   3.488   5.070   1.602  0.0607  0.3454 -0.3940
20077W        W36924  15.172   9.919   1.278  0.1382 -0.0075  0.1773
20078W        W36925   8.488   0.094  13.986  0.2100 -0.1191 -0.0059
20079W        W36926  16.250   0.209  15.180 -0.0337 -0.1991  0.2427
20080W        W36927   4.762  13.866   0.085  0.1469 -0.0100  0.0899
20081W        W36928   4.164   4.824   4.916  0.1086  0.1039 -0.0767
20082W        W36929   6.049   3.619   3.106  0.1515  0.1224  0.1562
20083W        W36930   3.350   3.454   0.281 -0.1750 -0.0455  0.2362
20084W        W36931   4.463   6.987  13.573 -0.2064 -0.1604  0.0844
20085W        W36932  17.290   3.588   0.674  0.0419  0.0509 -0.0925
20086W        W36933  11.413  16.990  14.208 -0.2097  0.0184 -0.0447
20087W        W36934  14.071  18.586  14.988 -0.1619  0.1394  0.0479
20088W        W36935  15.396   1.703  11.558 -0.1972 -0.0338 -0.2767
20089W        W36936  15.093   0.931  11.864 -0.0751 -0.0049 -0.0413
20090W        W36937   0.828   4.571   5.057 -0.0514  0.0101  0.3154
20091W        W36938   8.219  17.260  11.660 -0.0933  0.2693  0.1591
20092W        W36939   3.581   2.777  15.495  0.0999  0.1006  0.2039
20093W        W36940  17.703  14.485   3.077  0.0498 -0.0791  0.4091
20094W        W36941  12.130   2.277   3.720  0.1154 -0.4725  0.2299
20095W        W36942   8.159  17.266  14.501  0.0565  0.1962 -0.2544
20096W        W36943  14.864   9.721   3.426  0.0403 -0.2692 -0.5000
20097W        W36944  11.785   8.123  15.719  0.5061  0.0075  0.3363
20098W        W36945   7.966   6.030  13.061  0.3610  0.0940 -0.1069
20099W        W36946   0.721  18.295  15.366  0.2106  0.1478  0.1842
20100W        W36947   6.840   3.007   3.972 -0.2503 -0.3059  0.3437
20101W        W36948   0.481   6.652   0.746  0.1553 -0.1093 -0.0141
20102W        W36949   4.699   9.080   3.444 -0.0717 -0.0972 -0.0840
20103W        W36950   4.095   2.787   0.804  0.4569  0.5064 -0.1262
20104W        W36951   0.308   7.742   4.368 -0.2205 -0.1295  0.2325
20105W        W36952  10.409  17.542   2.008  0.1065 -0.0091 -0.2830
20106W        W36953   3.536  18.537   4.020  0.4132 -0.1146  0.3792
20107W        W36954  12.156  13.185  10.909 -0.2288  0.0204 -0.0444
20108W        W36955   7.243  13.263  12.879 -0.1799 -0.2978 -0.1320
20109W        W36956  16.741   6.716  13.599  0.0630 -0.1067 -0.0135
20110W        W36957  10.176   5.491  15.713  0.0123  0.0027 -0.0691
20111W        W36958   2.006   4.631  12.544  0.1788  0.2616  0.2957
20112W        W36959   1.208   2.626   6.028  0.2372 -0.1562 -0.1321
20113W        W36960   8.841   1.172  14.024 -0.4378 -0.3160 -0.0844
20114W        W36961   8.115  12.603  11.303  0.2613 -0.1566  0.0907
20115W        W36962  12.146   2.261  11.133  0.2408  0.2587 -0.1404
20116W        W36963   4.987  17.916  12.195 -0.0119 -0.0594  0.0708
20117W        W36964   8.982   9.086  14.243  0.1587 -0.0093 -0.1891
20118W        W36965  12.365  11.872  11.661  0.0921 -0.1847 -0.0494
20119W        W36966   7.168   9.409   1.963  0.0510  0.2920  0.0194
20120W        W36967  14.984  15.023  13.999 -0.0837  0.2587 -0.1110
20121W        W36968   4.193   1.369   0.869  0.0097  0.2529  0.0066
20122W        W36969  11.551  12.022  13.701 -0.2295  0.3208  0.2808
20123W        W36970   2.118   4.491  15.095 -0.0498 -0.0171 -0.0124
20124W        W36971   7.990   7.859  15.030  0.3122  0.1378 -0.1919
20125W        W36972   8.294  12.010  11.937  0.0031  0.0996  0.1383
20126W        W36973   7.934  15.687  13.789  0.0734 -0.0499 -0.5586
20127W        W36974   2.223   4.193  11.852  0.2467 -0.0908  0.2179
20128W        W36975   1.684   8.559  15.090 -0.3414 -0.2662  0.0602
20129W        W36976   3.839   4.749   3.978 -0.1501  0.1553  0.2964
20130W        W36977  11.991  17.963  14.877 -0.0768 -0.0427 -0.1128
20131W        W36978  15.340  13.393   2.470  0.1156 -0.0741 -0.0746
20132W        W36979   4.143  14.845   2.350  0.1480  0.2519  0.0866
20133W        W36980  18.278   7.710  12.243 -0.0277  0.3459  0.2834
20134W        W36981   1.462  17.901  12.969  0.0662 -0.1943  0.1182
20135W        W36982   3.316  14.380   3.310  0.4570 -0.1519 -0.2379
20136W        W36983   5.706  15.998  12.166  0.0671 -0.2199 -0.1827
20137W        W36984  16.148   9.997   2.920  0.1275 -0.0442  0.0332
20138W        W36985  15.684   0.188   0.839 -0.0139  0.0412  0.1244
20139W        W36986   5.779  14.630   3.589  0.1173  0.0552 -0.0621
20140W        W36987   9.452   0.441  12.188  0.1330  0.1364  0.0976
20141W        W36988  12.854  11.564  11.552  0.2755  0.1914 -0.0968
20142W        W36989   3.240  17.599   0.855 -0.0180 -0.3197 -0.1359
20143W        W36990   1.338  10.956   2.614 -0.1998 -0.1608 -0.2131
20144W        W36991   0.629   3.675  14.965 -0.1962  0.0124  0.0252
20145W        W36992   0.335  13.802   5.120  0.3216 -0.1095 -0.0208
20146W        W36993   9.811  14.786  14.054  0.0114 -0.0952 -0.1837
20147W        W36994  10.920  15.926   5.076 -0.2445  0.2427 -0.1161
20148W        W36995   0.958   3.007   9.988 -0.1341 -0.1261  0.0336
20149W        W36996   3.531  15.741   0.839 -0.3855  0.2389  0.4179
20150W        W36997  14.294  10.034  12.325  0.1386 -0.1764 -0.2025
20151W        W36998  17.698   8.764   0.942  0.0581  0.0634  0.0376
20152W        W36999   1.594   8.951  12.739  0.3335 -0.2633  0.1444
20153W        W37000   3.538   6.992   1.661  0.0998 -0.0089  0.0708
20154W        W37001  10.314   9.652   2.273 -0.0685 -0.0331 -0.1936
20155W        W37002   9.697   5.115   4.494  0.3608  0.3276 -0.0445
20156W        W37003   3.215   1.708  14.672 -0.2960  0.3307  0.1339
20157W        W37004   0.315   8.650  12.026  0.0060  0.3839  0.1265
20158W        W37005  17.795  15.288   4.257  0.0535 -0.0514 -0.0007
20159W        W37006   3.225   9.259   2.897 -0.1049  0.0934  0.0699
20160W        W37007  10.048   1.980   1.294 -0.0285 -0.2099  0.5398
20161W        W37008   9.786  18.519  12.776 -0.1863 -0.0894  0.1083
20162W        W37009   3.298   9.683   4.856  0.2162  0.1443 -0.1041
20163W        W37010  15.197   6.675   2.352 -0.3621  0.1013 -0.1992
20164W        W37011   3.633  17.472   0.539 -0.1870  0.3412 -0.2704
20165W        W37012   2.029   8.936   2.887 -0.1576 -0.0498 -0.0240
20166W        W37013   6.566  12.486   1.748  0.2228  0.0011 -0.0124
20167W        W37014  11.416   4.369   0.483 -0.1097 -0.3280 -0.2644
20168W        W37015   9.140   3.626   3.686  0.3718 -0.6542  0.2821
20169W        W37016  14.464  15.238  11.253 -0.1541  0.1805 -0.3327
20170W        W37017  18.472   4.645  15.692  0.0369  0.0925  0.1677
20171W        W37018  16.706   1.812   1.142  0.1977 -0.2851 -0.4716
20172W        W37019   2.842   6.413  11.648  0.1770 -0.1000 -0.1269
20173W        W37020  10.041  13.664  11.031 -0.2100 -0.1573  0.0870
20174W        W37021   9.701  10.360   1.213 -0.1869  0.1780 -0.2652
20175W        W37022  14.214   8.504  13.218 -0.0378  0.3045  0.2035
20176W        W37023   4.996   8.366  10.483 -0.2686  0.1106 -0.1331
20177W        W37024  15.619  10.593  12.181 -0.4209  0.1257 -0.0701
20178W        W37025  14.795  14.434   3.846 -0.0134 -0.1332 -0.1044
20179W        W37026  14.274  17.357   4.555  0.3636  0.1025 -0.0836
20180W        W37027   7.888   1.836   5.527 -0.1355  0.1465  0.1866
20181W        W37028  16.600   3.273  15.458  0.0590  0.1088  0.2012
20182W        W37029  13.823   4.504  14.780  0.2816 -0.0213 -0.1182
20183W        W37030   0.186   6.523   4.751  0.3034 -0.0629 -0.1746
20184W        W37031   1.229   9.594   4.901 -0.1824  0.0802  0.2448
20185W        W37032  10.504   5.306  13.445  0.2323  0.2937 -0.1426
20186W        W37033   4.842   1.874   3.444  0.1959 -0.0946 -0.2698
20187W        W37034   5.251   1.246  11.583 -0.1944 -0.0046  0.1362
20188W        W37035  14.315  12.104  12.165  0.1004 -0.1861  0.1258
20189W        W37036  18.145   7.307   6.315  0.0563  0.2785  0.0949
20190W        W37037  17.826  17.278   4.129 -0.1219 -0.0585  0.1115
20191W        W37038   5.093  13.744  13.504  0.0720  0.0576  0.3257
20192W        W37039  16.930   7.643   5.211  0.1256  0.0736 -0.0995
20193W        W37040   6.358  12.956  14.471 -0.3298 -0.0620 -0.1801
20194W        W37041  18.781  15.137   2.609 -0.0343 -0.4735  0.1993
20195W        W37042  13.505   1.156   4.881  0.0077 -0.0134  0.0151
20196W        W37043  14.802   9.497   1.817 -0.1573 -0.1939  0.0392
20197W        W37044  11.717  15.454  12.585  0.0351  0.0476 -0.0104
20198W        W37045  10.715  10.283  14.019  0.0105  0.0547  0.0175
20199W        W37046   9.662  14.044   3.391 -0.3295  0.2647  0.0209
20200W        W37047   4.610  15.767  11.185  0.0231  0.1329 -0.0793
20201W        W37048   2.629  12.246  13.300  0.1043  0.1080 -0.0291
20202W        W37049  13.867   8.103  13.405  0.3318 -0.1784  0.1495
20203W        W37050   1.530  13.268   5.176 -0.2042  0.0420  0.0423
20204W        W37051  11.908  15.953   3.033 -0.2946 -0.1221  0.3159
20205W        W37052  14.282   5.473  12.138 -0.2420  0.0149  0.2428
20206W        W37053   7.034   7.383  13.816  0.0086 -0.0800 -0.1112
20207W        W37054   3.561   4.314   3.395  0.0783  0.1281 -0.3810
20208W        W37055  13.965   1.256  11.621  0.1649  0.2455 -0.0195
20209W        W37056   5.105  18.299   4.786 -0.1165  0.1297 -0.1044
20210W        W37057   0.829  16.862   0.262 -0.2955  0.0480  0.2686
20211W        W37058   6.351  15.758  14.589 -0.1902 -0.1009  0.2417
20212W        W37059  13.616  13.245  11.444 -0.2865 -0.0530  0.1145
20213W        W37060  18.488   9.469   2.379 -0.0495 -0.0778 -0.5074
20214W        W37061   8.501  13.036   0.770 -0.3760  0.1629  0.0110
20215W        W37062   4.192   5.319  14.079  0.1021  0.0781 -0.2327
20216W        W37063   6.990   8.943   2.009  0.0453 -0.1147  0.1282
20217W        W37064   7.954   4.460   0.725  0.5128 -0.1047 -0.2461
20218W        W37065  16.202  11.255  14.092  0.0759 -0.2316 -0.0961
20219W        W37066  10.115   3.442   5.772 -0.0935  0.1078  0.0071
20220W        W37067   7.778   6.747   3.519  0.3035 -0.4712 -0.0052
20221W        W37068   2.586  13.587   4.281  0.2013 -0.1815 -0.6192
20222W        W37069  17.744   3.242   2.954  0.2744 -0.2178 -0.0200
20223W        W37070  18.605  15.721  15.278  0.4445  0.5993  0.2104
20224W        W37071  10.775  12.121   3.068 -0.1283  0.2505 -0.1541
20225W        W37072   8.515  14.346  13.641 -0.1664  0.0551  0.1124
20226W        W37073   1.030  18.856   0.291 -0.0715 -0.1899  0.1623
20227W        W37074   5.279   4.929  12.454  0.0809  0.0305 -0.1524
20228W        W37075   1.051   0.714   0.663 -0.3050  0.1582 -0.4750
20229W        W37076   3.074  17.830  11.991  0.1992  0.1211  0.2371
20230W        W37077  12.369   5.317  14.217  0.3840  0.1824 -0.0848
20231W        W37078  17.387   9.224   2.897  0.0012 -0.1925  0.1713
20232W        W37079  13.994   8.790   3.338 -0.1779  0.0787 -0.1561
20233W        W37080  10.759  10.546  14.447 -0.1303  0.0685 -0.0595
20234W        W37081   2.554   8.009   1.888  0.0951 -0.2957  0.0074
20235W        W37082   9.328  18.295   3.226  0.4014  0.1136  0.1417
20236W        W37083   5.406   4.597  12.126 -0.1692 -0.0443  0.0323
20237W        W37084  10.981  12.270   1.532 -0.1032  0.0920 -0.1544
20238W        W37085   8.667  11.881   2.454  0.1971 -0.1789 -0.3178
20239W        W37086  17.479   4.208  13.295  0.0072  0.0118  0.1698
20240W        W37087   7.180  11.771  11.390  0.1177  0.2638 -0.0569
20241W        W37088  11.863  16.375  10.855 -0.3307  0.0265  0.3208
20242W        W37089  13.192   2.141  13.330  0.2169 -0.1407  0.1313
20243W        W37090  10.035   3.044   1.820 -0.1744  0.0141  0.0920
20244W        W37091  17.768  18.600  10.822  0.0478 -0.2468  0.0702
20245W        W37092  14.588  17.753  10.327  0.2000 -0.3325 -0.0485
20246W        W37093   6.669   6.229  14.343 -0.2429  0.0695  0.1963
20247W        W37094   4.953   6.096   3.212  0.1775 -0.2439 -0.2249
20248W        W37095   7.779  16.905   4.185 -0.1411  0.1076 -0.1852
20249W        W37096  10.613   1.635  15.176 -0.3837 -0.1111  0.0799
20250W        W37097   2.460   5.518  13.108 -0.0835  0.0267  0.4614
20251W        W37098   7.766   2.123   1.266 -0.0807  0.0239 -0.1533
20252W        W37099  15.186  13.938  11.368 -0.1435  0.3383 -0.3894
20253W        W37100  10.337   1.615  13.703 -0.2297 -0.2088  0.0798
20254W        W37101  11.282   1.810   2.308 -0.0181  0.2385 -0.1072
20255W        W37102   3.836   3.457  12.613  0.0203  0.1492 -0.1360
20256W        W37103   5.097   4.728  13.298  0.1666  0.1634 -0.0258
20257W        W37104   0.209  10.348   5.877  0.2481 -0.2566  0.0273
20258W        W37105  13.766  13.434  11.862  0.0461  0.1064 -0.0515
20259W        W37106  13.909   9.383   5.670  0.0570 -0.1146 -0.1497
20260W        W37107  14.089  16.626   4.437  0.1756  0.0351 -0.1110
20261W        W37108   8.112  12.604  11.876 -0.0314 -0.1873  0.1510
20262W        W37109  17.975  12.121   4.812  0.0006 -0.1848  0.1520
20263W        W37110   2.895  12.634   5.378  0.2035 -0.2468 -0.0327
20264W        W37111   3.634   1.910  13.815 -0.1711  0.1942 -0.1728
20265W        W37112   0.915  17.768   2.693  0.1101  0.0086 -0.2058
20266W        W37113   1.117  13.404  12.820 -0.0442 -0.1000 -0.4483
20267W        W37114  18.209   5.766  14.921  0.2346 -0.0677 -0.4039
20268W        W37115   2.068  12.133  12.244  0.2294 -0.2256 -0.0990
20269W        W37116   6.538   8.229  13.065  0.1156  0.1990 -0.2106
20270W        W37117   3.229  10.985  13.198  0.1120 -0.2570 -0.1470
20271W        W37118  17.159  12.252   1.456  0.1693  0.0926 -0.1625
20272W        W37119   7.343   7.154   3.270  0.2955 -0.1035  0.1928
20273W        W37120   5.426   0.962  12.313 -0.0825  0.1787  0.0561
20274W        W37121   5.266   2.479   4.745 -0.1869  0.0544 -0.0243
20275W        W37122  16.881  16.302  11.207 -0.1031  0.1260 -0.1662
20276W        W37123   5.910   7.893  14.770 -0.1281  0.1560  0.2404
20277W        W37124  15.081   2.979  12.629 -0.1577  0.0227 -0.0045
20278W        W37125   5.374  16.886  15.049  0.0768  0.3858  0.2181
20279W        W37126   6.367  17.248  12.073 -0.1089  0.4701 -0.1229
20280W        W37127   1.299  12.508  11.586  0.0574 -0.0754 -0.0067
20281W        W37128  18.704  12.391  15.519  0.1335  0.1633  0.0437
20282W        W37129   8.524   1.077   4.856 -0.3929 -0.1438  0.1224
20283W        W37130  17.520   7.010   0.452 -0.0531  0.0097  0.0350
20284W        W37131  14.794   7.115   1.795  0.0532  0.2600 -0.1031
20285W        W37132   9.744  15.690  15.330  0.2570 -0.0775  0.1808
20286W        W37133  12.827  16.740   3.559  0.2199  0.0629  0.0961
20287W        W37134   5.041   6.702   2.643 -0.1060  0.0049  0.0212
20288W        W37135   3.492   6.974   0.715  0.2130 -0.1526  0.0317
20289W        W37136  11.102   6.946   2.401 -0.0234  0.3435  0.0088
20290W        W37137  15.624   1.398   1.461 -0.0094 -0.0089  0.0135
20291W        W37138   4.484   2.669  12.975  0.0166  0.2101  0.0887
20292W        W37139  14.561   7.755   2.235  0.1449 -0.0223 -0.2218
20293W        W37140  12.763   7.631   3.794  0.0037 -0.0973 -0.2681
20294W        W37141  12.843   3.709   5.581 -0.1685 -0.2558  0.0109
20295W        W37142  10.172  13.671   0.531  0.2610 -0.0669 -0.0752
20296W        W37143  10.020   1.514  14.044  0.0245  0.2446 -0.1856
20297W        W37144   0.148   1.331  11.977  0.2195 -0.2199  0.0860
20298W        W37145  16.488  17.710   5.265 -0.0952  0.3555 -0.0604
20299W        W37146  17.850  12.365  12.082  0.1014  0.1379  0.0782
20300W        W37147  17.475   9.418  11.383 -0.3124 -0.3360 -0.0018
20301W        W37148   2.104   4.933   1.982  0.0502  0.0336 -0.3724
20302W        W37149  15.510  12.077   4.184 -0.0667 -0.3621  0.1183
20303W        W37150   5.968  18.108   2.584  0.0594 -0.4124 -0.0915
20304W        W37151   7.040  13.289  10.855  0.1468 -0.2691 -0.4340
20305W        W37152  12.275   8.819   5.817 -0.1787 -0.3305 -0.2092
20306W        W37153   7.523   6.916  13.426 -0.2112  0.2873 -0.0329
20307W        W37154   3.696  15.494  15.461 -0.0346  0.1031 -0.0522
20308W        W37155  14.343  14.723   4.065 -0.0286 -0.0891 -0.1416
20309W        W37156   1.171  14.770  13.981 -0.1418  0.1558 -0.0817
20310W        W37157   4.165  11.395  15.395  0.2485 -0.1884  0.0589
20311W        W37158  12.693   9.520  14.567  0.2283  0.4099  0.0177
20312W        W37159  14.974   5.167  15.097 -0.0519 -0.1432 -0.5148
20313W        W37160  15.905  11.121   2.795 -0.2425 -0.0856  0.3992
20314W        W37161  15.669  18.173   4.216  0.2472  0.0108 -0.3305
20315W        W37162   6.791   9.974   9.857 -0.2142 -0.1136  0.2152
20316W        W37163  16.189  13.064   3.802 -0.2155 -0.1401  0.2243
20317W        W37164   9.135   3.990  13.144 -0.1042 -0.3418 -0.2165
20318W        W37165  14.556  16.453   0.273  0.0637  0.2124 -0.2142
20319W        W37166   7.098   9.890  12.589  0.0815  0.0433 -0.1161
20320W        W37167  10.799   5.199   6.000  0.2377 -0.2034 -0.0765
20321W        W37168   4.805   5.456   0.618 -0.1364 -0.1733 -0.4951
20322W        W37169  17.753  17.747   0.985  0.0665  0.2169  0.0097
20323W        W37170   8.440  16.068  14.013  0.1290 -0.0145 -0.2614
20324W        W37171  18.726   2.738  14.161 -0.1405 -0.0314  0.1120
20325W        W37172  17.696  17.620  12.655 -0.0867 -0.0268 -0.0214
20326W        W37173   0.147   6.255  13.767 -0.0623  0.0791  0.2944
20327W        W37174   2.555   9.265  11.086  0.1045  0.0925  0.1545
20328W        W37175  11.927  17.236   4.117 -0.2265 -0.4255  0.0888
20329W        W37176  15.515   6.793   0.188  0.3745 -0.0325 -0.2964
20330W        W37177   8.675  10.568   1.714  0.2345  0.0462 -0.0136
20331W        W37178  16.424  16.867  12.271 -0.1358  0.1823  0.1597
20332W        W37179  13.671  15.137   2.761  0.0481 -0.0738 -0.2370
20333W        W37180   3.909   5.163  13.706 -0.1429 -0.1595  0.1182
20334W        W37181   2.774   4.657  14.548  0.1517 -0.2806  0.0484
20335W        W37182  16.265  11.973   2.189  0.3507  0.0116  0.0151
20336W        W37183  16.200   7.780  14.493  0.3129  0.0630  0.0991
20337W        W37184  14.769  14.440  15.642  0.3087  0.0269  0.3367
20338W        W37185   5.438  15.924  14.205  0.2316 -0.0732 -0.2908
20339W        W37186  17.422  12.719   4.817  0.2829 -0.0809  0.1706
20340W        W37187  11.771   7.418  11.519  0.0799 -0.1260 -0.0144
20341W        W37188  11.808   4.009   3.650 -0.2527 -0.4762  0.2428
20342W        W37189  12.405  11.632   4.946 -0.3202  0.0549 -0.1227
20343W        W37190   4.143   8.172  15.136 -0.4628 -0.0250  0.2095
20344W        W37191   4.779   2.352   2.515  0.0302 -0.0952 -0.0477
20345W        W37192  13.695  16.277   4.483 -0.2270 -0.1827 -0.1785
20346W        W37193   4.435  15.733   2.297 -0.2336 -0.2234  0.2190
20347W        W37194   3.008  10.570   0.675  0.0962  0.2011 -0.3150
20348W        W37195  16.794  14.849   1.023 -0.1755 -0.1251  0.2160
20349W        W37196   6.934   5.112   3.262 -0.1715 -0.2056 -0.1782
20350W        W37197   4.308  15.517  15.680 -0.2438  0.3904  0.3228
20351W        W37198   1.252   9.521   2.023 -0.2334 -0.1194  0.0577
20352W        W37199  13.410   8.296   0.939 -0.1083  0.1358 -0.0880
20353W        W37200   2.900   9.425   0.198 -0.1505 -0.1693 -0.0650
20354W        W37201   4.052   4.038   2.258  0.0197 -0.1267  0.2553
20355W        W37202  16.764   0.956   3.221  0.2884  0.2127  0.1072
20356W        W37203  13.045  18.684   4.871  0.0699 -0.0714  0.1194
20357W        W37204  12.080  15.070   3.836  0.0764 -0.1273  0.2241
20358W        W37205  14.589   0.414   1.357  0.2720 -0.1439 -0.2139
20359W        W37206   1.740   8.761   4.626  0.1469 -0.0358  0.1641
20360W        W37207   1.413   3.716  12.246 -0.1553  0.4989 -0.0056
20361W        W37208   5.360  18.063   5.311  0.3248 -0.0311  0.1809
20362W        W37209   9.611   4.380  15.610  0.1495 -0.2343  0.1571
20363W        W37210   5.292   8.084   1.261  0.1624 -0.0586  0.2193
20364W        W37211   0.669   0.432  13.395  0.0373 -0.3657  0.0320
20365W        W37212   5.915  18.529   2.376 -0.2797  0.0753  0.0701
20366W        W37213  12.290  15.700   1.306  0.0168 -0.1413  0.0348
20367W        W37214   9.238   1.682   0.698 -0.1930 -0.0464  0.2094
20368W        W37215   4.601   9.863  11.356 -0.0050  0.6041  0.3133
20369W        W37216   7.737  12.067   4.293 -0.0760  0.0013  0.0698
20370W        W37217  18.539   8.431  12.785 -0.3127 -0.1135 -0.2540
20371W        W37218   7.660   2.604  12.864  0.1445 -0.0692  0.0489
20372W        W37219   4.672   0.989   2.129  0.1507 -0.0818 -0.1681
20373W        W37220  13.258   2.806  11.492 -0.1661 -0.1336 -0.2100
20374W        W37221  10.604  12.729   3.829 -0.1937 -0.2346 -0.0644
20375W        W37222  11.239   8.374   5.263 -0.2889  0.1111 -0.0587
20376W        W37223  14.796   7.103  13.220 -0.0908 -0.2318  0.1844
20377W        W37224  17.250   2.265   0.220  0.1704 -0.0241  0.0866
20378W        W37225  10.721  10.782  14.956  0.0805  0.0289  0.1093
20379W        W37226   2.494   7.869   5.090  0.1744 -0.1204 -0.0910
20380W        W37227   2.016   8.729  15.381 -0.1605 -0.5554  0.1682
20381W        W37228   4.291   9.065   2.864  0.0353 -0.1238 -0.0257
20382W        W37229   3.832   4.196  13.115 -0.0727 -0.1322 -0.2033
20383W        W37230  16.165   2.331   5.592 -0.0826 -0.2332 -0.4735
20384W        W37231  13.671   8.056   1.729  0.0093  0.2358 -0.2141
20385W        W37232  11.758   3.528  13.357  0.1234  0.1026 -0.4298
20386W        W37233   9.985  18.214   1.570 -0.1484  0.0754 -0.0201
20387W        W37234  15.965  18.703  14.032 -0.3071 -0.1438 -0.0005
20388W        W37235  17.239   3.697  15.644 -0.3350  0.1247 -0.0383
20389W        W37236  17.646  15.076  13.567 -0.1099 -0.1344 -0.0168
20390W        W37237  16.251   7.893  11.398 -0.2205 -0.1207  0.0681
20391W        W37238   7.879   7.802   3.000  0.3445  0.0421  0.0843
20392W        W37239  11.205   2.840  13.745  0.0284  0.0095  0.2053
20393W        W37240   0.963  11.239  11.558  0.2347 -0.2594 -0.2073
20394W        W37241   6.725  11.589   3.226 -0.1394 -0.2078 -0.0308
20395W        W37242  16.816  18.278   1.535  0.2635 -0.0317  0.0493
20396W        W37243  18.136   4.572   0.988 -0.0419  0.0638 -0.0345
20397W        W37244  15.876  15.265   1.045 -0.0884  0.1852  0.3039
20398W        W37245  11.354   4.227   3.978  0.0873 -0.3265 -0.1071
20399W        W37246  13.020  11.372   0.220 -0.0477  0.0882  0.2238
20400W        W37247  14.848  15.971  15.397  0.5374  0.0580 -0.0939
20401W        W37248  17.800   7.854   2.687 -0.0568 -0.0921  0.1052
20402W        W37249   1.282  11.122   1.081  0.1777  0.0258  0.1002
20403W        W37250  17.671  16.476  13.537 -0.1541  0.4003  0.1047
20404W        W37251   0.222  14.288  13.072  0.0168  0.0046  0.2990
20405W        W37252  15.062  17.005  12.654  0.3374  0.2883 -0.0427
20406W        W37253  16.922  16.820   3.015  0.0077  0.0298  0.0136
20407W        W37254  15.632  17.295   4.228  0.0181  0.3015 -0.1510
20408W        W37255   4.370   5.623   0.405  0.0514  0.0679 -0.3459
20409W        W37256   2.818   2.519   1.845 -0.2383  0.2288 -0.4157
20410W        W37257  17.296  16.716  13.754 -0.3560  0.1621  0.0330
20411W        W37258  15.131  12.554  11.760 -0.0451  0.0054 -0.2459
20412W        W37259   4.947  12.496  14.614 -0.1832  0.0684  0.2971
20413W        W37260   4.213   9.717   0.023  0.2740  0.3021  0.0924
20414W        W37261   3.282  10.211   0.915 -0.0336 -0.2879  0.1765
20415W        W37262  16.629   2.717   4.369  0.2390 -0.2677 -0.2241
20416W        W37263   6.567   1.845   1.970  0.0528  0.2490  0.0416
20417W        W37264   7.820   0.402  12.727 -0.1773 -0.3821 -0.0065
20418W        W37265   5.221   7.864   4.683 -0.0803  0.0077  0.1301
20419W        W37266  13.552  10.784   5.322  0.4343  0.2339 -0.0796
20420W        W37267  16.833   6.069  12.111  0.0046  0.0726  0.4327
20421W        W37268  15.324   7.497   6.092 -0.1010 -0.1458  0.2188
20422W        W37269  16.242   9.911  12.575  0.4605 -0.0478  0.2078
20423W        W37270  10.549   2.790  14.915 -0.0071 -0.1483 -0.2309
20424W        W37271   0.164   0.150  14.883  0.1243 -0.3037  0.4116
20425W        W37272   4.303  14.792  13.337  0.1043 -0.0574  0.0407
20426W        W37273  16.140   3.653   4.746 -0.1771  0.0328  0.0470
20427W        W37274   5.566   8.733  14.730 -0.3426  0.0139  0.0003
20428W        W37275   4.142   0.868  13.712 -0.2599 -0.2077 -0.5063
20429W        W37276  17.977  12.900   2.910 -0.4017 -0.1694  0.4027
20430W        W37277   4.085  15.159  15.417  0.1988  0.1032  0.1473
20431W        W37278   2.090  17.843  11.504  0.1381  0.1641 -0.0146
20432W        W37279  17.084   4.280   3.673  0.0948  0.0752 -0.1452
20433W        W37280   4.176   8.233   0.415 -0.0205  0.0426  0.2782
20434W        W37281   5.859  11.840  12.294 -0.1529  0.0491 -0.1373
20435W        W37282  10.936  15.177  14.676 -0.1044  0.0270  0.2135
20436W        W37283  11.015  14.636   0.528  0.2287  0.0072 -0.1284
20437W        W37284   9.220   6.384   0.494 -0.2176  0.2973  0.2844
20438W        W37285   5.315  12.678  10.844  0.0984  0.0518  0.0832
20439W        W37286   7.959   9.552  14.471  0.1768  0.2985  0.1725
20440W        W37287   1.585   7.901  13.088  0.1583  0.1374  0.0950
20441W        W37288   8.612  14.867   4.370 -0.0011  0.1286  0.0387
20442W        W37289   5.790  13.786   0.146 -0.1553  0.0203 -0.3410
20443W        W37290   2.494   9.838  11.969  0.1890 -0.0280 -0.0329
20444W        W37291   5.052  16.781   3.735  0.0181 -0.1601 -0.0580
20445W        W37292   6.095  18.238   3.591 -0.0602  0.1963 -0.2244
20446W        W37293  14.769   4.088  14.853  0.3678 -0.0711  0.0740
20447W        W37294   2.476   1.830   5.969 -0.4050  0.0192 -0.1772
20448W        W37295  11.829   4.524  13.239  0.1202 -0.0806 -0.2134
20449W        W37296  17.947   5.428   1.826  0.1546  0.1338 -0.0708
20450W        W37297   8.801  11.349   5.145  0.0833 -0.2305 -0.2073
20451W        W37298   6.375  12.675  12.440 -0.0812  0.0475 -0.1893
20452W        W37299   5.308  15.244   3.067  0.2978  0.0437 -0.0981
20453W        W37300   8.357   4.098   2.002  0.2029 -0.1440 -0.0334
20454W        W37301  13.384  10.341   5.090 -0.1268 -0.1562 -0.2103
20455W        W37302  16.925   8.086   5.489 -0.2352  0.1768 -0.0904
20456W        W37303  11.954   0.262  11.084 -0.0124 -0.0566  0.0360
20457W        W37304  13.002   1.927   4.614 -0.0614 -0.0981 -0.0760
20458W        W37305   6.771   5.896   3.328  0.2807  0.2078 -0.1128
20459W        W37306   5.956  10.152   1.377  0.1887  0.3127 -0.4961
20460W        W37307   2.689  15.966  13.542 -0.0555 -0.1398  0.0574
20461W        W37308   2.227   4.994  14.984 -0.1575  0.0837 -0.2321
20462W        W37309  12.380  13.818   0.056  0.0074  0.1295 -0.0175
20463W        W37310  15.691   5.087   5.635 -0.0191  0.2574  0.1542
20464W        W37311   4.557   4.677  11.480 -0.1795  0.3168 -0.0782
20465W        W37312  12.785   0.860  14.713 -0.0187 -0.1546  0.2760
20466W        W37313   6.381  17.956   1.662 -0.0202 -0.0504 -0.1328
20467W        W37314   6.481  12.420  10.924  0.2200  0.1170 -0.1810
20468W        W37315  13.768  17.121   4.991 -0.0042 -0.0203  0.0224
20469W        W37316   0.221  12.137  12.586 -0.0202  0.0049  0.1089
20470W        W37317  18.276   9.665   3.008  0.1134  0.0349  0.0904
20471W        W37318   4.971   7.350   4.819 -0.0855  0.0986 -0.2148
20472W        W37319   1.711  11.171  12.648  0.0389  0.1343 -0.2541
20473W        W37320  12.079   0.744   3.236 -0.0391  0.2358 -0.1989
20474W        W37321   4.535  12.549  10.747  0.1407 -0.0958  0.1554
20475W        W37322  11.693  14.528  10.332  0.3486 -0.0399  0.0871
20476W        W37323   4.050  12.434  14.360 -0.0141 -0.0492 -0.0554
20477W        W37324  13.451  11.782   1.624  0.0074  0.3416  0.0097
20478W        W37325   3.678  16.953  11.720 -0.0625  0.0168 -0.1142
20479W        W37326   8.475  15.059  15.730  0.0585  0.2635  0.4760
20480W        W37327   4.865  10.781  10.711  0.2185  0.3807 -0.0622
20481W        W37328   6.328   5.595  11.128 -0.0954 -0.1364  0.3895
20482W        W37329   7.344  13.984  13.690  0.3305 -0.3421 -0.3059
20483W        W37330  11.403  11.814  11.410  0.2118 -0.0524 -0.1454
20484W        W37331   2.503   0.651   2.859  0.0443  0.0935  0.0472
20485W        W37332   5.295  15.399   4.264 -0.1992  0.1503 -0.1475
20486W        W37333   6.185   3.972   2.684 -0.1970  0.0799 -0.4191
20487W        W37334   4.610  18.671   0.203 -0.1932  0.1854  0.1015
20488W        W37335  17.872  14.475   3.532 -0.1277  0.3264 -0.1636
20489W        W37336   4.742   8.214   0.684  0.1425  0.0572  0.2347
20490W        W37337  11.586  14.292   4.530  0.0399 -0.0958  0.3314
20491W        W37338   9.829   5.057  15.036 -0.2408  0.1803  0.0792
20492W        W37339   6.354   2.088   1.300 -0.2334 -0.2211  0.0368
20493W        W37340  13.812   0.128   0.300  0.0573  0.3142 -0.2429
20494W        W37341  16.510  11.963  13.543 -0.0182  0.0073  0.0615
20495W        W37342   8.134  13.392   0.891 -0.1467 -0.0437 -0.3057
20496W        W37343  18.310   1.473   2.039  0.1600 -0.2649 -0.1413
20497W        W37344  15.118   5.563  14.614 -0.1370 -0.1372 -0.0507
20498W        W37345   0.043   3.513   2.729  0.3022 -0.0788  0.3753
20499W        W37346  16.789   7.952  12.071  0.0208  0.1489 -0.1353
20500W        W37347  17.048  15.880  11.530 -0.0050 -0.0812  0.2626
20501W        W37348  17.188  15.700  12.346  0.2541 -0.0628 -0.2071
20502W        W37349  11.306   0.540   3.736 -0.0249 -0.1747 -0.2383
20503W        W37350   4.642   4.026  14.303 -0.2153  0.3618 -0.0377
20504W        W37351   2.799  18.241  11.103  0.2559  0.3436  0.1455
20505W        W37352  16.365  18.076   0.663  0.3038 -0.0636 -0.1039
20506W        W37353  16.905  18.196   0.541 -0.1822  0.0981 -0.0602
20507W        W37354  15.882  15.642   4.821 -0.1235 -0.1592 -0.2740
20508W        W37355   4.703  17.829   1.418  0.1527 -0.1163 -0.0419
20509W        W37356  12.044   1.791   2.039  0.1933 -0.0303 -0.0037
20510W        W37357   4.003  13.520  13.302  0.0917  0.0659  0.0910
20511W        W37358  14.454  10.492  11.538 -0.0885  0.1627 -0.0837
20512W        W37359   7.007   4.539   2.330  0.2341 -0.3461 -0.1272
20513W        W37360  11.031  16.182  14.588  0.1828 -0.1281 -0.2405
20514W        W37361   0.922   8.984   4.349 -0.0973  0.1069  0.0494
20515W        W37362   5.874  10.395  14.653 -0.1412 -0.0523  0.1729
20516W        W37363   4.438  14.610   4.242  0.1730 -0.1497 -0.0775
20517W        W37364  12.067   6.216   4.325  0.2242  0.2509 -0.0578
20518W        W37365  13.429  18.193   2.402 -0.1696  0.0212  0.2403
20519W        W37366   8.590   5.555  11.980  0.1374  0.0150  0.3250
20520W        W37367  10.945  13.141  14.835  0.0827  0.0344  0.0418
20521W        W37368   4.463  16.261   2.887 -0.0527 -0.3394  0.0605
20522W        W37369   6.675  10.685   0.809  0.3251  0.4131  0.0552
20523W        W37370  17.277   6.334  12.321  0.1248  0.1783 -0.2403
20524W        W37371   0.707  14.064   2.700 -0.0321  0.0221  0.2443
20525W        W37372  17.622   7.336   6.364 -0.1159  0.3714 -0.1148
20526W        W37373  16.389   9.594   2.059  0.0419  0.1658  0.2768
20527W        W37374   3.053   4.566   1.684 -0.0726  0.2840  0.0474
20528W        W37375   9.179   0.478  13.439 -0.1593  0.3430 -0.1859
20529W        W37376  17.034  15.403  11.320 -0.2790  0.4292 -0.0291
20530W        W37377  10.935  16.265   3.336 -0.3076 -0.1019  0.1178
20531W        W37378   2.542   3.886   4.190  0.0885 -0.0193 -0.2818
20532W        W37379   5.054   4.351  15.280  0.3521 -0.0983  0.1336
20533W        W37380  17.932  13.367  12.041 -0.0923 -0.1518 -0.0812
20534W        W37381  13.519   9.674   1.277 -0.1098  0.4276 -0.1570
20535W        W37382  16.825  11.700   4.652 -0.2808 -0.0775 -0.1497
20536W        W37383   9.995   9.869  14.289  0.0592 -0.0482  0.0243
20537W        W37384  16.162  10.542  15.452  0.2224 -0.2136  0.0378
20538W        W37385   5.547   7.578  11.494  0.0602  0.2870 -0.2046
20539W        W37386  10.701  14.561   0.160 -0.2876 -0.2627  0.4614
20540W        W37387  16.130   4.691   3.313 -0.0411 -0.0283 -0.1777
20541W        W37388   9.107   0.501  14.933 -0.0056 -0.0981 -0.2037
20542W        W37389  16.697   5.514  11.500 -0.1601 -0.1066  0.2729
20543W        W37390  14.044  11.064   1.487  0.0330  0.0400 -0.0719
20544W        W37391  14.537   7.487  14.479  0.0730 -0.1275 -0.1561
20545W        W37392  13.061   0.329   5.398 -0.1000 -0.0813  0.1192
20546W        W37393   0.402   5.919  12.205  0.1849  0.1464 -0.1686
20547W        W37394   5.403  12.740   5.270  0.0520  0.6095 -0.0391
20548W        W37395  10.477  18.203  12.101 -0.0292 -0.0071  0.1134
20549W        W37396  14.941  10.985  11.563  0.2665 -0.1732 -0.0297
20550W        W37397  13.869  17.125   4.453  0.0302 -0.0565  0.0272
20551W        W37398  16.838  17.581  11.781  0.0168  0.1919  0.1971
20552W        W37399  14.562   5.682   4.872 -0.1204  0.3734 -0.1740
20553W        W37400   9.890  15.711   2.175 -0.1257  0.1958  0.0902
20554W        W37401  11.450  16.051  10.593 -0.2135 -0.0698  0.1236
20555W        W37402   3.651  11.452  11.321 -0.3445  0.0213  0.2286
20556W        W37403  13.479   0.578  11.189 -0.1393  0.1380 -0.2068
20557W        W37404  10.834   4.508  14.661 -0.1317  0.0513 -0.2498
20558W        W37405  10.121   4.724   3.025  0.1317 -0.1789  0.1247
20559W        W37406   6.915   4.704   1.075  0.0048  0.0849  0.1492
20560W        W37407   7.400  13.450   3.204 -0.0329  0.1070 -0.0023
20561W        W37408   8.249  16.273   1.768 -0.0861 -0.0502 -0.0132
20562W        W37409   3.771  14.709   2.689 -0.1985 -0.0715 -0.2562
20563W        W37410   8.159  12.103   1.632  0.2180 -0.0059 -0.0151
20564W        W37411   8.959  14.699  15.074  0.2845  0.2092  0.0202
20565W        W37412   3.034   3.206   5.217 -0.0224 -0.1406  0.1870
20566W        W37413   5.960  13.754   1.937  0.1886 -0.2102  0.2243
20567W        W37414   0.450   9.582   4.593  0.0943 -0.0088  0.1469
20568W        W37415  14.214  16.250   5.837 -0.1564 -0.1648  0.0864
20569W        W37416   7.629  13.848  10.972 -0.1286  0.0459  0.2894
20570W        W37417   5.862   1.967  14.065 -0.0172  0.0591  0.0826
20571W        W37418  18.128   4.467  14.342 -0.0627 -0.0782 -0.1877
20572W        W37419   1.758  10.949   3.789 -0.1136  0.1587 -0.0848
20573W        W37420   0.231   6.119   0.757  0.1034 -0.1501 -0.2596
20574W        W37421  15.405   4.298   2.433 -0.3291  0.1648  0.2662
20575W        W37422   3.520   0.964   2.588 -0.2150 -0.1115 -0.3552
20576W        W37423  17.841  13.471  15.605 -0.0627 -0.0995 -0.0955
20577W        W37424   9.944   8.869   2.965  0.3403  0.1274 -0.4696
20578W        W37425   6.564  16.244  14.901  0.1890  0.4195 -0.1554
20579W        W37426   8.972   5.242   5.581 -0.0135 -0.0638 -0.1560
20580W        W37427  15.406   3.546  11.320 -0.0416 -0.2990 -0.1528
20581W        W37428   4.277  13.748   0.505 -0.3102 -0.0927 -0.3759
20582W        W37429   8.872  12.811   2.191 -0.0567 -0.2163  0.0857
20583W        W37430   4.109   2.278  12.234 -0.3686 -0.2580 -0.2686
20584W        W37431   3.363  10.301  12.261 -0.1329  0.1629 -0.0433
20585W        W37432  10.083  11.495  14.374  0.3544  0.4422  0.0746
20586W        W37433   2.967   5.972  14.989  0.3114  0.0646  0.1056
20587W        W37434   5.622  17.162   4.364  0.0966  0.4376 -0.2851
20588W        W37435   2.921   2.983  14.444 -0.0987 -0.1701 -0.4048
20589W        W37436  11.552  11.449   2.666 -0.0585 -0.1192  0.1027
20590W        W37437  13.986  15.360  11.425 -0.1973 -0.0886  0.1683
20591W        W37438   1.701  15.951   5.703 -0.2190  0.0605  0.2743
20592W        W37439  10.967   2.563  11.963 -0.0078 -0.0541 -0.4110
20593W        W37440   4.318   5.309   3.191 -0.0404  0.1264 -0.1746
20594W        W37441  11.439   4.796  12.326  0.1601  0.2064 -0.1501
20595W        W37442   4.584   5.303   4.757  0.0473 -0.1325 -0.1037
20596W        W37443  13.412   7.804   5.320 -0.1681 -0.1745  0.1922
20597W        W37444  15.148   2.175   1.552  0.4214 -0.1206 -0.0081
20598W        W37445   0.805   1.425   3.819 -0.3925  0.0090  0.0353
20599W        W37446  16.307   7.993   4.070 -0.0771 -0.0692 -0.1904
20600W        W37447  11.070   4.355   3.078  0.2341 -0.0317 -0.0108
20601W        W37448  13.391  12.022   2.191  0.0578  0.0066  0.0298
20602W        W37449  14.502   2.331   0.347 -0.1512 -0.2016 -0.4154
20603W        W37450   7.029  13.259  11.397  0.1950  0.1187 -0.1171
20604W        W37451   7.091  10.866  13.831  0.0406  0.3720  0.0147
20605W        W37452   5.422  13.260  14.793  0.0357  0.1170  0.1050
20606W        W37453  13.496  11.204  14.424 -0.0642  0.2091 -0.1890
20607W        W37454  11.353  17.190   1.912  0.0141 -0.2596 -0.2850
20608W        W37455   6.002  13.133   3.321 -0.3526 -0.0398  0.2132
20609W        W37456   5.385   5.386  15.633 -0.1676  0.5397  0.1994
20610W        W37457  11.197  11.157   3.354  0.2585  0.2347  0.4390
20611W        W37458   0.317   5.248  13.011 -0.1358 -0.2831 -0.2300
20612W        W37459  16.344   5.472   3.670 -0.0794  0.1039 -0.1115
20613W        W37460  11.662  10.528   1.420  0.1306  0.2768  0.0863
20614W        W37461   7.059   9.847   3.841  0.2414 -0.2930 -0.2509
20615W        W37462  10.512   7.848  15.093  0.2785 -0.0575 -0.1000
20616W        W37463  17.893   3.925  13.110  0.2144 -0.2878 -0.1597
20617W        W37464  11.904   8.986   4.754 -0.2003 -0.0059  0.1904
20618W        W37465  17.910   9.933   0.120 -0.2015 -0.1474  0.1568
20619W        W37466  14.488   8.819  12.927 -0.0181 -0.0869 -0.1918
20620W        W37467   0.758  17.495   1.180 -0.0991  0.2162 -0.0139
20621W        W37468  16.158   9.836  13.450 -0.2793  0.2448  0.1708
20622W        W37469  16.324  12.517   1.269  0.0190 -0.0056  0.2056
20623W        W37470  12.355  14.108   0.540  0.0880  0.1414 -0.5674
20624W        W37471   8.118   6.862   0.068 -0.0798 -0.3346 -0.0412
20625W        W37472   4.041  14.197   0.557 -0.1031  0.0013  0.1582
20626W        W37473  13.111  18.131  12.568  0.0947 -0.3944  0.3591
20627W        W37474   8.779   2.114  14.992  0.3896 -0.2019 -0.2250
20628W        W37475  10.204  18.203  14.383 -0.1377 -0.4040  0.0162
20629W        W37476  10.018   1.247  11.210  0.1929  0.1087 -0.3727
20630W        W37477  14.690   6.054  13.398  0.0504  0.2072  0.0753
20631W        W37478  13.613   8.556   3.584  0.2089 -0.0891  0.0471
20632W        W37479   2.241  15.160  12.809  0.0407  0.3331  0.2855
20633W        W37480  13.164   6.481  15.339 -0.1065  0.1271 -0.0887
20634W        W37481  17.130   1.511   0.983 -0.1050  0.3618  0.1871
20635W        W37482  11.167   5.618   0.145  0.1803 -0.2192 -0.2535
20636W        W37483  14.579   0.142  12.168  0.0014 -0.0555 -0.4485
20637W        W37484  12.175  13.373  14.555 -0.2824 -0.0418  0.0315
20638W        W37485  12.539   8.526   1.339 -0.1519 -0.2986 -0.0686
20639W        W37486  15.193  17.483   4.785 -0.1383 -0.0513  0.2782
20640W        W37487  12.150   8.008  14.401 -0.3525 -0.1168 -0.2091
20641W        W37488   1.681   2.102   2.455  0.0171  0.1192 -0.3629
20642W        W37489  14.218   9.532  12.358  0.3496  0.1787  0.0280
20643W        W37490  12.475   4.873   1.401  0.2111  0.0385 -0.0060
20644W        W37491   3.326  13.148   2.663 -0.0854 -0.0139 -0.1761
20645W        W37492   6.449   0.771   0.021 -0.2705 -0.0428  0.0905
20646W        W37493  17.788   8.619   3.898 -0.0507  0.1760  0.3067
20647W        W37494  13.147  12.615   2.089  0.1840  0.1898 -0.0372
20648W        W37495  12.548  10.338   4.404 -0.2097 -0.0171  0.3120
20649W        W37496   2.648   4.854  15.647  0.2586  0.0824 -0.0134
20650W        W37497   9.690   7.008  13.815  0.3783  0.0072  0.1079
20651W        W37498   6.471  18.541   3.532  0.2249  0.1625 -0.0300
20652W        W37499  12.566   1.323   4.025 -0.0058  0.0272  0.0156
20653W        W37500  16.448   7.775  12.429  0.3285  0.3365  0.3047
20654W        W37501  13.666   0.164   3.378 -0.2424 -0.0140  0.1033
20655W        W37502   1.772   4.289  14.690  0.1376 -0.1055  0.2528
20656W        W37503  16.518  11.306   0.288  0.0943 -0.1107 -0.1208
20657W        W37504  17.700  11.261   1.575  0.0953 -0.0487  0.0997
20658W        W37505   8.733   8.707  15.551 -0.0548  0.1319  0.0998
20659W        W37506   8.316   9.804  15.362 -0.2532  0.0587  0.0204
20660W        W37507  15.903   5.550  10.649 -0.2008  0.0140 -0.1983
20661W        W37508  14.977  16.842  13.166  0.0161  0.1304  0.2267
20662W        W37509  12.519  15.240  11.725  0.1886  0.1138 -0.1787
20663W        W37510  10.196   7.533  15.417 -0.1271 -0.3314 -0.1487
20664W        W37511  10.679  17.481  10.017 -0.0790 -0.3347  0.2204
20665W        W37512  13.286  10.600   0.588  0.0614  0.3014  0.0274
20666W        W37513  13.054  13.058  11.491  0.1595  0.0146 -0.1659
20667W        W37514  15.310   6.927  11.157  0.0445 -0.3296  0.3411
20668W        W37515   3.851   9.104   3.315  0.0336 -0.2754 -0.1255
20669W        W37516   4.442   3.174  13.834  0.0215 -0.2430 -0.2069
20670W        W37517   7.393   9.752  15.730  0.0985  0.0630  0.0547
20671W        W37518   8.710  17.543   1.498 -0.3599 -0.0281  0.3270
20672W        W37519   5.690  11.077   5.102  0.0570  0.0946 -0.1176
20673W        W37520  10.221  10.074   4.308  0.0809 -0.2245 -0.3034
20674W        W37521  11.076  18.130   3.618  0.0561 -0.2800  0.4003
20675W        W37522   5.131   5.787  15.421  0.2157  0.1998 -0.2478
20676W        W37523  15.132  14.334   5.427  0.2848 -0.1423  0.0148
20677W        W37524  14.208   4.047  12.251  0.0414 -0.5062  0.1741
20678W        W37525  18.183   9.473  15.470  0.2587  0.0454 -0.2464
20679W        W37526  14.302   0.671   3.546 -0.3259  0.1607 -0.1887
20680W        W37527   0.561  17.862  15.719  0.1162  0.0415 -0.3244
20681W        W37528  10.939   2.402   1.468 -0.1576  0.2057 -0.0446
20682W        W37529  11.051   0.213  12.957  0.1044  0.0067  0.0198
20683W        W37530   7.202   7.850   3.240 -0.0581  0.0773  0.0624
20684W        W37531   0.972   5.050   1.478  0.2081 -0.1203 -0.0875
20685W        W37532  17.278  14.024  11.645 -0.1272 -0.3195 -0.2236
20686W        W37533  11.412  13.839   0.117 -0.1022  0.0457  0.0622
20687W        W37534  18.474  15.618   4.237 -0.0879  0.0859  0.1798
20688W        W37535  11.293   9.484   0.391  0.1334 -0.2709  0.0960
20689W        W37536  15.090  15.687   0.207 -0.1083 -0.0261  0.0341
20690W        W37537  13.109  16.661   4.408  0.4603  0.2265  0.3274
20691W        W37538  16.859  18.031   1.104  0.1744  0.1394 -0.0191
20692W        W37539  15.908  10.196  13.878 -0.1658  0.2364 -0.1280
20693W        W37540   9.384   2.142  11.502  0.3213 -0.3359 -0.1895
20694W        W37541  14.326   8.062  11.330 -0.0743  0.1623 -0.0994
20695W        W37542  12.669   3.263   5.382  0.3250 -0.0839 -0.1919
20696W        W37543  14.796  15.846   4.187 -0.1453  0.2767  0.0961
20697W        W37544  10.146  12.742  13.129  0.0390 -0.0854  0.0717
20698W        W37545  13.845   8.243  11.673 -0.0034 -0.0232  0.0370
20699W        W37546   6.158   3.085   3.251 -0.0542  0.0415  0.1055
20700W        W37547   7.821   5.751   4.486  0.0357 -0.0789  0.3124
20701W        W37548   3.049  10.632  13.548  0.0022  0.1712 -0.0209
20702W        W37549   5.892  18.341   0.168 -0.1530  0.0700  0.0275
20703W        W37550   0.750  10.241   1.225  0.2419 -0.0207  0.2911
20704W        W37551  17.184   1.668   2.820  0.1639  0.0311  0.1019
20705W        W37552  15.928   4.978  13.352  0.1110  0.2607 -0.2087
20706W        W37553   3.144  14.154  14.971  0.0688 -0.1087 -0.0420
20707W        W37554   0.329   1.354  14.198 -0.0892 -0.0389  0.0202
20708W        W37555  12.002   4.569  14.742  0.1936 -0.0113  0.1198
20709W        W37556   8.727   5.539   3.041 -0.1673 -0.2964 -0.0826
20710W        W37557  12.492  17.676   5.160 -0.2654 -0.2187  0.0671
20711W        W37558  15.003   5.877   0.275  0.1309 -0.1911  0.0412
20712W        W37559   2.054  15.677   4.581  0.0013 -0.1886  0.1727
20713W        W37560  17.819  17.730   1.497  0.1397 -0.3147 -0.0469
20714W        W37561   7.958  17.333   4.633 -0.0724 -0.0017  0.3500
20715W        W37562   4.830  18.730   4.055  0.0133  0.1792 -0.0135
20716W        W37563  14.641  12.230  13.455 -0.1091  0.2978  0.0760
20717W        W37564  15.061  18.089  12.509  0.0317  0.3926 -0.1435
20718W        W37565   0.164  17.381   1.706  0.2690 -0.1182 -0.1366
20719W        W37566   3.396   9.474  15.516 -0.1427 -0.2771 -0.1169
20720W        W37567   0.375  16.972   1.463  0.0184 -0.3607 -0.2135
20721W        W37568   8.124  15.993   3.675 -0.2209 -0.1657 -0.2690
20722W        W37569  15.295  16.874   5.125  0.1321  0.0488  0.0705
20723W        W37570   1.448   2.676  14.724  0.2316 -0.2526 -0.1014
20724W        W37571   6.937  16.579   4.825  0.5827 -0.0552  0.1354
20725W        W37572  10.214  18.716  12.526 -0.0972  0.1374 -0.3174
20726W        W37573   6.563   4.365   3.502 -0.1207 -0.1766  0.1610
20727W        W37574  13.456  13.733  15.271  0.0656  0.1511  0.2105
20728W        W37575  14.247   5.581   2.089  0.2092 -0.2332 -0.0945
20729W        W37576  10.299  13.799  14.738 -0.2266 -0.0871 -0.3844
20730W        W37577   3.136   4.779  13.838  0.0461  0.0562 -0.0749
20731W        W37578  15.836   9.143   3.203 -0.0474  0.1127 -0.0925
20732W        W37579  17.179  10.310   1.043 -0.1220 -0.1329 -0.1162
20733W        W37580   3.181  14.922   3.354  0.2101 -0.2332  0.3035
20734W        W37581  17.756  14.800   3.941 -0.2200 -0.2755 -0.0979
20735W        W37582  13.251  13.249   5.993  0.0732 -0.2990 -0.0336
20736W        W37583   3.862   9.913   2.695  0.5250  0.0528  0.1142
20737W        W37584   7.874  15.278   4.115  0.0378  0.2328 -0.0247
20738W        W37585  12.165  17.182  14.426 -0.4057  0.0453 -0.3632
20739W        W37586   1.356   3.066   4.232  0.1484  0.2482  0.0571
20740W        W37587  12.399  16.520   1.554  0.0382  0.0970 -0.0928
20741W        W37588  11.017   3.797   3.892  0.2649  0.0105 -0.1217
20742W        W37589  17.108  13.041   2.283 -0.1738 -0.1078  0.1041
20743W        W37590   8.223   8.796  11.558 -0.1267  0.0428 -0.0694
20744W        W37591   9.170  10.796  11.243  0.4094 -0.0457  0.3419
20745W        W37592   3.906   1.719   1.998 -0.0834  0.0495  0.1339
20746W        W37593  15.583   5.825  10.348  0.1137 -0.0738  0.0779
20747W        W37594   6.848  12.534  12.581  0.1125 -0.0140  0.1989
20748W        W37595  17.967   6.456   1.131  0.1427 -0.0451  0.0387
20749W        W37596   4.793   8.023   1.153  0.0980 -0.2281  0.0438
20750W        W37597  15.369   2.909   2.357 -0.2071 -0.2117  0.2031
20751W        W37598  12.817   6.376   1.290  0.2165  0.1874 -0.0681
20752W        W37599   7.844  10.958  11.889 -0.2354 -0.0914 -0.2256
20753W        W37600  15.500  12.883   4.180 -0.1805 -0.1157 -0.0133
20754W        W37601  17.569   8.103  12.684 -0.0275 -0.0846  0.1234
20755W        W37602  18.642   4.889  13.507 -0.1040  0.1222 -0.1061
20756W        W37603   2.938  12.333   3.655  0.3018  0.0831  0.1727
20757W        W37604   6.021   2.885  11.528 -0.4479  0.3780 -0.0787
20758W        W37605  16.989   1.522   4.448 -0.1134  0.0027  0.1148
20759W        W37606  18.004  17.814   2.730  0.1433 -0.0279 -0.1612
20760W        W37607  14.583   7.685   0.730  0.0400 -0.2521 -0.3143
20761W        W37608  16.370  17.693   4.778  0.5466  0.1684 -0.1927
20762W        W37609   6.619   9.508  13.908 -0.1499 -0.2362 -0.0959
20763W        W37610   1.206   6.772  14.952 -0.1558  0.1061 -0.0234
20764W        W37611  14.062   7.906   4.734 -0.1440  0.1007 -0.1497
20765W        W37612  14.480   7.853   2.794 -0.3104  0.0444 -0.2345
20766W        W37613  14.403   5.833  14.071  0.0675 -0.2624 -0.0276
20767W        W37614  10.144  12.135   4.324  0.1665 -0.2173  0.2421
20768W        W37615   1.573   3.571  15.097 -0.2255  0.0086 -0.2645
20769W        W37616   6.293  17.629  15.671  0.5057 -0.3625 -0.0825
20770W        W37617   2.061   0.746   0.327 -0.0455  0.0873  0.1886
20771W        W37618  14.115  12.326   6.085  0.2555 -0.1832  0.3066
20772W        W37619   6.253  11.452  10.987 -0.2475  0.1648  0.1052
20773W        W37620  13.766   4.024  15.755 -0.2184  0.1929 -0.2467
20774W        W37621  16.402  16.149  12.263  0.0892  0.0596  0.0419
20775W        W37622   2.387  14.798   4.793 -0.0588 -0.0096 -0.0115
20776W        W37623  11.656   7.541  15.327 -0.1391 -0.3672 -0.4415
20777W        W37624   4.882   0.471   0.953 -0.1223 -0.1194  0.1472
20778W        W37625   4.052  11.072   0.429 -0.0784 -0.1178 -0.2940
20779W        W37626   0.300  17.201   2.763  0.2145  0.1102  0.2009
20780W        W37627  18.484   7.060  15.190 -0.4331 -0.0999 -0.0795
20781W        W37628  18.708  17.311  11.284  0.0915  0.1242  0.1880
20782W        W37629  13.282   3.961  14.186  0.1719  0.1727 -0.0155
20783W        W37630  11.172  14.298   1.925  0.0100  0.2726  0.0669
20784W        W37631   3.922  10.556   0.444 -0.2377  0.1494 -0.0020
20785W        W37632   3.499   3.450  11.888 -0.3314  0.1959 -0.2588
20786W        W37633   7.450   5.241   4.467 -0.3093  0.1715  0.1637
20787W        W37634  13.802   9.006   2.881  0.1033  0.0615 -0.1727
20788W        W37635   9.008  17.730   3.086 -0.2415  0.0471 -0.0573
20789W        W37636   2.950   7.721  11.153  0.3330 -0.1220 -0.1183
20790W        W37637  13.555   7.697  15.133  0.0942  0.0480 -0.0104
20791W        W37638  10.040   2.902   0.878  0.1445 -0.1228 -0.0672
20792W        W37639  18.624   8.826  15.687 -0.0331 -0.1247  0.0945
20793W        W37640   7.291   4.766   0.362  0.0129  0.1748 -0.2433
20794W        W37641   7.631  15.261  10.572  0.0808 -0.0976  0.0211
20795W        W37642  18.371   7.700   1.582 -0.1529  0.0725 -0.0464
20796W        W37643   9.424   6.846   3.723 -0.1384  0.0539 -0.1746
20797W        W37644   1.030   5.580  12.065  0.0372 -0.0756 -0.1858
20798W        W37645  14.155  10.775   4.064  0.1593 -0.0448 -0.1968
20799W        W37646  10.862  14.850  15.171 -0.1051  0.0382  0.0396
20800W        W37647  12.283  18.105   2.276  0.0145 -0.2050 -0.2969
20801W        W37648   4.455   3.878   1.883 -0.0641 -0.0629 -0.0892
20802W        W37649   2.537   6.803  11.754  0.3673  0.0649 -0.1926
20803W        W37650   5.315  15.704   3.292  0.1517  0.0152 -0.1210
20804W        W37651   3.189   7.155   3.519 -0.1102  0.2611 -0.2945
20805W        W37652   7.539   2.496   0.326 -0.2570 -0.0822  0.0332
20806W        W37653   0.594  14.701   0.804 -0.2784  0.2004  0.2822
20807W        W37654   5.248  17.156   3.309  0.0106 -0.3592  0.1701
20808W        W37655  16.125   1.612   1.128  0.2270 -0.0792 -0.1147
20809W        W37656   3.616  18.459   1.542 -0.1606 -0.0463 -0.0618
20810W        W37657  12.772  16.336  13.594 -0.4037 -0.1589  0.0455
20811W        W37658  17.227   5.345  13.471  0.2897 -0.2650 -0.1218
20812W        W37659  16.342   9.408  13.732 -0.1059 -0.0874 -0.0772
20813W        W37660  14.509  10.961  13.668  0.1356 -0.1299 -0.0453
20814W        W37661   0.256   0.662  15.663  0.1989  0.3415  0.0321
20815W        W37662   9.218  16.985   5.069 -0.1758  0.2657 -0.3243
20816W        W37663   8.670   1.879  11.169  0.0759  0.0834 -0.1315
20817W        W37664  12.886   9.105  12.231  0.0034  0.0133  0.1956
20818W        W37665  13.824   2.464  12.455 -0.1834 -0.2640 -0.2086
20819W        W37666  16.494   5.687   0.900 -0.2970 -0.0254 -0.2803
20820W        W37667  11.876   9.963  15.408  0.3349 -0.0568 -0.0358
20821W        W37668   6.640  10.122   2.632  0.4182  0.0804 -0.0706
20822W        W37669  17.629   9.350  14.560  0.2721  0.2642 -0.3838
20823W        W37670   8.200   7.806  11.514 -0.0034 -0.0001  0.1972
20824W        W37671  12.956   1.781  14.590 -0.0818  0.1402  0.0001
20825W        W37672  18.727   5.138   4.266 -0.1124 -0.3555  0.3048
20826W        W37673   8.475  15.689  10.361  0.1973  0.0086 -0.0715
20827W        W37674  15.555  12.294   3.300 -0.1438  0.0387 -0.0560
20828W        W37675  15.855  14.038   0.035  0.2999 -0.2517  0.4121
20829W        W37676   7.509   0.469  13.972 -0.1222 -0.4605 -0.2327
20830W        W37677   0.491   7.974  13.218  0.0789 -0.3478 -0.1545
20831W        W37678  11.792  16.686   3.249  0.0767  0.1451 -0.0268
20832W        W37679  10.061  18.345   2.199 -0.3257 -0.1779  0.0303
20833W        W37680   0.337  13.827   0.649 -0.1531  0.1372  0.0524
20834W        W37681   4.931  11.869   5.113  0.1768  0.1841 -0.1226
20835W        W37682  11.132  10.652   1.055 -0.2337 -0.1014 -0.0782
20836W        W37683   2.106  12.266   0.722  0.0346  0.1429 -0.0455
20837W        W37684   1.273  14.593  12.744 -0.0990 -0.0749  0.0076
20838W        W37685   3.635  15.965   2.481  0.0799  0.0217 -0.2142
20839W        W37686   0.989   5.482  11.170 -0.0927 -0.0080  0.4726
20840W        W37687  15.926  11.483  11.573  0.1383 -0.1388  0.0670
20841W        W37688   2.486  17.353   3.927 -0.1069 -0.1844 -0.3605
20842W        W37689   5.161   5.751  12.101 -0.1809  0.0031 -0.3040
20843W        W37690  14.722   8.542   0.456 -0.3687  0.0588 -0.2918
20844W        W37691  10.583   5.315   1.402 -0.1625  0.0397 -0.2503
20845W        W37692  11.218   8.283   1.271  0.0539 -0.1808 -0.0694
20846W        W37693  11.861  18.797   4.360  0.1162 -0.1456  0.1253
20847W        W37694   5.051  10.816  13.175  0.1749 -0.4763  0.0013
20848W        W37695   1.171  15.011  13.127 -0.2451 -0.1137  0.3050
20849W        W37696  10.316   6.822  14.917  0.3115 -0.1399 -0.2883
20850W        W37697   0.299  10.749  15.610  0.5436  0.0006 -0.2053
20851W        W37698  17.353  16.094   0.629  0.0996  0.0699  0.0781
20852W        W37699  15.714   7.986   2.768  0.1066 -0.1167 -0.0456
20853W        W37700   3.699   7.967  11.438  0.3297  0.1000  0.2313
20854W        W37701  13.846   2.558   3.070  0.0017 -0.0691 -0.0768
20855W        W37702   9.201   2.899   5.055  0.2856  0.2709 -0.1676
20856W        W37703   1.243   8.332  13.325  0.0371 -0.2234  0.0232
20857W        W37704  11.785  18.310   4.853  0.1774 -0.1340 -0.3562
20858W        W37705   7.298   4.904  11.312  0.4705  0.1179  0.0277
20859W        W37706   6.063   2.684  14.570 -0.0559  0.0609  0.1069
20860W        W37707  11.747   3.546   2.491  0.0503  0.0431  0.0739
20861W        W37708   2.681   3.331   4.574  0.1265  0.0799  0.0315
20862W        W37709   3.717  10.670  11.659  0.0788 -0.5274  0.0709
20863W        W37710  16.240  12.541  15.148  0.0508 -0.1908 -0.0477
20864W        W37711  17.279   8.696   3.538 -0.2056 -0.2278 -0.0375
20865W        W37712  10.024  10.437   5.477 -0.0410  0.1449 -0.3999
20866W        W37713  16.401   6.739  12.665 -0.0596 -0.1679  0.0539
20867W        W37714   8.910  16.348  15.772 -0.1023  0.1483 -0.2461
20868W        W37715   4.619   3.655  11.960  0.2516  0.2409 -0.0300
20869W        W37716   7.689  11.698  11.601  0.0021 -0.0502 -0.0424
20870W        W37717  16.872   6.188  13.596 -0.0417 -0.0114  0.0736
20871W        W37718   1.547   6.768  12.300 -0.2194  0.0739 -0.1298
20872W        W37719  10.027  15.298  10.685 -0.3888 -0.0415  0.2418
20873W        W37720  14.955   5.069  14.627 -0.2500 -0.1947 -0.0707
20874W        W37721  10.717  11.025   2.752 -0.0446 -0.0689 -0.0445
20875W        W37722  18.402   3.791  13.204 -0.4013  0.1429  0.3596
20876W        W37723   5.435  10.050  12.695  0.0045 -0.3455 -0.4764
20877W        W37724   4.998   4.185   3.816  0.1444 -0.1852  0.0898
20878W        W37725  12.320  17.477   0.164 -0.0576 -0.0837 -0.0128
20879W        W37726   0.004   4.367  13.413 -0.3007  0.0527 -0.1657
20880W        W37727  10.922   3.342  12.829 -0.0690 -0.0346 -0.1944
20881W        W37728  16.332   8.822  13.436  0.0217  0.2618  0.2102
20882W        W37729  13.184  15.745   0.583 -0.1726 -0.2001  0.0361
20883W        W37730  17.551  11.663   4.135  0.1487  0.1401 -0.1427
20884W        W37731   8.578  15.810   0.605  0.0367 -0.2138 -0.1393
20885W        W37732   4.617  18.116  11.438  0.1898 -0.0316 -0.2642
20886W        W37733   9.477  10.034  11.105  0.0586 -0.1714 -0.3384
20887W        W37734  18.410  15.896  14.217 -0.2408  0.0963 -0.1384
20888W        W37735   3.665  11.585  15.381 -0.2009 -0.0330  0.0268
20889W        W37736   9.797  12.414  10.419 -0.3227 -0.0781  0.0206
20890W        W37737  14.279   1.166  12.450  0.0709  0.2498 -0.2910
20891W        W37738  11.939  11.626   4.534  0.1032  0.0319 -0.2328
20892W        W37739   2.696  13.452   4.999 -0.1070  0.0898  0.2647
20893W        W37740   3.010  18.505   1.982 -0.1032  0.1164 -0.3102
20894W        W37741  14.157   5.907  10.092 -0.0869 -0.1485  0.0301
20895W        W37742   5.264   4.118   4.906 -0.1193 -0.4406 -0.3508
20896W        W37743  14.592   0.053  12.675  0.2543  0.0197  0.0300
20897W        W37744   7.915   5.214  12.939  0.1051 -0.0194 -0.0878
20898W        W37745  15.228  17.818   2.860 -0.0681  0.1906  0.0677
20899W        W37746   9.241  12.141   4.708 -0.1533  0.1299 -0.0763
20900W        W37747  13.147  13.502   0.342 -0.0961 -0.0657  0.1165
20901W        W37748   8.613   6.050  15.019  0.3001 -0.1378  0.2133
20902W        W37749  11.609  11.911   2.482 -0.0281  0.0422 -0.0248
20903W        W37750  13.994   4.613   3.229  0.1222  0.1167 -0.2055
20904W        W37751  18.574   1.317  12.784  0.0133  0.1679 -0.2503
20905W        W37752   7.594   7.687   4.926 -0.3208 -0.2910 -0.2012
20906W        W37753   0.509   4.554  13.593 -0.1389  0.1038 -0.0770
20907W        W37754  12.070   4.358   1.388  0.0175  0.1427 -0.2128
20908W        W37755   1.684  10.213   3.119  0.3275 -0.3329 -0.1703
20909W        W37756   3.967   7.966  12.180 -0.3735  0.4026 -0.0687
20910W        W37757  17.585  15.913   1.263 -0.0538  0.0181  0.2277
20911W        W37758  17.018   5.881   3.301 -0.2307 -0.1362 -0.0128
20912W        W37759   8.275  16.149   2.335  0.0162  0.2470  0.0001
20913W        W37760  17.243  18.793   5.833  0.0701  0.1024  0.1505
20914W        W37761   7.830  14.110   1.267  0.3759 -0.1406 -0.0194
20915W        W37762   6.878   3.071  14.613  0.2721 -0.0038  0.2567
20916W        W37763  18.726  14.005   3.447 -0.0808  0.3117 -0.0117
20917W        W37764   3.612  11.423  13.995 -0.0863  0.1684  0.0612
20918W        W37765   5.488  16.709  15.534  0.2971  0.1537 -0.0484
20919W        W37766   8.835  17.466   3.456  0.1094 -0.1369  0.0383
20920W        W37767  13.435  16.517   5.133 -0.0704 -0.3463 -0.0348
20921W        W37768   5.637   7.641   3.032 -0.1736  0.0724 -0.1193
20922W        W37769  10.296   1.278   3.785 -0.1719 -0.0588  0.1551
20923W        W37770  16.895  12.097   3.021  0.0347  0.1052 -0.0966
20924W        W37771   2.551  15.104  13.927 -0.1263  0.0484 -0.0897
20925W        W37772   6.257  11.488  11.915  0.0902 -0.0656  0.0965
20926W        W37773  15.823   7.836   3.935 -0.1936  0.0386  0.1832
20927W        W37774   8.666  11.099   4.381  0.2727  0.1206 -0.1546
20928W        W37775  17.622  18.440  15.186  0.1231  0.2144 -0.0784
20929W        W37776   6.110   9.378  15.562  0.1280 -0.0584  0.1767
20930W        W37777  13.050  11.841  13.383  0.0202 -0.0738  0.2183
20931W        W37778  16.261  17.264   5.102  0.0929  0.2216  0.0655
20932W        W37779  13.948  12.720   1.997  0.0624 -0.1013  0.0091
20933W        W37780  15.554  17.963  14.258  0.2934  0.0244 -0.0421
20934W        W37781  17.831   9.704   1.697 -0.0152  0.2003  0.3538
20935W        W37782   2.971   0.743   1.219 -0.2172 -0.2328  0.3970
20936W        W37783   7.324  12.713   1.514  0.2010  0.0022 -0.0143
20937W        W37784   5.358   6.707   5.202  0.0172 -0.1354  0.0408
20938W        W37785   8.605   2.702  15.704  0.3458  0.0552 -0.2308
20939W        W37786  17.039   0.588   1.512  0.1141  0.0640 -0.2224
20940W        W37787   4.134  14.456   3.805 -0.0609  0.0536 -0.2155
20941W        W37788   3.878  16.359  15.345  0.3284  0.1956 -0.4168
20942W        W37789  14.483  10.430   3.933  0.1969 -0.1480  0.1184
20943W        W37790   8.917  13.365  15.503  0.1550  0.0135  0.1349
20944W        W37791   6.430  15.459   0.896 -0.3457 -0.0483 -0.3015
20945W        W37792  10.340   7.355  12.344  0.4272 -0.0758  0.0524
20946W        W37793  14.838   7.740   3.623  0.0682 -0.1118 -0.0037
20947W        W37794  10.370  13.629  13.420 -0.1163 -0.1593  0.1110
20948W        W37795   7.226   7.274  12.273 -0.4401 -0.1971  0.3535
20949W        W37796   6.129  15.301  13.990 -0.0139 -0.1163  0.0104
20950W        W37797  14.798   5.012   3.315 -0.3364  0.3858 -0.2013
20951W        W37798   6.924  16.960   5.686  0.3151  0.0184  0.1019
20952W        W37799   2.249   9.839  15.157  0.1954  0.1824  0.3486
20953W        W37800   9.695   5.366  11.159  0.1678  0.0582 -0.1672
20954W        W37801   7.284  16.012  14.266  0.3579 -0.0303 -0.0110
20955W        W37802   8.997  18.541  12.160 -0.2769  0.1923  0.1854
20956W        W37803   4.343  18.070   1.129  0.1733  0.3310  0.3614
20957W        W37804   9.344   1.148  13.179  0.2628  0.3160 -0.0873
20958W        W37805   8.633  18.532   3.790 -0.0331  0.1365 -0.3095
20959W        W37806   7.649  10.123   6.017 -0.0314 -0.2846 -0.2389
20960W        W37807  15.633   2.397  13.410 -0.2915  0.2666 -0.1078
20961W        W37808  16.135  11.672   0.217  0.3129 -0.1450 -0.3105
20962W        W37809  12.577   9.211   5.268  0.5221  0.2412 -0.0900
20963W        W37810   0.642  11.996  12.077 -0.3577 -0.3187  0.1133
20964W        W37811  14.411  11.526   4.062  0.1406  0.1351  0.4570
20965W        W37812   6.165  15.490  10.806 -0.2154  0.5523  0.2056
20966W        W37813  14.070  11.928  14.051 -0.2351  0.2650 -0.3391
20967W        W37814   0.954   2.349   3.510 -0.0141  0.0122 -0.2457
20968W        W37815   8.429  13.796   1.227  0.0074 -0.0119 -0.3591
20969W        W37816   2.422   9.127   5.670 -0.1726 -0.0378 -0.1980
20970W        W37817   3.489  10.737   0.139  0.0936 -0.1857  0.1739
20971W        W37818   0.326  10.217  14.634  0.2771  0.0604  0.0611
20972W        W37819  13.250  13.537   1.310  0.0947  0.1207 -0.3403
20973W        W37820  18.648   0.864   0.673  0.0456 -0.1161  0.2372
20974W        W37821   6.186   5.183  12.614 -0.0601  0.1984  0.2965
20975W        W37822  14.949  14.906  15.369 -0.1448  0.1171  0.1917
20976W        W37823  13.736   0.742  13.112  0.0362  0.0296 -0.0147
20977W        W37824   9.905  17.927  15.182  0.1845  0.1419  0.1406
20978W        W37825   8.298   3.707  14.068  0.2494  0.1963  0.0274
20979W        W37826   8.913   8.194  14.646  0.0236 -0.0439 -0.3565
20980W        W37827  13.825  11.500  15.280 -0.0725 -0.2639 -0.0855
20981W        W37828  14.701   2.915  11.719 -0.1898 -0.0924 -0.1205
20982W        W37829  18.491  14.408   0.803 -0.2211 -0.0342 -0.0927
20983W        W37830  14.419  16.659   1.397 -0.0879  0.1006 -0.1264
20984W        W37831   1.741   7.867   0.308 -0.0433  0.1989  0.1106
20985W        W37832   1.837   7.752  15.005 -0.1938 -0.2431 -0.1019
20986W        W37833  14.991   4.957   0.763 -0.0336  0.0199 -0.1405
20987W        W37834  11.991   2.458  13.985  0.1661 -0.0245  0.1700
20988W        W37835   9.509  15.777   1.197 -0.2099  0.2481  0.0537
20989W        W37836   9.196  15.275   4.435 -0.1219 -0.1449 -0.0745
20990W        W37837   7.265   0.440   2.873 -0.1471 -0.2371  0.1854
20991W        W37838   5.704  11.621   1.598 -0.0180 -0.2842 -0.0881
20992W        W37839   1.892  17.662   3.062 -0.1641 -0.1192  0.1035
20993W        W37840   8.101   9.833   4.868 -0.1282 -0.1419 -0.0243
20994W        W37841  16.804   9.311  15.438  0.2563 -0.1053  0.0098
20995W        W37842  17.077  12.896  12.294  0.1831 -0.0758 -0.0243
20996W        W37843  16.769  16.796  13.686 -0.1321 -0.1875 -0.1039
20997W        W37844  12.385   1.397   2.079  0.0178 -0.0627 -0.1401
20998W        W37845  14.694  18.472   0.056  0.0936  0.1474  0.0552
20999W        W37846  13.535  10.154  15.463  0.3876  0.1570 -0.1668
21000W        W37847  11.485  13.191  12.858 -0.0172  0.1392  0.0462
21001W        W37848   3.612  12.398   0.202  0.2622  0.0986  0.0724
21002W        W37849   6.957   7.393   2.960 -0.1526 -0.1896 -0.0933
21003W        W37850  13.551   1.537   4.494 -0.1416 -0.0544 -0.0359
21004W        W37851   3.611  15.559  11.457  0.2045  0.3663 -0.1118
21005W        W37852   5.191   9.157   3.434 -0.1625  0.1606  0.2888
21006W        W37853   2.942  10.391  12.473 -0.1921 -0.0959 -0.1610
21007W        W37854  13.702   0.149  11.318 -0.3826 -0.0129  0.3644
21008W        W37855   9.193  16.763  10.575  0.0224  0.1302 -0.2707
21009W        W37856  14.421  18.032   1.404 -0.2761  0.0448  0.0918
21010W        W37857   2.468   4.879   4.075 -0.1803 -0.0338 -0.0850
21011W        W37858  16.436   5.030  15.510 -0.0360 -0.2090  0.2724
21012W        W37859  10.746  12.325   5.269 -0.0687 -0.0431 -0.2758
21013W        W37860   1.468  18.357   5.451 -0.0923 -0.0258  0.0799
21014W        W37861   9.606  10.567  11.142 -0.1214 -0.3043  0.0054
21015W        W37862  15.831   9.488   4.437 -0.6222 -0.1615  0.1967
21016W        W37863  17.590  12.093  11.786  0.2507 -0.0111 -0.0167
21017W        W37864   8.726   4.593  10.899 -0.0322 -0.2641 -0.1900
21018W        W37865   2.598  12.451   2.694 -0.2388  0.1132 -0.5242
21019W        W37866  10.299  16.518   1.917  0.0487  0.1653  0.0075
21020W        W37867  14.721   1.955  14.899  0.1195  0.1389  0.3072
21021W        W37868  11.472   3.464   3.630  0.1377  0.2175 -0.2196
21022W        W37869   9.780   3.805  14.806 -0.1094 -0.1241  0.0696
21023W        W37870   2.450   1.582   2.422  0.0842  0.0174  0.2960
21024W        W37871   7.228   7.615   2.125  0.0135  0.0640 -0.0932
21025W        W37872  14.845  15.289   4.246  0.0733 -0.1138  0.3650
21026W        W37873   9.133  16.060   3.802 -0.1322 -0.3827  0.2779
21027W        W37874  15.213  15.997  13.429  0.2314 -0.0497 -0.0299
21028W        W37875   0.532  18.073   2.721  0.0528 -0.0012 -0.5259
21029W        W37876  14.090   5.376   4.739  0.1772  0.1229 -0.4203
21030W        W37877  12.921  17.356   4.314  0.3036 -0.2792 -0.3340
21031W        W37878  15.827  12.969   0.669 -0.3407  0.3704  0.1453
21032W        W37879   0.048  17.952   2.594 -0.0954 -0.2618  0.1227
21033W        W37880  15.320   0.959  14.407  0.2690 -0.1755  0.1845
21034W        W37881  16.369  16.280  13.089  0.2763  0.1572 -0.1636
21035W        W37882   0.498   7.766  14.174 -0.1029  0.1311 -0.0790
21036W        W37883  10.474   3.662  14.056  0.3811  0.2916 -0.0195
21037W        W37884   1.898   5.502   1.182 -0.0126  0.0059  0.2227
21038W        W37885  12.605   3.255  13.152 -0.2068 -0.2136  0.2103
21039W        W37886  16.459   2.376  15.147  0.0003  0.1869 -0.2654
21040W        W37887  13.415  12.424  13.787 -0.2332  0.1109 -0.3214
21041W        W37888  18.612   2.284   2.098 -0.3597  0.0474 -0.1530
21042W        W37889   6.083  15.555  12.209 -0.2607 -0.1102  0.0719
21043W        W37890   4.325  13.273  13.657 -0.0042 -0.2791  0.2398
21044W        W37891   3.048   6.662   3.622 -0.1992  0.2566  0.0047
21045W        W37892   6.336   7.916  15.179  0.2482 -0.0636  0.0179
21046W        W37893   9.583   8.649  15.621  0.0607 -0.1584 -0.0013
21047W        W37894   0.682   2.886   3.964 -0.2600 -0.0846 -0.0171
21048W        W37895   3.517  11.871   0.047 -0.1180 -0.1074  0.1762
21049W        W37896   8.338  18.358  12.900 -0.1328  0.0646  0.1484
21050W        W37897   3.952  15.284   3.805  0.2556 -0.0667 -0.0188
21051W        W37898  11.835  10.878   2.120 -0.0630 -0.0368  0.1899
21052W        W37899  18.567   9.924   1.052  0.3537 -0.3689 -0.1153
21053W        W37900   9.066  10.476   2.005  0.0398  0.2059  0.0308
21054W        W37901   9.497   8.904   5.575  0.1075 -0.0705 -0.0031
21055W        W37902  16.268   9.573  15.542 -0.2514 -0.0584  0.0698
21056W        W37903   3.786   8.880   4.708 -0.3058 -0.1892 -0.1035
21057W        W37904  10.374   0.417  10.140 -0.0512 -0.1282  0.4791
21058W        W37905   1.314   7.785   2.305  0.1477 -0.1239  0.3714
21059W        W37906   6.864   3.261  15.097  0.2941 -0.1998 -0.1303
21060W        W37907  14.564  14.041   4.765 -0.0182  0.0516  0.0166
21061W        W37908  11.143  15.253  10.749 -0.1232 -0.1069  0.1925
21062W        W37909   8.712  14.359   1.987  0.1174 -0.3154  0.0461
21063W        W37910   0.562  12.376   5.591 -0.1987 -0.0501 -0.0306
21064W        W37911  13.286   7.995   1.378 -0.1732  0.1388 -0.0001
21065W        W37912  18.692  12.567   0.330 -0.2735  0.0593  0.0112
21066W        W37913  15.752   7.536  14.240  0.2966  0.0964 -0.0349
21067W        W37914  18.075  11.968  11.749  0.0791  0.2961 -0.1495
21068W        W37915   1.670   0.245  11.026  0.1393  0.0910 -0.0824
21069W        W37916   8.716   0.805   4.124 -0.1211  0.3045  0.0391
21070W        W37917  11.704  15.386   5.441 -0.4316  0.2825  0.5488
21071W        W37918   9.756  12.818  10.999  0.2058 -0.1287  0.0199
21072W        W37919  14.277  11.779  11.762 -0.0049 -0.2036  0.1104
21073W        W37920   2.867  13.093  10.937 -0.2392  0.4048 -0.1158
21074W        W37921  15.728   7.727  14.866 -0.0076  0.2830 -0.1829
21075W        W37922  14.675  12.767   2.969 -0.0397 -0.4136  0.2637
21076W        W37923  13.893   3.197  12.020  0.0054 -0.0246  0.0338
21077W        W37924   6.460   6.071  10.956 -0.0888  0.1629 -0.0046
21078W        W37925   8.631   2.066   1.287 -0.0835 -0.1333  0.1329
21079W        W37926  15.432  18.732  11.363  0.0978 -0.2490 -0.1765
21080W        W37927   4.336  16.496  11.904 -0.2275 -0.2669  0.0195
21081W        W37928   6.733   1.891   4.662  0.1682 -0.2100  0.1605
21082W        W37929  17.009   3.662   1.989  0.1926 -0.4323  0.2773
21083W        W37930   8.094  14.837   4.187 -0.1306  0.2242  0.1072
21084W        W37931  16.930  15.740   3.767 -0.0072  0.4234 -0.0460
21085W        W37932   1.596   3.502  11.343 -0.0402 -0.2307  0.1448
21086W        W37933   4.929  13.654  10.724  0.1634  0.2462  0.1766
21087W        W37934  18.848   0.814   1.110  0.0503 -0.1448  0.1042
21088W        W37935   5.585  18.308   1.310 -0.0243 -0.0301 -0.1562
21089W        W37936  18.563  17.786  11.467 -0.0738  0.2766  0.2570
21090W        W37937   3.578   5.654  15.650 -0.3462  0.1141 -0.1022
21091W        W37938   6.508   7.091  14.674 -0.0425  0.1967 -0.0899
21092W        W37939   0.938  14.171  12.614 -0.1126 -0.2444  0.1546
21093W        W37940   2.178   7.043  12.180  0.1493 -0.0642 -0.1398
21094W        W37941   1.171   9.490   3.989 -0.1179  0.2393 -0.0365
21095W        W37942  12.106  13.460   0.373 -0.2758  0.2529  0.1508
21096W        W37943  13.213   7.573   2.457  0.0195 -0.1459  0.2257
21097W        W37944  13.713  17.370  10.099  0.1919 -0.1184 -0.1044
21098W        W37945  18.361  15.420   5.809 -0.0597 -0.0964  0.2036
21099W        W37946   5.319  14.882   1.301  0.0110 -0.1659 -0.1977
21100W        W37947   6.480  11.079  12.445  0.1729 -0.0056  0.3092
21101W        W37948   9.011  10.384   2.940  0.3456  0.4685  0.0773
21102W        W37949  14.349   2.064   1.983 -0.1709  0.0249  0.2869
21103W        W37950   3.235   7.652   2.947 -0.0456 -0.4418 -0.0328
21104W        W37951  17.579  16.936  13.271 -0.0607  0.1534  0.0359
21105W        W37952   9.668   8.296  15.276  0.0361 -0.0646 -0.0701
21106W        W37953   3.703  18.022   3.900 -0.0923 -0.2114 -0.3343
21107W        W37954  12.346  13.248   2.538  0.1876  0.0920 -0.1420
21108W        W37955  18.020  13.939  12.227  0.0833 -0.3404 -0.0905
21109W        W37956   5.540  10.880  13.469  0.2519  0.1105  0.3791
21110W        W37957  18.140   8.186  14.185 -0.1724 -0.3496  0.4311
21111W        W37958   0.212   4.784  12.695 -0.0136 -0.0260  0.2671
21112W        W37959   4.899   6.933   5.108 -0.2941 -0.1338 -0.1269
21113W        W37960   3.413   1.277   3.058  0.0120  0.1875  0.0473
21114W        W37961  11.571  13.952  12.645  0.2163  0.1625 -0.1062
21115W        W37962  18.388  13.022  12.738 -0.0589 -0.0874  0.0104
21116W        W37963  15.186  17.057   4.195  0.1400 -0.0167 -0.1921
21117W        W37964   8.423  17.242   3.238  0.0473  0.0381 -0.0423
21118W        W37965  17.076  10.797   4.049  0.1259 -0.2948 -0.1176
21119W        W37966  12.296   1.764  14.443  0.4845 -0.2798 -0.1020
21120W        W37967  15.083   2.538   5.467 -0.1014  0.0104 -0.0367
21121W        W37968   1.868  18.216   1.347  0.0432  0.0142  0.2471
21122W        W37969   0.946   0.925   1.578  0.1695 -0.1931  0.0409
21123W        W37970   7.205  17.547   2.807 -0.0607 -0.2265 -0.1237
21124W        W37971  17.550   8.832  14.263  0.0596 -0.2858 -0.0989
21125W        W37972   0.576  17.343  14.558 -0.0087 -0.4281 -0.2282
21126W        W37973   7.557   6.735   5.354 -0.2003  0.1280  0.0554
21127W        W37974   4.282   1.761  12.301  0.1092 -0.2605 -0.1244
21128W        W37975   8.287  11.879  15.003 -0.0378  0.0198 -0.3959
21129W        W37976  17.026   4.741   4.826 -0.3354 -0.3256 -0.2403
21130W        W37977   5.953  10.912  11.085 -0.5042  0.3194 -0.2215
21131W        W37978  11.499  14.434  13.358 -0.3646 -0.0620 -0.3374
21132W        W37979   7.235  17.973  12.295  0.2756 -0.0658  0.2668
21133W        W37980   5.119  15.931  11.971 -0.2492 -0.1448  0.1557
21134W        W37981   3.853   9.815   4.029 -0.6240 -0.2541  0.2110
21135W        W37982   3.773   9.351  12.486  0.0052 -0.2228  0.0331
21136W        W37983  10.638  15.565  11.699 -0.0122  0.3261  0.2476
21137W        W37984   6.701  18.625  14.946 -0.5180  0.1562  0.4290
21138W        W37985   9.127   3.400   2.927 -0.2867  0.2546  0.1567
21139W        W37986  16.350   3.274   5.080 -0.2447  0.0106 -0.0853
21140W        W37987  16.936  10.820   1.702 -0.0195  0.1644  0.0203
21141W        W37988  14.583  15.498   4.736  0.0353 -0.2288  0.1893
21142W        W37989   0.983  10.007  14.309  0.0737 -0.0225 -0.0589
21143W        W37990  17.363  11.413   0.607 -0.5958  0.0859 -0.0559
21144W        W37991   2.860   9.160   1.078 -0.1964 -0.1314 -0.1081
21145W        W37992   4.991  12.932  11.226 -0.0139  0.1142 -0.0169
21146W        W37993   8.459  13.200   2.888 -0.2275 -0.2009  0.1128
21147W        W37994   5.472   2.538   2.014  0.1067 -0.1633 -0.1254
21148W        W37995   4.001   2.097  14.699 -0.0456  0.0482 -0.0871
21149W        W37996  12.726  17.259  15.566 -0.2501 -0.0283 -0.1182
21150W        W37997   9.600  12.529  11.364  0.1497  0.0750  0.1762
21151W        W37998  13.956  17.275  12.385  0.0429 -0.1222 -0.1719
21152W        W37999   7.223   4.504  12.506 -0.4439  0.3079 -0.1928
21153W        W38000   6.687  18.462   1.010 -0.0174 -0.3678  0.2159
21154W        W38001   7.838  12.149  15.654 -0.3068 -0.1837 -0.0783
21155W        W38002   9.607  13.689   4.390 -0.2877 -0.1437  0.1029
21156W        W38003  11.167  18.475  13.902 -0.2880 -0.0072 -0.0392
21157W        W38004  15.415   8.006   0.547 -0.1007 -0.2268  0.2521
21158W        W38005   7.742   2.465   4.648 -0.2597 -0.0045  0.2308
21159W        W38006   6.126  12.618  14.757  0.2703 -0.0529 -0.0646
21160W        W38007  17.142   0.993   0.760  0.3865  0.1399 -0.1698
21161W        W38008   6.770  16.588   0.770 -0.0628  0.1784  0.1830
21162W        W38009   4.617   0.783   4.129  0.1887 -0.1780 -0.1218
21163W        W38010   7.366  16.257   0.008  0.1418  0.1059 -0.3780
21164W        W38011   5.407   0.811   1.452  0.0000 -0.1197 -0.0464
21165W        W38012   6.253   2.162   4.729 -0.0118  0.1912  0.2266
21166W        W38013   2.982   7.769   4.841 -0.2836 -0.2914  0.0141
21167W        W38014  10.433  12.298   3.564  0.3060 -0.1918  0.3492
21168W        W38015   0.641   1.942  15.726  0.0762  0.0051  0.2618
21169W        W38016   6.365   0.064  14.740 -0.0139  0.0021 -0.0523
21170W        W38017  12.047  18.822   0.440 -0.0720  0.0152  0.0939
21171W        W38018   4.531   5.515  14.461 -0.0448  0.4772  0.1889
21172W        W38019  16.983  18.589   1.106  0.0332 -0.1307 -0.0236
21173W        W38020   5.929   7.570  15.167 -0.1768 -0.2068 -0.4576
21174W        W38021   0.064  18.614  11.444 -0.2885  0.4423 -0.2235
21175W        W38022   7.238  17.038  11.670  0.0777  0.0739  0.0884
21176W        W38023   9.234  10.335  14.910  0.4374 -0.3686  0.1482
21177W        W38024   3.784   7.564   4.504 -0.3656 -0.1599  0.2037
21178W        W38025   1.265   5.330  15.593 -0.2972  0.1791  0.0937
21179W        W38026  13.312  14.278  13.853  0.4123 -0.1611  0.1942
21180W        W38027  15.842   5.820   1.409 -0.0701 -0.2131 -0.0365
21181W        W38028  10.717   5.380   0.031  0.0002  0.0531  0.0982
21182W        W38029   0.479  17.379   3.821  0.1243  0.1646  0.1537
21183W        W38030  13.473   9.641  13.504  0.0610 -0.0499 -0.0895
21184W        W38031  18.524   2.371   5.041  0.1178  0.2714 -0.0953
21185W        W38032  13.881  12.813   3.874  0.0279  0.1491  0.1072
21186W        W38033   2.238  13.804   1.574 -0.0478 -0.0767 -0.0557
21187W        W38034  14.788   0.477   0.866 -0.1345 -0.2066 -0.2238
21188W        W38035   5.431   1.404  15.732 -0.0155 -0.0931 -0.0581
21189W        W38036  13.825   5.901  14.067 -0.2975  0.0079 -0.2358
21190W        W38037  17.753   6.770   2.781  0.2213  0.1905 -0.0751
21191W        W38038   0.872  10.288   4.288 -0.0986  0.2093  0.2216
21192W        W38039  11.319   7.792  11.534  0.0399 -0.0860 -0.1581
21193W        W38040   3.538   7.746  12.303  0.1649  0.3730 -0.1963
21194W        W38041  14.527  15.638  15.082 -0.0122 -0.2976  0.3242
21195W        W38042  15.982  16.226  12.758 -0.0026 -0.0531  0.0259
21196W        W38043  16.556   1.443  14.982  0.3056 -0.2733  0.1431
21197W        W38044  18.606  17.597  13.529  0.2539  0.0880  0.1148
21198W        W38045  18.662  18.635   3.800  0.1854  0.2623  0.0572
21199W        W38046  18.039   1.851   0.640  0.3264  0.2361  0.1574
21200W        W38047  17.490   6.253   3.485  0.0228 -0.3116  0.1019
21201W        W38048   6.659   2.554   5.628  0.1450 -0.0538  0.1476
21202W        W38049  18.846   7.460  11.617 -0.1645  0.1300  0.2790
21203W        W38050  17.641  17.884   1.922 -0.3785  0.1941 -0.1910
21204W        W38051   9.237   8.188  15.556 -0.2479 -0.0620  0.0908
21205W        W38052   5.261  11.534   1.350 -0.0200 -0.1605  0.0685
21206W        W38053   5.645  13.336   1.034 -0.3935  0.3830  0.2959
21207W        W38054  11.122  12.439  14.578  0.0004  0.0490  0.0995
21208W        W38055  12.036   4.940  10.453  0.1704 -0.1690  0.1653
21209W        W38056   0.535  11.801  15.307  0.2112 -0.1293  0.2710
21210W        W38057   1.156  10.202   2.617 -0.1718 -0.0042  0.2306
21211W        W38058  16.725   3.767  15.604 -0.0934  0.2124  0.0209
21212W        W38059  11.974  18.018  11.595 -0.4040 -0.0960 -0.1414
21213W        W38060  10.353  18.670   4.586 -0.4711  0.2953 -0.5119
21214W        W38061   6.249   5.070  13.165 -0.1815 -0.0702  0.1492
21215W        W38062  17.827  15.493  12.354  0.0593  0.0489 -0.3851
21216W        W38063  12.794  14.650  12.852  0.1789  0.3131 -0.0020
21217W        W38064  10.815  15.443   4.307 -0.3693  0.0885  0.0350
21218W        W38065   3.770  13.229  11.589  0.0235  0.2262 -0.2650
21219W        W38066  11.741  14.988   2.386 -0.1328 -0.1510 -0.1694
21220W        W38067  11.476   6.280   2.570 -0.0468  0.0995 -0.1637
21221W        W38068  17.126   2.537   1.380  0.0950 -0.2578 -0.0966
21222W        W38069   2.362   7.908  14.156 -0.0569  0.0578 -0.0190
21223W        W38070   7.175   4.035  13.712 -0.2477  0.0110 -0.1630
21224W        W38071  12.192  17.645  12.338  0.0239  0.0546 -0.0697
21225W        W38072   8.119   9.064  14.301  0.0933  0.0305 -0.3307
21226W        W38073   4.875  14.126  10.989 -0.2459 -0.2496  0.2460
21227W        W38074   3.855   7.031  11.694  0.0729 -0.0994 -0.0673
21228W        W38075   6.780   4.908   0.617  0.0447 -0.0533 -0.0238
21229W        W38076  14.455   3.745  15.508  0.3080 -0.0138 -0.2483
21230W        W38077   2.353  15.138   1.561 -0.0325  0.1210  0.0529
21231W        W38078  17.495  13.079  13.161  0.1173  0.1339 -0.2388
21232W        W38079   0.693  14.684   2.569  0.3716  0.0300  0.0134
21233W        W38080  12.597   9.670  15.637  0.0564 -0.0890  0.0430
21234W        W38081   3.547  10.211  11.716  0.2335  0.2114 -0.0567
21235W        W38082   6.953  15.353   2.077  0.0866 -0.0776 -0.0387
21236W        W38083  17.545  13.333   0.654 -0.1382 -0.1028 -0.0984
21237W        W38084  14.624  12.929   1.259 -0.0620  0.1417 -0.0281
21238W        W38085  18.718   9.798  15.476 -0.1096  0.1180  0.0198
21239W        W38086   1.681  17.854   5.461  0.0106  0.0479 -0.0183
21240W        W38087   5.032   4.375  13.671 -0.0391  0.0604 -0.0429
21241W        W38088  15.008   4.475   1.612 -0.2847  0.2077 -0.1667
21242W        W38089   9.245  11.920  13.510  0.0505  0.1162  0.0211
21243W        W38090   3.782   2.619   4.092 -0.1333  0.0542  0.2462
21244W        W38091   6.672   6.287   4.908  0.2163  0.0768 -0.0032
21245W        W38092  12.594   6.503  11.127 -0.0964  0.2292 -0.2127
21246W        W38093  13.411  10.157   4.287 -0.1123 -0.1921 -0.1521
21247W        W38094   8.792   2.596  15.199  0.0519 -0.1856  0.2088
21248W        W38095  11.724  16.012   3.990 -0.0920 -0.1003  0.3143
21249W        W38096  15.068   6.304  15.757  0.0777  0.1849  0.1341
21250W        W38097   8.132   0.044  13.643  0.0861 -0.2175 -0.1116
21251W        W38098   9.367   0.928  14.904 -0.0040  0.2906 -0.0447
21252W        W38099  10.888   7.523   0.355 -0.3254  0.2513 -0.0207
21253W        W38100  16.297   2.830  10.554 -0.0974 -0.1067  0.0686
21254W        W38101  14.959  17.644   4.315 -0.2008 -0.4648 -0.0404
21255W        W38102  10.839  18.412  14.248  0.2104 -0.1120  0.1518
21256W        W38103  17.893  18.186   1.254  0.1347 -0.1115 -0.3658
21257W        W38104   4.261  14.206   1.752  0.0469 -0.0484 -0.0258
21258W        W38105   7.447  10.541  11.011  0.1426  0.1884  0.2377
21259W        W38106   7.111   7.776   0.035  0.1764 -0.0628 -0.0192
21260W        W38107   5.806   0.382   3.293  0.2068 -0.0298 -0.1550
21261W        W38108  14.302  13.143  11.748  0.0991 -0.5470  0.0493
21262W        W38109  11.654   4.710   1.634 -0.2102 -0.0925 -0.1230
21263W        W38110   0.865  10.103  12.594  0.0907  0.0532  0.4029
21264W        W38111   7.192  10.462   1.124  0.1312 -0.2279 -0.1673
21265W        W38112   4.876   7.904  12.039  0.0884  0.0193  0.2078
21266W        W38113  16.805   0.895   1.197 -0.1097 -0.0910  0.3535
21267W        W38114   1.649  15.468  14.524 -0.3113 -0.0479 -0.0878
21268W        W38115   7.825   9.863  11.865 -0.0604  0.1151  0.1444
21269W        W38116   9.911   4.345   0.686 -0.1900 -0.3112 -0.4967
21270W        W38117   3.971   7.953   2.630  0.1521  0.1688  0.2510
21271W        W38118   7.482   7.360  14.125 -0.1263  0.2074  0.3347
21272W        W38119   2.114   3.391  15.177 -0.0455  0.1203 -0.0244
21273W        W38120   2.933   9.894  14.072  0.2952 -0.3077 -0.1877
21274W        W38121   0.206  15.509  11.634 -0.3248  0.2811  0.2100
21275W        W38122   4.895   6.444   3.636  0.1941 -0.2632 -0.1250
21276W        W38123   4.653   6.150   3.991  0.0188 -0.0136  0.2586
21277W        W38124  11.412  10.605  13.056 -0.1168 -0.1197  0.1331
21278W        W38125   5.772   7.016   4.456  0.1018 -0.0187  0.1407
21279W        W38126   7.599  12.753  12.007  0.0222 -0.1691  0.2333
21280W        W38127   5.851  15.168  10.756  0.5333 -0.0347 -0.1745
21281W        W38128   6.359   1.752  14.220  0.0832  0.1516  0.0842
21282W        W38129  15.328  17.674   0.194  0.1334 -0.0587 -0.0479
21283W        W38130   0.487  16.582  11.868 -0.1480  0.0896 -0.0409
21284W        W38131  16.432   2.194  14.548  0.0630  0.0214 -0.0641
21285W        W38132  16.321   7.181  11.816  0.1286  0.4286  0.1045
21286W        W38133   6.367   7.323   0.378  0.1563 -0.0859 -0.0533
21287W        W38134   7.405   3.592   3.394 -0.3010  0.1525  0.0664
21288W        W38135   2.677  11.252   0.149 -0.1468  0.3679  0.1102
21289W        W38136   8.822  13.044   3.367  0.0154  0.1508 -0.0456
21290W        W38137  17.721   3.803  15.550 -0.0404  0.2432 -0.2015
21291W        W38138   0.365  11.028   4.314 -0.1595 -0.2855 -0.1053
21292W        W38139   9.014   8.220   0.530 -0.0889  0.2189 -0.1988
21293W        W38140   8.248  11.529  10.649  0.1725  0.4213 -0.1981
21294W        W38141  15.042   1.475   2.103 -0.0263  0.0082  0.2424
21295W        W38142   2.336   7.192  14.398  0.4977 -0.0907 -0.0441
21296W        W38143  16.555  17.281   2.305  0.0635 -0.0091 -0.1979
21297W        W38144   3.833  12.486   3.339 -0.3478  0.2989  0.3929
21298W        W38145  12.699  10.566   3.997  0.0960  0.2202  0.1730
21299W        W38146  14.299  14.475   2.363  0.1027 -0.0276 -0.1137
21300W        W38147  17.072   2.557  13.831 -0.0723  0.0986  0.1701
21301W        W38148  18.158   7.390   3.128 -0.1109  0.3205  0.1476
21302W        W38149   8.972   0.731  12.877 -0.2705 -0.1604  0.0733
21303W        W38150  11.532  16.598   0.030  0.1037  0.2783  0.0724
21304W        W38151  18.849  10.069  11.960  0.2290 -0.1187 -0.1771
21305W        W38152   4.187  12.939   2.323  0.1211 -0.3666  0.2309
21306W        W38153  13.008  14.641  14.763 -0.2286 -0.0004  0.0391
21307W        W38154   3.154  12.977  12.989 -0.0345 -0.1378 -0.3254
21308W        W38155  16.835   5.346  12.740 -0.1064  0.3801  0.2105
21309W        W38156   7.713   4.736  10.982  0.1103  0.3097  0.0119
21310W        W38157   0.822   4.707  11.734 -0.2186 -0.0028 -0.0464
21311W        W38158   2.494   9.886  14.331 -0.1751  0.3089 -0.1425
21312W        W38159   0.444   9.296   4.127 -0.0807 -0.1283  0.2599
21313W        W38160  15.836  14.409   0.530  0.0923  0.1666  0.1449
21314W        W38161   8.484   9.128  10.687  0.0533  0.2700  0.0271
21315W        W38162  18.009  10.573  13.514  0.1668  0.1171 -0.1115
21316W        W38163  16.441  13.867   4.363 -0.2999 -0.1319 -0.1953
21317W        W38164  13.160  13.630   2.993  0.1701 -0.0397 -0.0340
21318W        W38165   7.595   1.679   1.601  0.0328  0.1043 -0.0748
21319W        W38166  11.654  15.064   0.335 -0.2643 -0.0150 -0.0909
21320W        W38167   7.322  14.815  11.653  0.1935 -0.1668 -0.2024
21321W        W38168  10.487   9.320   4.782  0.0407  0.4364 -0.1320
21322W        W38169   4.174  17.692   0.663  0.1952  0.2118 -0.2389
21323W        W38170  16.086   4.018   5.624 -0.0348 -0.0694  0.1897
21324W        W38171   2.459   6.758   1.885  0.2509 -0.1772  0.2062
21325W        W38172   1.455   8.100   0.556 -0.0755 -0.0516 -0.0059
21326W        W38173  14.769   2.699  13.425 -0.0007 -0.0863 -0.4144
21327W        W38174  13.016  15.425   3.152  0.1477  0.0665  0.0104
21328W        W38175   4.625   0.209   5.185  0.1113 -0.0783 -0.1391
21329W        W38176   3.074  15.645   5.223 -0.1811 -0.1889 -0.3080
21330W        W38177  16.590   1.849   1.729 -0.2864 -0.0793  0.1900
21331W        W38178   4.472  15.212   4.172  0.1087 -0.0213 -0.1701
21332W        W38179   5.464  15.646  15.091 -0.0318 -0.0136 -0.1245
21333W        W38180  10.626  13.640  12.962 -0.1862 -0.0505  0.0662
21334W        W38181  13.636  14.635  13.548 -0.2601  0.0846 -0.0196
21335W        W38182  12.192  17.305   3.655  0.0339 -0.1520 -0.2944
21336W        W38183  12.442  12.914   2.977 -0.5754 -0.0239  0.0403
21337W        W38184  13.372  10.683  15.435  0.1151  0.1794 -0.1639
21338W        W38185   2.071  12.783  13.797  0.0046  0.1200 -0.0425
21339W        W38186   4.458  15.067  12.918 -0.3349  0.2036  0.4982
21340W        W38187   8.233  14.206   2.097  0.0557  0.0575 -0.0551
21341W        W38188  12.791  13.732  11.835  0.2940  0.1639 -0.2077
21342W        W38189   3.121   2.027  13.702 -0.0857 -0.3763 -0.1910
21343W        W38190  13.198   4.279   2.706 -0.0120 -0.1732 -0.1026
21344W        W38191  15.623   8.608   0.200  0.1277  0.0286 -0.1558
21345W        W38192   2.666   7.724  14.560 -0.1654 -0.0045 -0.0609
21346W        W38193  12.955   3.523   0.114  0.1523 -0.0747  0.0620
21347W        W38194   0.481  18.020   2.222  0.0252  0.1293  0.1160
21348W        W38195   5.117  18.449   3.562  0.0275  0.0873 -0.1305
21349W        W38196  16.276  10.094  15.503  0.0653  0.1216  0.2323
21350W        W38197  10.925   9.379   3.120  0.1602  0.2748  0.1164
21351W        W38198   0.919   0.032   4.260 -0.0622 -0.0359 -0.0106
21352W        W38199  10.351  17.719  13.663  0.0622 -0.0095 -0.1662
21353W        W38200  15.554   9.946   2.350 -0.0786 -0.1116 -0.2737
21354W        W38201  15.658   3.304   6.003 -0.4471 -0.1481  0.4202
21355W        W38202   8.381  14.670  14.646 -0.0344  0.1352 -0.1097
21356W        W38203  13.414   7.056   1.491  0.0404  0.0189  0.0391
21357W        W38204   4.663   1.421   2.558  0.0403  0.0955 -0.0897
21358W        W38205   0.802   9.693   5.223  0.2128 -0.0126  0.0124
21359W        W38206  13.089  16.958   1.151 -0.0166  0.0785  0.1741
21360W        W38207  17.796   7.392   2.273  0.2355  0.0098 -0.1075
21361W        W38208   1.421   1.616   2.393 -0.0136 -0.0050  0.6619
21362W        W38209   6.570  10.457  13.126 -0.0469 -0.0751 -0.0908
21363W        W38210   2.513  18.421  12.134 -0.0691 -0.0740  0.0007
21364W        W38211   2.248   6.649  13.624 -0.0436  0.0244 -0.0517
21365W        W38212   9.917  15.491   3.910 -0.1438 -0.0696 -0.1888
21366W        W38213   6.581   2.248  15.633  0.0420 -0.0801 -0.1912
21367W        W38214  10.120  16.535   2.779 -0.1078 -0.0531  0.3317
21368W        W38215  12.054  18.460  12.861 -0.0856  0.0615 -0.0886
21369W        W38216   0.280   5.679   4.850  0.0864  0.2598  0.0116
21370W        W38217   7.403   1.482  11.055  0.1502 -0.0556  0.0521
21371W        W38218   2.657  10.885   2.344 -0.0825  0.2317  0.2125
21372W        W38219  13.181  15.639   3.991  0.0170  0.0011 -0.1849
21373W        W38220  17.569  16.960  11.468  0.0770 -0.2442  0.0294
21374W        W38221   8.398   2.623  13.545  0.1891  0.1165 -0.1028
21375W        W38222  11.431  14.091  12.124 -0.0760 -0.0985  0.1021
21376W        W38223  17.554   0.909  13.586 -0.3257 -0.1953  0.1479
21377W        W38224   6.012  18.822   3.410 -0.0738 -0.2386  0.1217
21378W        W38225  14.052   5.849   4.817  0.1543  0.5188  0.0173
21379W        W38226  11.582  13.542   4.320 -0.0228  0.1278  0.1961
21380W        W38227   1.180   4.107   0.194 -0.0668 -0.1481 -0.0052
21381W        W38228   0.704   6.154  13.681 -0.0367 -0.1401 -0.0602
21382W        W38229  14.792   6.824   4.096 -0.1338  0.1390 -0.1099
21383W        W38230   0.604  15.829   2.160  0.0415 -0.0688  0.0426
21384W        W38231  15.358  11.998   2.098 -0.0183  0.1350 -0.1544
21385W        W38232  11.310   4.705  15.405  0.2850 -0.0604 -0.0458
21386W        W38233   5.840   6.914   5.196 -0.0576  0.0329  0.3623
21387W        W38234   9.674  16.919  11.406 -0.0178  0.2207  0.3236
21388W        W38235  10.811  10.977  10.651  0.2275 -0.1783  0.0164
21389W        W38236   3.062   5.653   4.723 -0.0480  0.0361  0.1342
21390W        W38237   7.984  11.635   4.482 -0.2191 -0.1981  0.4181
21391W        W38238  16.542  17.178   3.121  0.2065  0.0986  0.2287
21392W        W38239   7.992  18.040   1.893 -0.0423  0.3301  0.0934
21393W        W38240  13.752   6.312  11.971  0.1094  0.1628  0.3059
21394W        W38241   4.276   5.806   3.150 -0.0711 -0.2384 -0.2047
21395W        W38242  12.674  10.194   5.242  0.1430 -0.3046 -0.0030
21396W        W38243   6.723   8.513  14.553 -0.0790 -0.1233  0.1044
21397W        W38244   0.060   0.425  12.433 -0.1697  0.0285  0.1366
21398W        W38245  15.762  10.924   1.605  0.0779 -0.1348  0.2453
21399W        W38246   1.899  15.170   2.299  0.3613  0.0852 -0.2492
21400W        W38247   6.735   3.131  10.979 -0.0828  0.1614  0.0271
21401W        W38248  12.583   5.254  11.528  0.1303 -0.3380  0.0302
21402W        W38249  10.336   7.081   3.049 -0.0327 -0.0668 -0.1180
21403W        W38250   6.923  10.598   0.405  0.2301  0.0957  0.3414
21404W        W38251   4.875   5.311  14.759 -0.1289  0.1284 -0.0543
21405W        W38252  18.464   6.660  12.229  0.0636 -0.1413 -0.0661
21406W        W38253  14.710  16.425  15.604  0.1663 -0.0880  0.0632
21407W        W38254   1.493   0.847   1.570  0.0613  0.2943  0.1674
21408W        W38255  10.550  13.740  15.379 -0.0728 -0.1372 -0.1057
21409W        W38256   7.223  11.413   2.459  0.2006  0.0699 -0.2617
21410W        W38257   4.138   2.811  14.118 -0.2858  0.0336 -0.1080
21411W        W38258   5.595  16.453   1.396  0.3192  0.0742 -0.3873
21412W        W38259  11.763   4.793  13.650 -0.2592 -0.0425 -0.0421
21413W        W38260  15.318   1.578   6.097 -0.1155  0.2413  0.1548
21414W        W38261   6.427  10.935   1.740 -0.1406  0.0242 -0.1608
21415W        W38262  11.014  15.067  11.497 -0.2594 -0.1820  0.1855
21416W        W38263   0.966  13.177  13.228 -0.0784  0.2846  0.2850
21417W        W38264  10.791  15.991   3.760 -0.0665  0.3747  0.5044
21418W        W38265  18.159   7.674   4.453  0.1905  0.3241 -0.2389
21419W        W38266   7.974   3.726  13.643  0.3833 -0.0814 -0.3601
21420W        W38267  17.872   8.460   2.090  0.0846 -0.1487  0.2732
21421W        W38268   4.760   5.606   0.094  0.2900  0.3979 -0.3104
21422W        W38269   3.223   2.871   4.642 -0.1470  0.2747  0.0857
21423W        W38270  18.244  15.765  13.661 -0.2641  0.1372  0.0555
21424W        W38271  15.932   5.168   4.998 -0.1407 -0.0193  0.1268
21425W        W38272  14.172   6.562   2.268  0.1011  0.2410 -0.2565
21426W        W38273   4.835  15.425  15.777 -0.1054 -0.2286 -0.0618
21427W        W38274   2.461   2.425  12.395  0.0710  0.1183  0.1114
21428W        W38275   5.467   6.787   1.840  0.0363 -0.1811 -0.0477
21429W        W38276  12.869  17.617   0.179 -0.2222  0.0527 -0.0818
21430W        W38277   6.011   3.205  14.670 -0.0411  0.1308  0.0343
21431W        W38278  18.382  16.743   5.378  0.1598  0.0190 -0.1407
21432W        W38279   1.210  10.388  11.145  0.1758  0.2705  0.1542
21433W        W38280  11.355   3.416   2.772  0.0560 -0.1272 -0.2512
21434W        W38281  13.278   1.002  14.340 -0.0803 -0.1730 -0.1179
21435W        W38282   3.745  14.077  11.191  0.1503 -0.0573 -0.2341
21436W        W38283  16.574   4.939   0.710 -0.1359 -0.1144  0.0240
21437W        W38284   0.016  10.998   3.455  0.0775 -0.2092 -0.0925
21438W        W38285  12.193   6.886   0.658  0.1473  0.0607  0.0922
21439W        W38286   9.039   7.471   4.322  0.0628  0.3064 -0.0672
21440W        W38287   0.377  16.767   2.582  0.1403  0.0218  0.1202
21441W        W38288   4.284  13.885   0.986 -0.1396 -0.1804  0.2544
21442W        W38289   2.701   5.458   3.246 -0.0067 -0.0227 -0.2423
21443W        W38290  17.996  10.478   3.138 -0.1450 -0.1085  0.0181
21444W        W38291   1.586  15.007  11.048  0.1843  0.2394 -0.0374
21445W        W38292   9.447  11.165   2.703  0.0985 -0.1565  0.0635
21446W        W38293   5.801   7.691   2.011 -0.0314  0.0982 -0.2332
21447W        W38294  16.305  10.393   0.789 -0.2622 -0.0938  0.2572
21448W        W38295   1.201  10.805  13.293 -0.2083 -0.2074 -0.2362
21449W        W38296   2.436  18.858  12.427  0.1170  0.0052  0.2967
21450W        W38297  10.631  15.868  14.309 -0.2230 -0.1878 -0.0484
21451W        W38298   9.202   8.557  11.229 -0.0409 -0.1733 -0.1628
21452W        W38299  12.968  18.528   3.210 -0.0638  0.0959  0.2237
21453W        W38300  10.164  15.022   9.713 -0.1237  0.1204 -0.2897
21454W        W38301   1.110   4.185  12.188 -0.2083  0.0858  0.1921
21455W        W38302   7.318  16.575  15.365 -0.1211 -0.1121 -0.0981
21456W        W38303  15.636   1.641  12.266 -0.1908  0.0666 -0.1044
21457W        W38304   5.996   4.774   2.470 -0.0792  0.1363 -0.0369
21458W        W38305   2.056  18.718  12.708 -0.0114  0.0608  0.0008
21459W        W38306   5.025  12.551  12.775  0.0207  0.0827 -0.0226
21460W        W38307  18.478   7.149   5.135 -0.0930  0.2291 -0.0078
21461W        W38308  17.106   1.659   5.015  0.3589  0.1701 -0.2394
21462W        W38309   5.701  10.903   4.082  0.0510 -0.1698  0.0290
21463W        W38310   4.638  18.164   4.773 -0.1966 -0.1407  0.1324
21464W        W38311   0.520  16.952  13.056 -0.0868  0.1022 -0.0373
21465W        W38312   3.645   8.888   1.048  0.1713 -0.2166 -0.4096
21466W        W38313  11.211  12.958   1.795 -0.0652  0.1601 -0.2681
21467W        W38314   2.773   7.272   4.912  0.1961  0.1177 -0.3081
21468W        W38315   0.837   0.426   1.285  0.0477  0.2639  0.2518
21469W        W38316   6.759  16.972  14.848  0.0014 -0.0767 -0.0094
21470W        W38317  15.126   6.261   2.599 -0.0726 -0.0078  0.0564
21471W        W38318   8.627  15.531   1.532 -0.0586  0.1484 -0.2750
21472W        W38319  16.795  15.548  10.894  0.0915  0.2162 -0.1365
21473W        W38320   6.510  12.738   3.418  0.2396  0.1437  0.0251
21474W        W38321  10.994  11.044  12.358 -0.0636 -0.1365 -0.2968
21475W        W38322   2.400   3.440   4.170  0.0477 -0.0798  0.1681
21476W        W38323   6.141  15.700   2.242 -0.0438 -0.1104 -0.2070
21477W        W38324  11.589   6.951  13.854  0.1960  0.1273 -0.2383
21478W        W38325  14.282   4.467   2.191 -0.3076  0.0930  0.1223
21479W        W38326  10.702   1.040  13.521  0.2392 -0.1034  0.4600
21480W        W38327   3.452   4.363  13.433  0.0960 -0.1171 -0.0065
21481W        W38328  13.423   3.536   4.319  0.5379 -0.2354  0.4146
21482W        W38329   5.049  13.894   1.523 -0.0821  0.0258 -0.2572
21483W        W38330   7.348   7.068  11.281 -0.2166 -0.1493 -0.2069
21484W        W38331   5.503   3.337   2.618  0.0059 -0.0439  0.1581
21485W        W38332   5.103  13.680  10.247  0.2253  0.3012  0.1075
21486W        W38333   2.706  14.458   4.958  0.1147  0.0304  0.0038
21487W        W38334  11.078   1.333   0.770  0.2031  0.1963 -0.0459
21488W        W38335  13.764  12.806  11.080  0.1858 -0.1948 -0.3939
21489W        W38336  11.824   1.572   5.183 -0.1017 -0.2336  0.0574
21490W        W38337  11.829  13.529  12.805 -0.1146 -0.4049  0.2426
21491W        W38338  17.530  17.043  14.693  0.0367 -0.1872 -0.4190
21492W        W38339  13.944  16.886   3.998  0.0968 -0.0268  0.1718
21493W        W38340  13.465   7.134   4.877  0.0038  0.0933  0.0136
21494W        W38341   6.397  10.073  10.869  0.0298  0.0332 -0.0780
21495W        W38342  11.500   3.777  15.173  0.0722 -0.1765 -0.2229
21496W        W38343  11.803   3.872   5.032  0.0645 -0.0925 -0.0386
21497W        W38344   8.162   6.623   2.609  0.0069 -0.3557  0.0799
21498W        W38345   0.052   8.524   5.444  0.1546 -0.1643  0.1123
21499W        W38346   7.855   0.109   2.848 -0.1100 -0.0504  0.2291
21500W        W38347   7.152  13.078   1.086  0.0990  0.1923  0.1855
21501W        W38348  11.639   4.553   5.032  0.1988 -0.1255  0.0053
21502W        W38349   0.617   8.784  15.609  0.0645 -0.0221  0.0357
21503W        W38350   3.661   1.256   4.156  0.1035 -0.1450 -0.1655
21504W        W38351  14.177   2.895  13.957 -0.1009 -0.0138 -0.0434
21505W        W38352  14.628  11.683   2.759 -0.2661 -0.1589 -0.0980
21506W        W38353   1.105   2.371  12.854  0.1054  0.1025  0.1477
21507W        W38354   1.308  11.883  11.964 -0.4214  0.1644 -0.1658
21508W        W38355  10.861  13.911   3.298  0.2408  0.2169 -0.0077
21509W        W38356   7.366  15.897   2.010 -0.1805 -0.3054  0.0262
21510W        W38357   5.082  11.034   1.160 -0.0904 -0.1447  0.0599
21511W        W38358  12.478  15.384  12.233  0.0297 -0.0898 -0.0015
21512W        W38359  16.679  15.725   0.160  0.2197 -0.0999  0.0290
21513W        W38360   7.942  11.593   3.745 -0.2879 -0.1235  0.1516
21514W        W38361  16.533   9.690   2.700 -0.0898 -0.0187  0.0036
21515W        W38362   2.763  14.575   1.243  0.2247  0.2065 -0.1557
21516W        W38363  15.328   8.240   3.099  0.1595  0.1892 -0.0702
21517W        W38364  18.204   6.493   2.821  0.0288 -0.0799  0.2243
21518W        W38365  12.793   6.579   3.166  0.1722  0.0044 -0.0293
21519W        W38366   1.412  12.064  12.903  0.0695  0.3431  0.3094
21520W        W38367  10.655   2.909  13.951 -0.0609 -0.0193  0.1226
21521W        W38368   7.699   1.937   2.595 -0.0681 -0.1328 -0.0641
21522W        W38369   5.932   7.722   4.008 -0.2019  0.2280  0.0098
21523W        W38370  10.409   2.540  15.405 -0.0038 -0.1187 -0.2857
21524W        W38371   5.679   6.811  15.132  0.0590  0.0499  0.1988
21525W        W38372   8.813   5.736  14.587  0.2425 -0.0554 -0.0923
21526W        W38373   1.729   5.684   0.628  0.1023  0.2113 -0.3133
21527W        W38374   9.216   1.116  15.364  0.1067  0.0906 -0.1860
21528W        W38375   7.496  16.257   4.474  0.0047 -0.4749 -0.4137
21529W        W38376   6.238  16.110  12.023  0.2341  0.0808 -0.0309
21530W        W38377  17.465   4.546  14.232 -0.4169  0.0870  0.0289
21531W        W38378  15.114   9.021   0.881 -0.0470  0.0433  0.1613
21532W        W38379  12.357  10.912  13.606  0.1700  0.4857 -0.1792
21533W        W38380   4.078   6.523   3.417  0.1585 -0.0594  0.1890
21534W        W38381   0.701  15.319   4.748  0.0719  0.0429  0.0651
21535W        W38382  13.554   6.669  12.292  0.0485 -0.4871 -0.1544
21536W        W38383   3.616  12.960   3.665  0.2073  0.1333  0.0977
21537W        W38384   1.485   7.066  11.921  0.2694 -0.0062 -0.0513
21538W        W38385  10.774  11.076   1.088  0.0717  0.1333 -0.0935
21539W        W38386  17.328  10.358   4.357  0.1636 -0.1110 -0.2102
21540W        W38387   1.091  18.747  13.308 -0.3764 -0.2517 -0.0540
21541W        W38388   9.766   4.740  13.811  0.0290  0.1574 -0.0327
21542W        W38389  16.394   0.379   1.435 -0.1901 -0.3097 -0.3651
21543W        W38390   9.506  11.859   4.150 -0.0143 -0.3485 -0.1372
21544W        W38391  15.763  16.108  11.492  0.0606  0.1992 -0.0782
21545W        W38392   5.212  15.391   1.425  0.4308 -0.1353 -0.1506
21546W        W38393   8.238   0.321  15.733 -0.3088 -0.4323  0.1450
21547W        W38394  12.202   7.654  13.499  0.2522  0.2757  0.0003
21548W        W38395  16.433   0.239   5.566  0.1215 -0.2868  0.0817
21549W        W38396   9.749  16.046   4.057 -0.0056 -0.0460 -0.2707
21550W        W38397   9.521   4.758  12.738 -0.0152 -0.2945 -0.1032
21551W        W38398  12.403   8.825  14.639 -0.1436  0.0289 -0.1538
21552W        W38399  16.915  10.466   5.514  0.0905 -0.3685  0.0280
21553W        W38400   9.445   9.936   0.343 -0.1250 -0.0233  0.2617
21554W        W38401  15.659  11.636   5.101 -0.0886  0.2402  0.2895
21555W        W38402   6.311   4.527   4.589  0.0074  0.0252 -0.1049
21556W        W38403   9.935   5.370   4.156  0.2437  0.0455 -0.3847
21557W        W38404  18.435   4.651   2.824 -0.1249 -0.0895  0.2589
21558W        W38405   2.995   8.273   1.125 -0.2903 -0.0736 -0.0133
21559W        W38406  12.733  14.082  14.766 -0.1580 -0.1953  0.1755
21560W        W38407   5.006  12.756  15.536 -0.3312  0.1164  0.1033
21561W        W38408   9.518  17.471   1.635  0.0191  0.4198 -0.0847
21562W        W38409  12.213   8.755  15.102 -0.0896 -0.2926  0.2691
21563W        W38410   6.155   1.147  11.373  0.2835  0.3684 -0.0848
21564W        W38411  15.102   7.236  13.764  0.0167 -0.2540 -0.4020
21565W        W38412  18.289   2.265  15.056 -0.0663 -0.0162  0.2184
21566W        W38413  13.003   8.961   3.194  0.0030 -0.0399  0.1941
21567W        W38414   6.454   8.286  14.212  0.0210 -0.1928  0.0928
21568W        W38415   1.913  12.681   1.314 -0.0089 -0.0444 -0.5038
21569W        W38416  15.507   3.235  14.033  0.1797 -0.0991  0.2385
21570W        W38417   5.867   9.957  15.014  0.2203  0.2960  0.1390
21571W        W38418  14.674   8.979  14.801 -0.2561  0.1123 -0.0058
21572W        W38419   1.800  16.301   5.287  0.0935  0.0818  0.2065
21573W        W38420   9.384   5.433   2.603  0.1775  0.2211 -0.3236
21574W        W38421  11.112   5.440  12.563  0.3146  0.2012 -0.1109
21575W        W38422  10.578   3.760  10.685 -0.0603 -0.1503 -0.0453
21576W        W38423   8.231   2.458  12.682 -0.1693  0.0956  0.2214
21577W        W38424  13.212   4.335  11.019 -0.0524 -0.1522  0.0901
21578W        W38425  15.761   3.964   6.637  0.1332  0.1834 -0.1959
21579W        W38426  10.838  12.296   2.064  0.3224  0.1099 -0.1289
21580W        W38427  11.755   1.981   1.059 -0.0805 -0.3192  0.0933
21581W        W38428   8.697   0.436   3.254  0.0626 -0.0336 -0.1046
21582W        W38429   1.420  14.746  14.815 -0.4474  0.0697 -0.0103
21583W        W38430  18.039   1.932   3.257 -0.0222 -0.1772  0.3407
21584W        W38431   6.521   4.460  13.600  0.0447  0.3486  0.0855
21585W        W38432  16.873   4.665   3.959 -0.1177 -0.1431  0.1061
21586W        W38433   6.715  17.520  15.435 -0.0764  0.4083 -0.0386
21587W        W38434   0.216   8.492   4.551  0.0794 -0.0818 -0.2231
21588W        W38435  14.613   7.197  11.438  0.2543  0.1168  0.1016
21589W        W38436   1.864  11.325   2.511 -0.3687  0.0464 -0.0758
21590W        W38437  12.831  10.646  11.138 -0.0340  0.2712 -0.0812
21591W        W38438  10.125   5.553  13.722  0.0827  0.0922 -0.1237
21592W        W38439   7.938  18.803   1.260  0.3325 -0.0982  0.0943
21593W        W38440   3.099   1.515  12.699 -0.1942  0.0966  0.1473
21594W        W38441  18.209  14.404  13.395  0.0333 -0.0833  0.2749
21595W        W38442   7.634  17.919   5.215  0.2267 -0.0627  0.2917
21596W        W38443   9.948   0.737  13.057 -0.1025 -0.4614  0.0367
21597W        W38444  13.674   9.659  12.460 -0.0131  0.3213  0.1912
21598W        W38445  14.357   0.485  12.446  0.0077  0.2550  0.2420
21599W        W38446  10.630  12.134   3.987  0.0804  0.0749 -0.0581
21600W        W38447   4.168  10.738  11.301  0.1422 -0.0620  0.0588
21601W        W38448   1.895  14.178  15.529 -0.3100 -0.0740 -0.0604
21602W        W38449   0.802   9.596   2.410  0.1321  0.3626  0.3235
21603W        W38450  10.734  13.700  14.383  0.4222 -0.0741  0.0163
21604W        W38451  16.309  15.586   2.278  0.1694  0.0556 -0.1684
21605W        W38452  10.187   9.542   1.318  0.0153  0.1709  0.2477
21606W        W38453  10.408   5.926  11.406  0.1464 -0.1346 -0.2477
21607W        W38454   2.519   7.441  13.095 -0.0649 -0.0798 -0.0773
21608W        W38455  14.832   4.767  12.312  0.1111 -0.0969  0.0120
21609W        W38456   9.761  16.359   0.448  0.1367 -0.2120  0.0911
21610W        W38457  11.385  14.675  15.445  0.1583  0.1285  0.1172
21611W        W38458   8.979  16.968  14.103  0.0249 -0.1135  0.1966
21612W        W38459   2.425   4.432   0.727 -0.1235  0.0088 -0.0000
21613W        W38460  10.449  10.734   3.667  0.2029 -0.0059 -0.3386
21614W        W38461   3.352   1.229  14.492  0.2537  0.0727  0.1947
21615W        W38462   9.354   4.421  14.041  0.2786 -0.0189 -0.3410
21616W        W38463   3.957   1.011   5.488 -0.2117  0.0834 -0.3128
21617W        W38464   9.599  11.879   5.004 -0.1691 -0.2945  0.1979
21618W        W38465   9.248  10.676   0.059 -0.3132  0.1046  0.1231
21619W        W38466   4.161   5.315   1.106  0.1092 -0.0610  0.1723
21620W        W38467   6.561   5.316  13.954 -0.2054  0.1847 -0.0705
21621W        W38468   5.209   8.560  11.379  0.2772 -0.1675 -0.2373
21622W        W38469  10.198   0.127  13.802  0.0028  0.1045 -0.0790
21623W        W38470  10.828   8.298   1.621 -0.2931  0.2475  0.0627
21624W        W38471  11.164   1.795   3.745  0.1659  0.0775 -0.0283
21625W        W38472  10.478  15.342  15.430  0.1101 -0.1059 -0.0888
21626W        W38473  10.290  15.623  14.095  0.1583 -0.0534  0.0247
21627W        W38474  15.808   2.045   2.146 -0.0837  0.1901 -0.3065
21628W        W38475   1.401   5.463  13.850  0.0810  0.4010  0.0580
21629W        W38476   9.252  12.344   4.264  0.1580  0.3540 -0.0786
21630W        W38477   8.501   2.278  13.107  0.0847 -0.1595  0.0982
21631W        W38478  14.205   1.749  12.320  0.0531 -0.0192  0.3586
21632W        W38479  15.317   8.887   2.162 -0.0034 -0.0857  0.3455
21633W        W38480   3.616   4.414  15.275  0.2078 -0.0798 -0.3488
21634W        W38481   4.878  18.058  13.539  0.0217  0.0304  0.1735
21635W        W38482  10.265   3.306  15.367 -0.1757 -0.1647 -0.4336
21636W        W38483   4.409  17.136   1.406  0.0252  0.0410 -0.0101
21637W        W38484   8.047  13.278  13.346 -0.0126  0.1694 -0.1250
21638W        W38485   1.799   8.558  12.542 -0.0603  0.2332 -0.1440
21639W        W38486   7.103  14.393  13.549 -0.2787  0.0951  0.0556
21640W        W38487   9.537  11.658   1.377  0.1179  0.4529 -0.1530
21641W        W38488  17.187   9.611  15.701  0.0863 -0.1948 -0.0885
21642W        W38489  17.661   8.628  15.231  0.0630 -0.1744  0.1278
21643W        W38490   0.360  16.467   5.464  0.1973  0.2579 -0.3342
21644W        W38491  15.185   3.902  14.484 -0.1218 -0.1767  0.2277
21645W        W38492   9.522  14.108   1.723 -0.1550  0.1312 -0.3463
21646W        W38493   4.876   7.994   3.669 -0.0431  0.0130  0.0195
21647W        W38494   9.397  15.164   3.929  0.1114 -0.0167 -0.0217
21648W        W38495  13.085  16.023  12.272  0.2227 -0.2032 -0.0157
21649W        W38496   5.683   4.639  10.815  0.1285  0.2645  0.3164
21650W        W38497   7.966   0.608   3.966 -0.1919 -0.1062  0.2199
21651W        W38498  14.553  18.638  13.183  0.1091 -0.0151 -0.0411
21652W        W38499  16.023   1.925   5.915  0.0115  0.0078  0.1828
21653W        W38500  16.072   4.480  14.836  0.0980 -0.2310 -0.2749
21654W        W38501  14.091   2.360   0.644  0.0392 -0.4271 -0.3047
21655W        W38502   4.606   6.724   1.717  0.1219  0.1377 -0.0876
21656W        W38503   1.277   7.842  13.483  0.1803  0.2509  0.4403
21657W        W38504   0.149   0.898   2.233  0.2751 -0.1371  0.0486
21658W        W38505   6.899  13.701   4.165 -0.3270  0.1495  0.0565
21659W        W38506   4.080  16.681   1.196  0.1621  0.3455 -0.0877
21660W        W38507   0.367   4.158  11.041  0.1709  0.1789  0.0564
21661W        W38508   1.059   2.642   4.606 -0.0199  0.3865 -0.2551
21662W        W38509   8.831   6.083  11.927  0.0217 -0.2473 -0.1059
21663W        W38510   1.051  16.672   3.662 -0.0386  0.0619 -0.1388
21664W        W38511  12.704   0.439   0.888 -0.3481 -0.2738  0.1005
21665W        W38512   8.621  17.342  13.557 -0.0847 -0.1084 -0.2789
21666W        W38513  17.871   5.279  12.411  0.0817  0.0002 -0.1346
21667W        W38514  11.232   2.143   0.481 -0.0099 -0.0100  0.2541
21668W        W38515  11.372   9.374  12.949  0.1431  0.0265  0.0731
21669W        W38516  10.541   2.296  14.966  0.1324  0.0591  0.0803
21670W        W38517  10.453   3.277  13.655 -0.0532 -0.1490 -0.0685
21671W        W38518   4.000   5.774   0.125  0.2812 -0.4989  0.0206
21672W        W38519  13.218  16.338   2.917  0.0574 -0.1130 -0.0572
21673W        W38520   7.788   7.381   4.602  0.0170 -0.2483 -0.2483
21674W        W38521   3.345  16.374   3.992 -0.2043  0.1610  0.2159
21675W        W38522  13.363  16.433   3.415  0.0386 -0.0284 -0.0381
21676W        W38523  16.095  18.711  14.498  0.0334  0.0561 -0.0283
21677W        W38524  17.094  13.084  15.027  0.0789 -0.0696  0.1796
21678W        W38525   7.346   7.056  11.847 -0.2208  0.4215 -0.1849
21679W        W38526   1.042   7.819  12.982 -0.0776  0.0596  0.0767
21680W        W38527  12.536   3.407  12.235 -0.1414 -0.1624  0.2376
21681W        W38528   3.805  18.494  11.448 -0.0135  0.0521 -0.4391
21682W        W38529  14.115  14.323   0.025  0.0679  0.1757  0.0599
21683W        W38530   5.324  16.344  12.103 -0.1597 -0.3549  0.0057
21684W        W38531  11.177   9.545   2.476 -0.1054  0.1820  0.0695
21685W        W38532  17.097   7.969  13.081 -0.1519 -0.0490 -0.3230
21686W        W38533  14.261   8.633  15.267  0.1253  0.1674  0.1295
21687W        W38534  13.663  15.723  11.225  0.1208 -0.1240 -0.1730
21688W        W38535  18.543  15.033  13.028 -0.2225 -0.0241  0.0338
21689W        W38536  13.753   9.552   1.717  0.0344  0.2527  0.0682
21690W        W38537  13.298  14.881   1.641  0.1636 -0.0070  0.0603
21691W        W38538  16.999   8.326   3.738  0.1015  0.0108  0.0029
21692W        W38539  10.155   2.928  13.424  0.1636 -0.2383  0.1506
21693W        W38540  13.855  12.100   5.363  0.1621  0.2463  0.2453
21694W        W38541  11.295   5.840   0.673  0.1876 -0.1754  0.1808
21695W        W38542   1.466  12.002   4.955  0.0474 -0.1797  0.1373
21696W        W38543   7.605  13.166  11.621 -0.3676 -0.1173 -0.2930
21697W        W38544   2.553  12.410  15.484 -0.0310 -0.3354 -0.1061
21698W        W38545   7.438   7.004   1.914  0.0804  0.0897 -0.0016
21699W        W38546   5.713  13.352  14.203 -0.4055 -0.0579  0.1092
21700W        W38547   3.282  16.208  13.588 -0.1941  0.2022  0.0564
21701W        W38548  10.308  16.795  13.403 -0.3272 -0.1073  0.1224
21702W        W38549  15.763   2.269   0.129  0.2078 -0.0577  0.2232
21703W        W38550  12.524   9.044   1.263 -0.2547 -0.0681 -0.3482
21704W        W38551  18.789   3.630  13.496 -0.0401  0.1424  0.0932
21705W        W38552  17.992   9.039  14.447 -0.1849  0.0120  0.1237
21706W        W38553  17.354   9.759   4.700 -0.3343 -0.0743 -0.1195
21707W        W38554  11.090   9.036   2.211 -0.0482 -0.1160  0.1762
21708W        W38555  10.022   2.331  13.449 -0.1209 -0.2706  0.0415
21709W        W38556   3.588   3.439  14.248 -0.4431 -0.0925 -0.0843
21710W        W38557  13.740  13.946   5.301 -0.1044  0.2392 -0.1752
21711W        W38558  10.627   7.845   1.840  0.0152 -0.0032  0.1626
21712W        W38559  12.874  12.989  12.681  0.0286 -0.1057 -0.2582
21713W        W38560   8.888   0.927  10.950  0.3945  0.2506 -0.1438
21714W        W38561   1.613  12.271  12.096  0.0250  0.0404 -0.1670
21715W        W38562  17.554   9.467  15.098 -0.2802 -0.1754  0.3575
21716W        W38563  11.596  17.064  12.128  0.1881 -0.0796 -0.2959
21717W        W38564   2.768   7.097  14.876 -0.1658  0.2796 -0.0556
21718W        W38565  18.007   8.937   4.203  0.1685 -0.1480 -0.2428
21719W        W38566  14.275  12.533  11.997 -0.1559 -0.0427  0.0359
21720W        W38567   3.588  12.424  10.861 -0.0076 -0.2815  0.0455
21721W        W38568   5.806   6.241   3.143  0.0126 -0.0910 -0.2297
21722W        W38569   0.852   0.100   1.712  0.0435 -0.1231 -0.0366
21723W        W38570  16.784   3.117   3.461 -0.0814 -0.1685 -0.3986
21724W        W38571  18.021  14.278  14.379  0.2297  0.0012  0.0087
21725W        W38572  10.227  16.532   0.423 -0.0036 -0.0071  0.0829
21726W        W38573   3.932  14.578   1.979 -0.1274 -0.3616 -0.1158
21727W        W38574   6.437   3.856   0.178  0.0375 -0.0343 -0.1542
21728W        W38575   0.643  18.375   3.216 -0.2729 -0.2545  0.0494
21729W        W38576   5.592  12.316   1.821 -0.1927  0.1193  0.1879
21730W        W38577   5.471   3.069  12.374 -0.0225 -0.1762  0.2152
21731W        W38578   3.187   1.172  12.300  0.1529 -0.1138  0.1632
21732W        W38579  14.211   4.434   4.986 -0.3051 -0.0451 -0.0571
21733W        W38580   7.944  15.268  12.862  0.1607 -0.0690 -0.0219
21734W        W38581   1.479   9.588  11.957 -0.1413  0.2323  0.2124
21735W        W38582   7.550  11.483  13.075 -0.1175  0.1948 -0.1356
21736W        W38583   0.849   8.332  13.040 -0.0791  0.0203  0.0754
21737W        W38584  16.887   1.034   3.748 -0.3331  0.1423 -0.2613
21738W        W38585  11.950   5.876  13.522  0.2378  0.3258  0.1279
21739W        W38586   5.068   3.011   1.162 -0.0095 -0.2281 -0.1525
21740W        W38587   8.279  12.627  14.460  0.3446 -0.0603 -0.0162
21741W        W38588  18.024   0.801  14.432  0.0028  0.3066 -0.1620
21742W        W38589  15.553  13.906   2.449 -0.0797  0.0000 -0.2498
21743W        W38590  16.199  11.287   3.411  0.3573  0.0987  0.3396
21744W        W38591  16.819   1.232   5.150 -0.1952 -0.1433  0.2867
21745W        W38592   8.554   5.811   0.942 -0.0493  0.0830 -0.0855
21746W        W38593   3.628  10.997   1.166 -0.0892  0.1521 -0.0062
21747W        W38594   2.878   9.140  13.014  0.2588 -0.0816 -0.1749
21748W        W38595   4.866   3.295   3.787 -0.0675  0.3991  0.0584
21749W        W38596  12.827   2.691  11.690  0.0114 -0.0542  0.0222
21750W        W38597   1.152   6.660   1.270  0.1251  0.2311 -0.0213
21751W        W38598   3.323   0.672  15.441  0.0845 -0.1775  0.1102
21752W        W38599  18.402   1.782  12.974  0.0025 -0.0384 -0.1660
21753W        W38600  10.599   9.517  10.432 -0.0045  0.3407 -0.1675
21754W        W38601   5.609  12.297  14.105 -0.1748  0.0996 -0.0285
21755W        W38602  17.128   2.266  13.057 -0.0495  0.3372 -0.3515
21756W        W38603  14.320   7.487   1.111 -0.0837  0.0212  0.2812
21757W        W38604   9.779  10.497  15.109  0.0060  0.2674 -0.3746
21758W        W38605  17.949  15.999   0.643 -0.0771 -0.1777 -0.1778
21759W        W38606   4.575  10.601   4.382  0.2134 -0.1249  0.2833
21760W        W38607   7.415  18.185  15.004 -0.1063  0.2357 -0.0707
21761W        W38608   6.100  11.735  11.395  0.1951  0.1550 -0.3422
21762W        W38609   8.943   9.290  12.530  0.1366  0.1479  0.0436
21763W        W38610   1.851   9.356  12.170  0.0033 -0.0288 -0.1230
21764W        W38611   6.903  14.087   0.804  0.2323  0.1748  0.2206
21765W        W38612  12.232   6.935  14.780 -0.0923  0.2623 -0.1507
21766W        W38613   0.857  10.916   6.035 -0.0236  0.1640  0.3257
21767W        W38614  14.677   2.357   1.846 -0.3239  0.1534  0.2952
21768W        W38615   4.957  13.775  12.592 -0.2947 -0.2018 -0.0017
21769W        W38616  12.713   8.500  13.411 -0.1503 -0.0246 -0.0105
21770W        W38617  13.089   3.512   1.600 -0.4171  0.2310  0.0034
21771W        W38618  17.151  10.311  15.322  0.2977 -0.1579  0.0314
21772W        W38619  16.216   1.105  10.923 -0.0870  0.1971  0.0481
21773W        W38620   8.784   5.276  11.516 -0.1399  0.2059  0.2368
21774W        W38621  11.729   3.683   3.182  0.0000  0.0991 -0.0745
21775W        W38622  13.108  11.667   2.361 -0.1516  0.0193 -0.1319
21776W        W38623   7.832   0.221  15.192  0.1757  0.0489  0.2453
21777W        W38624  12.226   7.094  12.708  0.0137  0.0333  0.1900
21778W        W38625   4.068   5.762   5.663 -0.1181  0.3993  0.2916
21779W        W38626   9.649   9.417  11.156 -0.0603  0.1523  0.4824
21780W        W38627   9.781  12.245  12.539  0.2806 -0.2065  0.1159
21781W        W38628   2.432   8.646   3.125  0.0609 -0.0434  0.2429
21782W        W38629   2.155  12.751   4.726  0.2346 -0.1824  0.2328
21783W        W38630  15.240  16.140   3.595 -0.2108  0.3618 -0.0191
21784W        W38631  18.487   0.224  14.816  0.6130 -0.0569  0.0553
21785W        W38632  13.550   0.076   0.762  0.0509  0.0779  0.2129
21786W        W38633  13.526   6.162   3.381 -0.1548  0.2371  0.1262
21787W        W38634   6.572  18.414  10.718 -0.1381  0.0653 -0.2841
21788W        W38635  18.592  17.342   1.036  0.0449  0.0294 -0.3319
21789W        W38636   6.746  15.944  11.464  0.0444  0.0215 -0.2249
21790W        W38637   4.367   1.741   1.335 -0.1192 -0.0927  0.0691
21791W        W38638  10.664   2.424   3.414  0.2825  0.2981  0.2921
21792W        W38639   5.060  14.974  15.162 -0.0632 -0.2653 -0.1260
21793W        W38640  12.851  15.677   4.962 -0.2000  0.1566 -0.3330
21794W        W38641   0.245   1.267  15.417  0.3941 -0.0410  0.2938
21795W        W38642  17.629   7.968  13.216  0.0807 -0.1259 -0.1199
21796W        W38643  15.062  10.387  14.833 -0.3734 -0.0167 -0.2239
21797W        W38644  13.182   9.215   4.442  0.1643  0.0436  0.0585
21798W        W38645  11.742   8.993   1.538  0.2864 -0.0068 -0.1504
21799W        W38646   0.420  11.635  14.507  0.1533 -0.0834 -0.1178
21800W        W38647   3.912  14.257  13.312  0.2789  0.2432 -0.0805
21801W        W38648   0.129   9.490  14.329  0.2191  0.0226  0.0903
21802W        W38649  12.824   5.432  13.207  0.3744  0.3058  0.1487
21803W        W38650   3.441   9.201   1.798 -0.1530  0.4494 -0.1306
21804W        W38651   7.595   5.959  12.600  0.0187 -0.0778  0.1722
21805W        W38652  17.008   8.690  14.329  0.0432  0.1565 -0.1963
21806W        W38653   7.413   7.771   1.412 -0.1838 -0.1108 -0.0654
21807W        W38654   8.900   5.722   4.020 -0.3015 -0.2659  0.2901
21808W        W38655  15.097  17.432   5.833  0.0725 -0.1560  0.0770
21809W        W38656  10.852  17.110  14.707  0.0405  0.0419 -0.0838
21810W        W38657   7.178   0.100  13.445  0.1707  0.3792 -0.0717
21811W        W38658  18.258   7.243   1.506 -0.1493 -0.0033  0.2145
21812W        W38659  16.273  16.769   3.038  0.0307  0.1664  0.0964
21813W        W38660  16.902  13.323  12.250 -0.1278 -0.1992 -0.1366
21814W        W38661   4.721  16.462  14.393  0.2586 -0.2266  0.0408
21815W        W38662   0.749  10.423   0.712  0.0257  0.0521 -0.0621
21816W        W38663  12.181  12.972   1.230  0.1611 -0.4276  0.0748
21817W        W38664   1.680  14.878   4.503  0.2127 -0.3130  0.0539
21818W        W38665   3.860   5.461   3.415  0.0737 -0.0685 -0.0595
21819W        W38666  14.720  17.954  14.867 -0.3375  0.3580 -0.0450
21820W        W38667  13.638   8.635   2.384  0.3167  0.1193 -0.0158
21821W        W38668  15.866   2.449   1.196 -0.1760  0.0577 -0.0789
21822W        W38669   9.672   1.029  12.742  0.0614  0.0183  0.1738
21823W        W38670  10.066  16.445  14.735 -0.0323 -0.0600 -0.1977
21824W        W38671   9.529  14.819  11.476  0.1517  0.2056 -0.1028
21825W        W38672  17.458   2.255   0.645  0.1415  0.1369 -0.0868
21826W        W38673   0.446   7.426  11.934  0.2993  0.1821 -0.2614
21827W        W38674  16.026  12.924  12.081  0.0855 -0.0411 -0.4550
21828W        W38675  17.199  16.807   1.125  0.4893 -0.0106  0.0287
21829W        W38676  10.389   2.214  14.512  0.2345 -0.0338  0.1482
21830W        W38677   0.860  11.726   0.917  0.0822 -0.2390  0.0219
21831W        W38678   8.287  13.419   3.314  0.1045  0.1635 -0.0330
21832W        W38679   0.890   0.832  10.069  0.0174 -0.0038  0.0490
21833W        W38680   6.082  15.025   0.783 -0.2289 -0.3130  0.3170
21834W        W38681  18.328   1.822  15.306 -0.4708 -0.2679  0.3264
21835W        W38682   4.763   7.126   1.429 -0.0486  0.0714 -0.0295
21836W        W38683   3.668  18.087  12.150 -0.1759 -0.4243  0.1390
21837W        W38684  13.463   9.241  10.421  0.1990 -0.0112  0.1408
21838W        W38685   2.332  15.776   1.069  0.0112 -0.0598  0.5775
21839W        W38686  11.802   9.223  11.884 -0.1625 -0.1498  0.1129
21840W        W38687  10.680  16.279   0.495 -0.3104 -0.2364  0.0021
21841W        W38688  15.464  14.474   2.808  0.0478  0.0680 -0.0244
21842W        W38689  15.958  11.705   0.695  0.1541  0.1658 -0.0417
21843W        W38690  12.105  13.135  13.120 -0.3144 -0.0858  0.1632
21844W        W38691   6.245   2.881   1.477  0.2614  0.0993 -0.0390
21845W        W38692  10.854  10.924  14.089  0.1235  0.1588 -0.1738
21846W        W38693   6.998  16.229   3.188  0.0588  0.0001 -0.1634
21847W        W38694  18.649  11.439  14.228  0.3272  0.2029  0.0876
21848W        W38695  17.240   9.054   2.439 -0.0447 -0.0189 -0.2636
21849W        W38696   8.293  10.598   4.987 -0.0481  0.1399 -0.0814
21850W        W38697   5.351  15.957  13.709 -0.2049 -0.3121 -0.0978
21851W        W38698   8.026   5.268  13.462 -0.2852 -0.3464  0.1250
21852W        W38699  12.835   2.200   1.451 -0.2263 -0.0050  0.0391
21853W        W38700  16.100   4.875   5.655 -0.0471 -0.3031 -0.0323
21854W        W38701  14.340   1.151   1.819 -0.1583  0.0202  0.2820
21855W        W38702  15.434   9.450   0.324 -0.1565  0.1497  0.0995
21856W        W38703   4.677  12.103   0.967 -0.0356 -0.1293  0.4140
21857W        W38704  17.512   0.857  14.559 -0.0250 -0.0251  0.3061
21858W        W38705  15.240   2.459  12.535  0.2449 -0.2579  0.0408
21859W        W38706   8.914  18.828  12.607  0.0548 -0.2941 -0.0718
21860W        W38707  16.332  18.684  12.647 -0.3486  0.4797  0.3137
21861W        W38708  15.128   8.841   0.381  0.0505 -0.0560 -0.2622
21862W        W38709  13.844  17.911   1.979  0.0989  0.2565  0.4381
21863W        W38710   8.771   4.897  15.663  0.1127 -0.1992  0.1827
21864W        W38711  13.902   7.788  11.498  0.1047 -0.2462  0.2097
21865W        W38712  13.098   9.657   4.617 -0.2615 -0.1409 -0.0899
21866W        W38713  13.025   7.673  14.946  0.2448 -0.1623  0.3201
21867W        W38714  17.564  11.789   1.599 -0.2882  0.1104  0.4403
21868W        W38715  17.363   7.713   2.177 -0.0618 -0.1359  0.0351
21869W        W38716   0.158  11.121  13.060  0.0694 -0.1453  0.3693
21870W        W38717   0.509  15.169   1.120  0.0275 -0.2953  0.0921
21871W        W38718   5.032   7.294   1.026 -0.0973  0.0664  0.2064
21872W        W38719  17.532  16.875   5.424  0.4557 -0.0766  0.0386
21873W        W38720   2.181   1.087  13.024  0.5415 -0.1069  0.1891
21874W        W38721  18.166  11.397   3.365 -0.0267 -0.0445 -0.3928
21875W        W38722  16.305  10.037   4.228  0.2628  0.0825  0.0426
21876W        W38723   6.699   9.426  11.332 -0.0285  0.0282 -0.2156
21877W        W38724  12.429   4.897  15.046 -0.0034 -0.0279 -0.3532
21878W        W38725  15.864   6.745   2.268  0.0008  0.2293 -0.0423
21879W        W38726  12.152   8.538   3.291  0.3311 -0.3557 -0.2852
21880W        W38727   3.955   0.000  13.845 -0.1358  0.0505 -0.0489
21881W        W38728  13.237  16.596  13.824 -0.1124  0.2687 -0.2572
21882W        W38729  15.602   4.676  11.507  0.0599  0.1804 -0.0030
21883W        W38730  15.644  17.124  12.216 -0.2413 -0.2496  0.0095
21884W        W38731  13.542   0.583   4.715  0.1778 -0.0350  0.0383
21885W        W38732  12.376  14.520   3.100  0.0089 -0.2430 -0.1459
21886W        W38733   6.128  11.499  13.085  0.0524 -0.3408 -0.1667
21887W        W38734   2.553  11.497   3.927 -0.1334 -0.0066 -0.0158
21888W        W38735  15.512   2.780  14.339 -0.0195 -0.3887  0.2753
21889W        W38736  11.948  13.914   0.301  0.0289 -0.2601 -0.1868
21890W        W38737  15.518   3.406   1.873 -0.2854 -0.2144  0.2998
21891W        W38738   8.559  14.696   3.832 -0.0085 -0.0041  0.2264
21892W        W38739  11.238   1.209   5.541 -0.2493  0.1913 -0.3090
21893W        W38740  16.383  13.845  11.337 -0.2611  0.1628 -0.0851
21894W        W38741   4.942   9.357   3.063 -0.0778 -0.0287  0.1696
21895W        W38742   9.574   0.291  15.732  0.0028  0.1229  0.0537
21896W        W38743   3.323   8.584   3.322  0.3868 -0.0799  0.0950
21897W        W38744  15.019   7.514  12.451  0.0465  0.1979 -0.3430
21898W        W38745   7.645  11.817  12.670 -0.0934 -0.1409 -0.3631
21899W        W38746   7.087  13.230   4.097 -0.1140  0.0225 -0.1213
21900W        W38747  15.804  13.254   2.327  0.0928  0.2728 -0.0576
21901W        W38748   9.367   6.227  11.741  0.1270 -0.2336  0.1843
21902W        W38749  16.358  15.180   0.893 -0.1473  0.1273  0.0583
21903W        W38750  14.206  13.835   5.050 -0.1786  0.1674 -0.2700
21904W        W38751   5.709  15.361   3.456 -0.1175  0.1727  0.0018
21905W        W38752  16.213  18.189   2.185  0.0547  0.1882  0.2263
21906W        W38753  13.298   2.459   4.402  0.0827  0.0514  0.2834
21907W        W38754  18.602  11.033  12.848  0.1193  0.2326 -0.0612
21908W        W38755   0.934  15.473   2.519 -0.1515  0.0747 -0.0551
21909W        W38756   7.779  18.270  13.005  0.0762  0.0231  0.2617
21910W        W38757   9.616  16.540  10.318  0.1588 -0.0260  0.2776
21911W        W38758   7.006   9.285   3.261  0.1739  0.0488 -0.2798
21912W        W38759  18.493   9.417  12.639 -0.0068 -0.1256  0.1063
21913W        W38760   1.642  18.515  15.025 -0.0684 -0.1683 -0.1534
21914W        W38761   7.050   3.939  12.676 -0.1648 -0.2679  0.0720
21915W        W38762   6.441  13.909   1.395 -0.1482 -0.1479  0.3463
21916W        W38763   6.789  16.553  14.632 -0.2241  0.1207  0.1312
21917W        W38764   6.642  15.714   1.931  0.4340  0.1888 -0.2279
21918W        W38765  16.184  10.887   3.114  0.1813  0.0252  0.1721
21919W        W38766   0.912  12.910   0.669  0.0597 -0.1026 -0.3778
21920W        W38767   7.834  15.396   1.823  0.2790 -0.1566  0.0938
21921W        W38768   7.526   8.996  11.761 -0.0979  0.2180 -0.2717
21922W        W38769   5.628   8.238   0.095 -0.0338  0.0860 -0.0171
21923W        W38770  17.320  10.854  14.115 -0.0612  0.0932  0.1904
21924W        W38771   0.130  13.426   3.978  0.1831 -0.1628  0.0377
21925W        W38772   9.557  15.141  14.533 -0.1356 -0.0861 -0.0565
21926W        W38773  16.786  11.428   5.502 -0.0023  0.1385 -0.0749
21927W        W38774   4.838  13.976   1.013  0.1530  0.1971 -0.1470
21928W        W38775   9.022   3.935   2.121  0.2061 -0.2830 -0.0016
21929W        W38776   9.241   2.145  12.014  0.5113  0.0412  0.4261
21930W        W38777  18.050  13.728   2.300  0.2295 -0.3326  0.1569
21931W        W38778  16.545  11.223  15.072  0.0258  0.4118  0.2034
21932W        W38779   2.294  10.516  14.835 -0.3807  0.0185 -0.2513
21933W        W38780   0.643  15.975   3.500 -0.1288 -0.0930 -0.0388
21934W        W38781   5.645   7.479   3.625  0.0867  0.0761  0.1274
21935W        W38782  15.269  17.322   2.577 -0.1023 -0.0376 -0.0005
21936W        W38783  17.648  11.561   3.080 -0.0987  0.2782 -0.0119
21937W        W38784  15.550  10.405   4.488  0.0213  0.0091  0.1211
21938W        W38785   6.651  18.330   3.928  0.1875  0.1385 -0.1439
21939W        W38786  17.974  11.864   3.342 -0.1978 -0.0367  0.0420
21940W        W38787  10.913  12.004   1.097  0.3353 -0.2459 -0.0728
21941W        W38788  16.829  12.037   4.218  0.0396 -0.0878  0.0421
21942W        W38789   4.386  10.949  10.776 -0.1378  0.1730 -0.2961
21943W        W38790  18.616  15.786  12.880 -0.1779 -0.2470 -0.0511
21944W        W38791  15.302  15.850   2.723 -0.2750  0.1158 -0.0537
21945W        W38792   8.051  14.023  12.906 -0.4554  0.3216 -0.1285
21946W        W38793   7.005  16.374  13.453  0.0847  0.3519  0.4324
21947W        W38794   1.183  18.633  14.817 -0.1735  0.2281 -0.1208
21948W        W38795   0.677  13.441   1.804  0.1422 -0.1634  0.3611
21949W        W38796  15.031  11.716   1.838 -0.0883  0.2306  0.2820
21950W        W38797   7.365  13.286  14.289 -0.0456 -0.0806 -0.0239
21951W        W38798   8.827  18.091   0.685 -0.0554 -0.2441 -0.0899
21952W        W38799   9.232  15.558  11.896  0.1588 -0.2237  0.0746
21953W        W38800  13.415   4.639  15.054 -0.2033 -0.0795 -0.0770
21954W        W38801  15.383  15.824   2.059  0.0144  0.1628 -0.1415
21955W        W38802  16.498  14.958   1.476 -0.2028  0.0647 -0.0360
21956W        W38803  16.251  18.773  13.595  0.0910 -0.0936  0.0735
21957W        W38804   7.502   0.572  14.960 -0.0026 -0.4262 -0.2161
21958W        W38805  15.116   7.303   5.256 -0.0151  0.2644 -0.1392
21959W        W38806   0.548   4.861  14.664  0.3627  0.0771 -0.0919
21960W        W38807   1.452  14.392   2.116  0.0760  0.0353  0.0007
21961W        W38808   3.680  16.800   2.098  0.1324 -0.0149  0.0671
21962W        W38809   5.200   9.135  15.673 -0.2226 -0.0120  0.1255
21963W        W38810   1.480  10.476   3.880  0.2474  0.1024 -0.1274
21964W        W38811   6.164   5.080   1.280 -0.1769 -0.0960  0.1463
21965W        W38812   8.230   1.925  14.140  0.0878 -0.2084  0.0432
21966W        W38813  10.636  12.000  12.723 -0.1285  0.0092 -0.0693
21967W        W38814   4.546   8.308   5.324  0.0512 -0.1602  0.0417
21968W        W38815  12.170  10.261  15.042  0.1942  0.2216 -0.1635
21969W        W38816  14.440   8.527   3.175 -0.1491  0.2257  0.3089
21970W        W38817  10.035  11.084  13.867 -0.2278 -0.1808 -0.4736
21971W        W38818  10.856   8.534   0.510 -0.0166 -0.4496  0.0795
21972W        W38819   9.863   5.806  11.861 -0.0001  0.2191 -0.0180
21973W        W38820   6.706  17.655   0.170  0.0320 -0.2195  0.1062
21974W        W38821   0.508   1.897  12.283 -0.0784  0.1767  0.1849
21975W        W38822  18.581   0.440   1.342  0.2341  0.0525  0.2301
21976W        W38823  16.088   6.973   0.268  0.1602  0.3333  0.3453
21977W        W38824  10.550   3.896   2.671  0.1968 -0.0571 -0.2019
21978W        W38825  12.320  10.536  10.720  0.1074  0.2123 -0.1963
21979W        W38826  14.358   9.657   3.592 -0.1215  0.3010  0.0620
21980W        W38827   5.321  18.481  15.343 -0.2957 -0.0479 -0.1099
21981W        W38828   0.205  12.781  13.464 -0.2164  0.1505 -0.1099
21982W        W38829  17.310   7.747  15.005  0.2120 -0.1773 -0.2594
21983W        W38830   8.190   6.450  14.542 -0.0435 -0.2796  0.2184
21984W        W38831  11.253  16.667   2.053 -0.1497 -0.0044  0.2986
21985W        W38832   1.284   0.641  14.655 -0.1523 -0.1193 -0.0389
21986W        W38833  14.614  16.119   5.520  0.0395  0.1674 -0.0436
21987W        W38834   4.149   8.241   2.162 -0.0631  0.4939  0.1644
21988W        W38835   0.514   5.003   0.393  0.0773 -0.0347 -0.1865
21989W        W38836   0.943   7.112   1.902  0.0138 -0.0702  0.3560
21990W        W38837   1.468   3.375   2.498 -0.2175  0.0172 -0.3009
21991W        W38838  18.224  13.215   4.746 -0.0843  0.0777  0.0550
21992W        W38839  16.431  10.699   5.341 -0.0622 -0.1983 -0.1084
21993W        W38840  14.697  18.344  11.851  0.1003  0.4419 -0.1238
21994W        W38841  13.417  17.119  12.729  0.1602  0.1175  0.2240
21995W        W38842  10.280  17.689   3.669 -0.1177 -0.3971 -0.0762
21996W        W38843   8.049   2.652  11.002 -0.3569  0.3862 -0.3758
21997W        W38844   5.255  10.085  13.724  0.2692 -0.1699  0.0880
21998W        W38845  15.555  18.700  13.131  0.4460  0.3909 -0.0272
21999W        W38846   2.698  18.780   9.532  0.2298  0.3554 -0.0390
22000W        W38847  15.173   4.426   3.642  0.1603  0.1960  0.0406
22001W        W38848  15.100  10.259   0.833 -0.1579  0.2731 -0.3102
22002W        W38849   9.241  15.012  10.667 -0.1852 -0.0426 -0.0471
22003W        W38850   1.292   9.575   0.602 -0.2776 -0.0221  0.2257
22004W        W38851   9.169  18.486   5.006  0.1653  0.1537  0.1180
22005W        W38852  15.795   1.367   3.210 -0.0337  0.0465  0.0743
22006W        W38853  11.076   7.104  12.527 -0.1422  0.1177 -0.3090
22007W        W38854   3.079   3.358  14.214 -0.0759  0.0081  0.4948
22008W        W38855   9.209   9.281   1.203 -0.1359 -0.0493 -0.4319
22009W        W38856  14.505   4.252   4.051 -0.1433  0.1912 -0.1633
22010W        W38857  13.336   7.953  11.619 -0.0553  0.1657  0.2051
22011W        W38858  14.726  16.261   1.534  0.1959 -0.1479  0.0339
22012W        W38859   5.075  17.128   5.406 -0.0250  0.0405  0.1536
22013W        W38860   9.162   7.396   1.563  0.2048  0.3945  0.1336
22014W        W38861   1.488   5.284   0.809  0.0091 -0.1619 -0.1449
22015W        W38862  16.239  14.276  15.647 -0.0574 -0.0516 -0.1420
22016W        W38863   6.667  12.172   3.429  0.3840  0.3872 -0.1328
22017W        W38864   7.275   0.741  11.878 -0.3513 -0.2590  0.1297
22018W        W38865  10.150   6.280   4.633  0.0569  0.2640 -0.0827
22019W        W38866   8.519  14.267   2.529  0.1681 -0.3471 -0.1905
22020W        W38867   7.703  14.817   4.559  0.3556  0.0673  0.1281
22021W        W38868   5.142  13.347   0.851 -0.2986  0.2252  0.2294
22022W        W38869  17.276  13.712   3.945 -0.2726  0.0490  0.0989
22023W        W38870   1.853  11.820  14.686 -0.0878 -0.0085 -0.1660
22024W        W38871  16.744   5.661  13.550 -0.1014 -0.0063 -0.0520
22025W        W38872  16.074  16.497   0.470 -0.2000 -0.1678  0.0591
22026W        W38873  11.298  10.597  12.343 -0.0461  0.0346  0.0012
22027W        W38874   4.571  14.155   0.466 -0.0380 -0.2933  0.2096
22028W        W38875   3.893   6.017   3.429 -0.0945  0.3702 -0.2178
22029W        W38876  16.137   6.996   1.388 -0.0700  0.3087 -0.0247
22030W        W38877   4.600   7.286   4.356  0.3512  0.4957 -0.0396
22031W        W38878   0.283  16.444  13.829  0.3310  0.1216 -0.0771
22032W        W38879  12.930   0.909  15.421 -0.0167  0.1114  0.2745
22033W        W38880   2.419  11.432   2.514  0.2637 -0.4330  0.0281
22034W        W38881  10.339  16.168   4.583 -0.0370  0.0768 -0.1455
22035W        W38882  16.036   5.129   1.974 -0.3442  0.2208 -0.0086
22036W        W38883  17.168   3.774  14.684 -0.2795 -0.1921 -0.0227
22037W        W38884   0.838   2.420   4.089  0.1345 -0.0278  0.0156
22038W        W38885  15.656  16.152   2.344  0.0250  0.0802 -0.1467
22039W        W38886   7.413   8.896  12.572  0.0237  0.1568 -0.0028
22040W        W38887  14.912   4.892  14.122  0.1318 -0.0269 -0.2803
22041W        W38888  18.368  17.236  14.452 -0.0304 -0.2930  0.0857
22042W        W38889   2.693  16.229  15.234 -0.1200  0.0394  0.0218
22043W        W38890   8.639   4.114  14.986 -0.4136  0.2056  0.1438
22044W        W38891  16.065   3.619  13.325  0.3616  0.1670 -0.0034
22045W        W38892  10.345  17.957  15.458 -0.3494  0.2907  0.0437
22046W        W38893   8.163  14.187  15.137  0.0228  0.1113 -0.1655
22047W        W38894   8.591  15.186   3.558  0.2109 -0.0757  0.1149
22048W        W38895  10.708   7.904  13.788 -0.0496 -0.0904 -0.0189
22049W        W38896   7.364  17.496  10.000 -0.1104 -0.1607  0.0887
22050W        W38897   6.439   7.799  11.994  0.3998  0.0369 -0.2651
22051W        W38898   0.492   3.849   2.745  0.0075  0.1878 -0.4988
22052W        W38899  16.029  12.739   4.660 -0.1161 -0.2832 -0.1565
22053W        W38900  16.483  11.289  14.509  0.1668  0.2076  0.0429
22054W        W38901  10.006  12.322   1.398  0.2301 -0.0120 -0.2813
22055W        W38902  11.647   6.937  12.055  0.0261 -0.2268  0.0141
22056W        W38903   1.273   8.730  14.582 -0.0575  0.4222  0.1444
22057W        W38904   7.109   9.181  12.085  0.0550  0.0330 -0.2382
22058W        W38905   4.986   7.055   3.804 -0.2753 -0.1407  0.6131
22059W        W38906   3.373   8.529  15.599  0.4279 -0.0064  0.0694
22060W        W38907  10.057  11.342   1.680  0.3471 -0.4245  0.2497
22061W        W38908  14.159   3.308   1.868  0.1123 -0.0958  0.2400
22062W        W38909   0.783   9.704  12.216  0.0823  0.1767 -0.1725
22063W        W38910   5.355  14.302   2.412  0.1274  0.0157 -0.0511
22064W        W38911  18.476  12.039  12.037  0.3423 -0.1925  0.0851
22065W        W38912  10.903   0.796  13.885  0.2165  0.1917 -0.0498
22066W        W38913   9.335  10.317  15.392 -0.0153  0.0422 -0.0846
22067W        W38914   1.244   4.593   4.637 -0.0641  0.0176  0.1785
22068W        W38915   9.914   5.488  13.259  0.4019 -0.1568  0.1240
22069W        W38916   0.480   7.790   3.912 -0.1559 -0.0951 -0.2982
22070W        W38917  11.057   8.728  10.935  0.2096  0.0121  0.2140
22071W        W38918   3.715   5.654   5.283  0.2917 -0.2638  0.1744
22072W        W38919  12.100  16.151   2.532  0.1304  0.2575 -0.1285
22073W        W38920  10.700  11.800  11.817 -0.1240 -0.0606 -0.1324
22074W        W38921   3.346   6.301   3.382 -0.2025  0.1324 -0.0718
22075W        W38922   8.910   7.672   2.485 -0.1037 -0.5582 -0.0009
22076W        W38923  16.834  15.673  12.812  0.2195  0.2807  0.0352
22077W        W38924  14.533   9.911   0.099 -0.0866 -0.2666 -0.0320
22078W        W38925   3.185  10.653  11.574 -0.2378  0.3260 -0.1856
22079W        W38926   8.900   7.110  13.858 -0.1122 -0.0093  0.1274
22080W        W38927  16.125  10.804  12.255 -0.0793  0.1924 -0.1817
22081W        W38928  10.647   0.259  10.475 -0.2995 -0.3049 -0.3272
22082W        W38929  10.943   6.380  15.420  0.0766 -0.1780  0.4831
22083W        W38930   0.494  15.047  11.222  0.0927  0.3676 -0.3563
22084W        W38931   8.070  15.555  12.427 -0.0707  0.0836 -0.1293
22085W        W38932  14.752  16.087  14.281  0.1290  0.1335 -0.0120
22086W        W38933  12.107   3.022   3.952  0.2243 -0.0612 -0.1894
22087W        W38934   6.453   5.863  13.458 -0.2321 -0.2337 -0.0428
22088W        W38935  13.018  12.483  15.614 -0.4235 -0.1405 -0.1741
22089W        W38936   5.209  11.874  11.743 -0.1734 -0.0365  0.0193
22090W        W38937   3.079   7.308  15.317  0.1877 -0.0374  0.2948
22091W        W38938  16.541  11.930   2.642 -0.0082  0.1693  0.1570
22092W        W38939  11.597   2.547  14.355 -0.0655 -0.1567  0.0843
22093W        W38940   7.898   6.080  15.518  0.5820 -0.2029 -0.3773
22094W        W38941   7.042   6.985  14.966 -0.1541  0.0277 -0.0103
22095W        W38942   4.109  12.000   2.394  0.1627 -0.0709 -0.2637
22096W        W38943   4.179  12.947  14.137 -0.1482 -0.1446  0.1012
22097W        W38944  10.251   0.206   1.603  0.0042 -0.3499 -0.0385
22098W        W38945  16.388   2.263  11.335 -0.1028 -0.5114 -0.2799
22099W        W38946  12.510  12.439   2.816  0.2222  0.2245 -0.3217
22100W        W38947  15.290   9.078   5.319  0.4605 -0.1893  0.0949
22101W        W38948  16.661   9.140   1.770 -0.1097  0.0315  0.0801
22102W        W38949   8.407  18.688   1.195  0.2823 -0.1959 -0.0980
22103W        W38950   8.199  12.615   0.234 -0.0555 -0.2369 -0.1431
22104W        W38951   4.187  17.185   2.126  0.1987 -0.0983 -0.5047
22105W        W38952   7.334   2.176   4.203  0.0573  0.2282  0.0203
22106W        W38953  17.757  18.266   0.822  0.1825 -0.3208 -0.0736
22107W        W38954  11.123   7.330   0.759 -0.0548  0.0348 -0.1649
22108W        W38955   1.008  18.116  10.800 -0.0763 -0.0701  0.3602
22109W        W38956   3.673   0.271  15.561  0.3869  0.0372 -0.0759
22110W        W38957  15.813  18.194  13.076 -0.0787  0.2185  0.1747
22111W        W38958  18.734   8.680  11.651  0.3371 -0.0352  0.1424
22112W        W38959   4.258   6.864   4.310  0.1757 -0.0636  0.0769
22113W        W38960   8.369   4.840   0.594  0.0125  0.3480  0.0129
22114W        W38961   4.477  10.076  12.626 -0.2669  0.3158 -0.1327
22115W        W38962  18.485  13.808   2.592  0.0152 -0.7061 -0.0075
22116W        W38963  10.143   6.610   0.062 -0.0370  0.1201  0.1445
22117W        W38964   8.517   2.797   4.337 -0.1741  0.0449 -0.0306
22118W        W38965  16.669  18.780   2.855 -0.2257  0.0645  0.1821
22119W        W38966   2.130   9.294  14.643  0.1780  0.2819  0.1549
22120W        W38967   7.389   9.012   1.640  0.4179  0.0421 -0.0633
22121W        W38968  15.833   0.038  12.612  0.0999  0.1505 -0.0336
22122W        W38969  13.371   2.286  11.650  0.1579  0.0012  0.1719
22123W        W38970   5.096  16.311   0.381  0.0378  0.0800  0.2250
22124W        W38971   2.746  18.040  12.386  0.0355 -0.0087  0.1076
22125W        W38972   7.083   2.319   0.176 -0.0413  0.3435 -0.3025
22126W        W38973   0.109  16.416   3.109  0.0679  0.1087  0.0577
22127W        W38974   1.986  15.537   1.385  0.1383  0.1687 -0.2684
22128W        W38975  10.749  15.094   4.031 -0.2372  0.0251  0.1988
22129W        W38976   5.155   7.639  15.740  0.0820  0.1959  0.1286
22130W        W38977   5.629   9.462  14.221 -0.2047 -0.1853  0.2519
22131W        W38978  18.740   2.995   4.480  0.0207 -0.0626  0.1066
22132W        W38979   5.066  17.513   3.604 -0.0302  0.1129  0.2130
22133W        W38980  14.025   0.889  12.709  0.1616  0.0985 -0.0460
22134W        W38981  18.324   6.243   1.486  0.3477  0.2043 -0.0850
22135W        W38982  12.982  13.194  13.655  0.0047 -0.2656  0.1452
22136W        W38983  14.473  11.862   1.834 -0.2733 -0.0393 -0.5085
22137W        W38984  10.267   2.507  13.032  0.2907 -0.3854  0.0831
22138W        W38985   7.417  17.487   2.346 -0.0465  0.0630 -0.2522
22139W        W38986   6.871  13.298   1.406  0.1317 -0.0296  0.0468
22140W        W38987   8.238   3.246  12.827 -0.1588 -0.0635  0.2671
22141W        W38988   0.066   7.801  12.592 -0.1647 -0.0821  0.0513
22142W        W38989   8.233   2.167  13.712  0.3747 -0.0364  0.3426
22143W        W38990   5.113   5.605   3.260 -0.3723 -0.1333 -0.0308
22144W        W38991  12.042   2.746   3.568  0.1948  0.0154 -0.4401
22145W        W38992  11.832   4.622  12.641  0.0396  0.3445 -0.1779
22146W        W38993  13.749   5.884  14.779  0.0468 -0.0609  0.0362
22147W        W38994   4.107   6.677  13.373  0.2343  0.1825 -0.1055
22148W        W38995  18.648  16.855  14.129 -0.4854  0.0801  0.0518
22149W        W38996   8.265  10.130   1.541 -0.1513  0.0307  0.1823
22150W        W38997  14.663   2.371   3.497 -0.2255  0.1147 -0.0519
22151W        W38998  11.877   3.790  13.800 -0.0781 -0.0634  0.2313
22152W        W38999   8.918  11.879   4.329 -0.0379  0.0153  0.0938
22153W        W39000   9.875   6.987   0.833  0.0432  0.2619  0.4970
22154W        W39001  10.891   2.985   1.522  0.3332 -0.1382  0.0900
22155W        W39002   7.722  11.448  10.646 -0.0906  0.0213  0.2717
22156W        W39003   1.537   6.811  10.359 -0.0571 -0.5331  0.3038
22157W        W39004  13.265  10.008   3.730  0.4041  0.0064 -0.0393
22158W        W39005  12.037  18.637  15.633 -0.4160 -0.0648 -0.0814
22159W        W39006   7.237   7.304   2.524 -0.0866 -0.1430  0.0392
22160W        W39007   9.032   8.874   0.534 -0.0233  0.1057  0.0620
22161W        W39008  12.681   8.688  11.924  0.0147  0.3804 -0.0664
22162W        W39009  18.034  12.007   2.866 -0.0542  0.3508 -0.1070
22163W        W39010  12.092   9.373   1.379 -0.0439 -0.0665  0.5077
22164W        W39011   9.911   1.419   0.515  0.0283 -0.0058  0.2047
22165W        W39012  18.565   8.415   0.235 -0.1509 -0.0358 -0.1147
22166W        W39013   5.534  15.328  10.404  0.1845  0.0131 -0.2079
22167W        W39014  16.626   9.556  10.372  0.0405  0.0895 -0.1044
22168W        W39015  12.562  13.829   4.726 -0.1245 -0.1869 -0.0534
22169W        W39016   7.347   7.841  13.404  0.2603  0.1912 -0.1535
22170W        W39017  18.385   1.025   4.258 -0.0931  0.1427  0.3019
22171W        W39018  14.555  10.630   2.584  0.2849  0.0554 -0.2144
22172W        W39019   6.718   9.720  10.810  0.0373 -0.0394  0.0309
22173W        W39020  16.928  13.177   4.563 -0.1869  0.0295 -0.0926
22174W        W39021  12.721  14.953   3.017  0.0088 -0.2600  0.1905
22175W        W39022  17.725   4.607  14.717 -0.3791  0.0862  0.2464
22176W        W39023  14.542   8.271  14.858  0.0313  0.0351 -0.0058
22177W        W39024  17.864  12.191  13.549 -0.1201 -0.2001  0.4026
22178W        W39025  16.226   2.668  15.487 -0.4526 -0.0569 -0.3466
22179W        W39026   7.721   7.807  14.223 -0.1575  0.0185 -0.2271
22180W        W39027  11.995   6.403   1.005 -0.1346  0.1346  0.0479
22181W        W39028   4.840  15.458   3.380  0.2138  0.0173 -0.0770
22182W        W39029  10.825   8.464  11.403  0.0888 -0.0150 -0.1789
22183W        W39030  12.828   4.933   3.298  0.0547  0.1065  0.0177
22184W        W39031   5.784  16.519  15.185 -0.2706 -0.0254 -0.0654
22185W        W39032  12.773   7.443  14.069 -0.1364  0.1660 -0.1184
22186W        W39033  16.433   2.729  14.674  0.0910  0.4209 -0.3085
22187W        W39034   3.459   0.743  14.515  0.0136  0.2853  0.0016
22188W        W39035  16.727   1.995   4.345 -0.1199 -0.0098  0.0730
22189W        W39036   5.911   3.567   0.315 -0.0628  0.0104  0.0077
22190W        W39037   6.804   6.393  13.016  0.3181 -0.0301 -0.2334
22191W        W39038   0.702  10.361  15.083  0.1459 -0.1300 -0.2385
22192W        W39039   0.839   3.401   0.585 -0.2135 -0.1180  0.2737
22193W        W39040  16.767  11.177   4.681  0.1001 -0.0458  0.2298
22194W        W39041   1.398   4.347   0.627 -0.0622 -0.1952  0.1743
22195W        W39042   9.723  12.331  10.875  0.0972  0.0811  0.0513
22196W        W39043  13.727   9.157   2.035 -0.1141  0.0140 -0.1379
22197W        W39044  18.668   3.746  12.703  0.0068  0.2504 -0.2512
22198W        W39045   1.077  11.612   5.606  0.3019  0.1608 -0.2807
22199W        W39046  14.875   8.412  12.133 -0.0550  0.3097  0.1537
22200W        W39047   8.888   8.430  11.612 -0.1870  0.0365  0.0970
22201W        W39048   0.071   3.786  14.131 -0.0353 -0.1959  0.0428
22202W        W39049  15.431  16.382  11.822  0.0100  0.1098 -0.0956
22203W        W39050  12.565   5.235   3.603  0.2859  0.3765 -0.2737
22204W        W39051   8.494   2.335   5.040  0.1539  0.2218  0.1891
22205W        W39052  11.316   7.273  11.556  0.0773 -0.0192  0.1057
22206W        W39053   7.263  14.380  10.729 -0.0000 -0.1221  0.2053
22207W        W39054   4.416  14.764  15.455 -0.3415 -0.0701  0.2098
22208W        W39055   6.579  15.931   4.065  0.0218 -0.1136  0.1368
22209W        W39056   1.886   1.804   5.123  0.0329 -0.0304 -0.1502
22210W        W39057  10.198   3.887  15.112  0.0024  0.0094  0.1621
22211W        W39058  14.196   0.669  13.338 -0.0222  0.0152 -0.1427
22212W        W39059  17.859   1.982  15.148  0.1940 -0.0105 -0.1074
22213W        W39060  14.621   3.996  14.142  0.1655  0.3227 -0.0964
22214W        W39061   8.782  16.725  12.822 -0.0733  0.0908 -0.2513
22215W        W39062   6.882   6.998  11.976  0.3809  0.1360 -0.2610
22216W        W39063  18.089   4.330   3.708 -0.2373  0.0648  0.0169
22217W        W39064   9.427  16.862   2.198 -0.0290 -0.0714 -0.3211
22218W        W39065   9.372  11.732   2.455  0.2143 -0.1980 -0.2854
22219W        W39066   6.386   5.381   5.359 -0.4025  0.0260 -0.2792
22220W        W39067  18.642   6.024  12.758 -0.0421  0.2011  0.1232
22221W        W39068   1.098  11.379  11.977  0.1732 -0.0782  0.0703
22222W        W39069   3.284   0.996   4.368  0.0384 -0.0738 -0.0655
22223W        W39070  14.628  12.926   3.445 -0.1469 -0.0453  0.3323
22224W        W39071  14.638   0.393   2.458 -0.2432 -0.1283  0.0587
22225W        W39072  14.438  12.732  11.474 -0.0278  0.0605  0.0479
22226W        W39073  18.127  14.672   2.132  0.1845  0.0763 -0.0608
22227W        W39074  13.851  17.687  14.963  0.0623 -0.0331  0.0861
22228W        W39075  10.545  12.177  12.227 -0.2835 -0.0422  0.2286
22229W        W39076   0.930  15.187  14.063 -0.1346 -0.0908 -0.2600
22230W        W39077   9.537  10.550  12.060  0.0456 -0.3444 -0.0495
22231W        W39078  13.811  13.926   4.749 -0.0017 -0.1270  0.1575
22232W        W39079  15.943   7.867  15.459 -0.0896 -0.0404 -0.0412
22233W        W39080  16.640   7.877   6.138 -0.0168  0.0943 -0.2382
22234W        W39081  13.036   7.862  14.168 -0.1946 -0.3355 -0.2518
22235W        W39082   9.856  14.465  15.433  0.2217 -0.0102 -0.1659
22236W        W39083   0.864  18.605  12.844  0.2447  0.0353  0.0828
22237W        W39084   9.645   2.341  12.195  0.1221  0.2810  0.1806
22238W        W39085  10.558  11.197   4.544 -0.2855  0.0564  0.0922
22239W        W39086   9.951   7.339  14.109 -0.2830  0.1674 -0.0428
22240W        W39087   3.969   5.231  15.753  0.0485  0.2519 -0.2404
22241W        W39088  16.979  15.034  10.940  0.2147  0.1766 -0.2428
22242W        W39089   8.666  14.791   9.795  0.0199  0.2374 -0.2857
22243W        W39090   8.573  16.575  14.547 -0.0482  0.2117 -0.3102
22244W        W39091   3.763  13.259  14.311  0.0405 -0.3906  0.2162
22245W        W39092  14.604   8.791   4.786 -0.0685  0.1624 -0.0655
22246W        W39093   3.136  15.138   1.988 -0.0235  0.1712 -0.1099
22247W        W39094   8.808  11.548   3.843 -0.0268  0.0946  0.0475
22248W        W39095  15.984  10.800   5.174  0.2853  0.2436  0.2659
22249W        W39096  15.355   6.964   2.932  0.1311 -0.3944  0.0038
22250W        W39097  11.531  12.123  14.412  0.1079 -0.0278 -0.0791
22251W        W39098  15.852  14.465  13.741 -0.0452 -0.1681  0.0026
22252W        W39099  13.223  10.532  13.796  0.0853 -0.0803 -0.0645
22253W        W39100  17.844  17.709   5.103 -0.2381 -0.3077 -0.0429
22254W        W39101  14.946  17.926   1.201 -0.0525  0.0203  0.0251
22255W        W39102   9.443   8.601   1.014  0.0262  0.0573 -0.3897
22256W        W39103   8.892   4.739   0.904  0.1440 -0.0804 -0.0375
22257W        W39104   1.378   2.068  12.574  0.2329 -0.1218 -0.2067
22258W        W39105  15.244  10.808  12.476  0.0038 -0.1487  0.0430
22259W        W39106   0.110  18.467  10.957 -0.4292 -0.2891  0.1613
22260W        W39107   3.736   2.680   2.314 -0.0815  0.1217 -0.1232
22261W        W39108   7.346   3.738   2.400  0.3024  0.0289  0.0605
22262W        W39109   1.371  14.923   3.760 -0.2463  0.0812  0.2207
22263W        W39110   1.256  14.003  15.169 -0.2905 -0.2293 -0.0353
22264W        W39111  18.500  18.300  15.311  0.0612 -0.1587  0.3610
22265W        W39112  10.716   8.322   4.411  0.2850  0.2002 -0.0151
22266W        W39113  12.703  11.164   1.763  0.2451  0.1934  0.0389
22267W        W39114   7.723   4.619  14.016  0.4600 -0.0366 -0.2070
22268W        W39115   3.022   7.389   0.884 -0.1799 -0.1390 -0.1258
22269W        W39116  15.064   1.227  14.768 -0.2906 -0.0452  0.2317
22270W        W39117   4.301   9.126  15.089 -0.0706  0.0225  0.0230
22271W        W39118  15.960   1.580   2.428  0.0962  0.0116 -0.1943
22272W        W39119  10.442   0.309   0.101 -0.0575 -0.0316 -0.1887
22273W        W39120  10.553   5.221  10.696  0.0470  0.0167 -0.0200
22274W        W39121   5.540  15.482   2.348  0.0754 -0.2939 -0.0694
22275W        W39122  14.900  11.316   3.993 -0.0706 -0.0406  0.3481
22276W        W39123   2.621  10.073  14.829  0.3845  0.0563  0.3156
22277W        W39124   7.679   0.612   2.030 -0.0130  0.0399  0.1993
22278W        W39125  15.481  12.238   4.783  0.0783  0.4986 -0.0709
22279W        W39126  12.112  18.080  14.297  0.3619 -0.1215 -0.0069
22280W        W39127  18.338   1.964   3.703 -0.1577 -0.1832  0.2511
22281W        W39128  17.369  17.143   1.957  0.2734 -0.3443 -0.0982
22282W        W39129   2.425  10.482   2.852  0.0258  0.2117 -0.0376
22283W        W39130   9.455   9.546   0.810  0.5039  0.1154 -0.0518
22284W        W39131   0.862   2.759  12.401  0.0520 -0.0293  0.1907
22285W        W39132  17.683  10.369  12.479 -0.1324  0.0539 -0.1724
22286W        W39133   5.350   6.332   5.726 -0.1465  0.0840  0.0124
22287W        W39134  17.117   6.686   3.593  0.1552 -0.1825 -0.1206
22288W        W39135  14.555  15.135  15.576 -0.1547 -0.3544 -0.0027
22289W        W39136   3.033  11.318   1.818 -0.0732 -0.2483 -0.1384
22290W        W39137   6.622  11.481   1.521  0.0068  0.1303 -0.2149
22291W        W39138   9.525   9.230  12.607 -0.4761 -0.3140 -0.3308
22292W        W39139   5.327   5.809  12.866 -0.1402 -0.3270 -0.1335
22293W        W39140  11.141   1.383  13.741 -0.0995 -0.1707 -0.0718
22294W        W39141  17.283  11.889   3.281 -0.1279 -0.1676  0.0296
22295W        W39142  17.335  13.405   2.615 -0.0065  0.0349  0.0260
22296W        W39143  15.643  15.049   1.419 -0.0994  0.1455 -0.1576
22297W        W39144   1.164   9.390   1.484 -0.0810  0.0628  0.2799
22298W        W39145  11.045  17.777  14.620 -0.0298  0.1463  0.1619
22299W        W39146   6.140  14.631  13.364  0.0139 -0.0500 -0.2113
22300W        W39147  16.962   2.957   2.516  0.1945  0.3409 -0.1243
22301W        W39148  12.179   7.602  11.778  0.1652  0.0477 -0.1577
22302W        W39149  14.971  17.064  11.512 -0.0183  0.1180  0.1124
22303W        W39150  12.484   1.949   4.437 -0.0507 -0.1301 -0.0339
22304W        W39151   8.523  12.059   1.941 -0.0711  0.2035  0.0483
22305W        W39152  12.216   4.685   2.479  0.0376  0.0948 -0.0896
22306W        W39153   4.432  14.954   4.666  0.1922  0.1073  0.0853
22307W        W39154   0.745  12.243   2.942  0.1356 -0.1267 -0.0042
22308W        W39155   9.844   0.267  12.860  0.0329 -0.2159  0.3046
22309W        W39156   3.312   2.502   5.003  0.1482 -0.1100  0.1941
22310W        W39157  18.671   2.767   3.225  0.1629 -0.0009  0.0161
22311W        W39158  17.198   2.491   2.321  0.2263  0.0708 -0.2779
22312W        W39159  11.334   6.053   1.877  0.4470  0.0410 -0.2140
22313W        W39160   4.330   5.606  13.151  0.1440  0.3475 -0.1230
22314W        W39161  16.599   7.702   3.221 -0.2393 -0.0312  0.0600
22315W        W39162  10.236   1.307  15.056 -0.2755 -0.3331  0.2267
22316W        W39163  11.278  10.905   4.293 -0.3551 -0.2154  0.1747
22317W        W39164  10.144   8.045  10.895  0.1991  0.0189  0.2251
22318W        W39165  12.313   9.767  15.193  0.3863  0.1773 -0.2278
22319W        W39166   5.359   6.229   1.173  0.1881  0.0675 -0.0141
22320W        W39167   6.258   5.458  14.446  0.1654 -0.1862  0.0969
22321W        W39168  11.115  17.578  11.540  0.1833 -0.2084 -0.2519
22322W        W39169  13.647   8.653  12.508 -0.1025 -0.0516  0.0720
22323W        W39170   4.709   0.930  13.783 -0.1897 -0.1182  0.1732
22324W        W39171   4.270   7.490  13.170  0.1485 -0.0757 -0.0743
22325W        W39172  11.280   2.845  14.715  0.1390 -0.1301  0.1861
22326W        W39173   3.566   7.466  14.418 -0.3939 -0.2525  0.1149
22327W        W39174   2.723  18.030   4.531 -0.2741  0.2748  0.5144
22328W        W39175  13.766   2.142   3.457 -0.0293  0.3076  0.0627
22329W        W39176   6.636   2.758   5.128 -0.0370 -0.3220 -0.0728
22330W        W39177   4.347  10.035  10.505 -0.0509 -0.0212  0.2273
22331W        W39178   4.234   5.676   3.638 -0.1237  0.3517  0.1330
22332W        W39179   1.521   8.339   1.939  0.0429  0.1529 -0.0949
22333W        W39180   4.020   9.321  12.003  0.0440  0.1455  0.2612
22334W        W39181  14.094   7.837   2.062 -0.0749  0.2919 -0.3509
22335W        W39182   7.088  18.856  15.136 -0.1646 -0.0038  0.2257
22336W        W39183   8.152  15.283  11.411  0.0759 -0.0001  0.2475
22337W        W39184   5.514  11.529   2.479 -0.1072 -0.0705  0.3384
22338W        W39185   9.162   9.206  12.100  0.0466 -0.0286  0.0304
22339W        W39186  18.820   6.505   0.142  0.2580 -0.2128 -0.0238
22340W        W39187   0.911   7.972  14.985  0.1575  0.4279  0.0097
22341W        W39188   1.928   6.148   0.421 -0.2920 -0.1577 -0.0348
22342W        W39189  11.976   0.215  11.564 -0.0950  0.1165  0.0346
22343W        W39190  13.885  15.090   1.417 -0.0031 -0.1107 -0.0540
22344W        W39191  10.997  16.633   2.781  0.0040 -0.3994  0.0591
22345W        W39192   6.890  13.529   1.934  0.0655  0.0398  0.2720
22346W        W39193   9.715  12.127   0.463  0.0915 -0.1813  0.0681
22347W        W39194  13.377   8.195  13.609  0.1270  0.0129 -0.2013
22348W        W39195   7.418   0.430   0.092  0.1142  0.1684  0.2884
22349W        W39196   8.374  12.412   9.566  0.0785 -0.3833 -0.1903
22350W        W39197   8.663   6.797  14.315 -0.1848  0.3427  0.0654
22351W        W39198  15.447   0.828   0.324 -0.0116 -0.2028  0.0252
22352W        W39199   0.348   0.691   4.386 -0.0411 -0.0427  0.1225
22353W        W39200   1.222   3.339  13.154  0.0261  0.0149  0.1409
22354W        W39201   0.494  17.808  14.134 -0.1883 -0.0836 -0.1077
22355W        W39202  12.488  15.397  14.916 -0.0143 -0.0736  0.3113
22356W        W39203  10.004  18.768   2.628 -0.0854  0.2061  0.2127
22357W        W39204   0.946  10.445  15.501 -0.3715 -0.1130  0.3526
22358W        W39205  12.946   2.256  12.889  0.1107  0.2314 -0.0206
22359W        W39206  12.672  16.316   4.908  0.1392  0.1616 -0.3400
22360W        W39207   9.746   6.479   2.326  0.0647  0.4204  0.1217
22361W        W39208   8.999  15.122   2.262  0.1534 -0.3929  0.0840
22362W        W39209   7.508   3.353   1.608 -0.0162  0.2634  0.0424
22363W        W39210   5.562   5.020   4.053 -0.3630  0.0159 -0.1800
22364W        W39211  15.557  16.397  10.909  0.1803 -0.1333 -0.3018
22365W        W39212   2.413  17.752   1.999  0.0960  0.1503 -0.0959
22366W        W39213   3.966  16.360  13.889  0.0870 -0.2307 -0.3905
22367W        W39214   1.108   6.492  12.270 -0.1972  0.1193  0.2964
22368W        W39215   2.314  15.222   0.356 -0.2837  0.0315 -0.0138
22369W        W39216   9.751  10.734  15.586 -0.0440  0.0852  0.0522
22370W        W39217  18.554   6.200   2.033  0.2038 -0.1738 -0.0445
22371W        W39218   2.450   0.437  12.578 -0.0214 -0.0553 -0.1422
22372W        W39219   4.927  15.203   0.462 -0.0886 -0.3622  0.2513
22373W        W39220   4.331  13.192  12.378  0.1073 -0.2542  0.0279
22374W        W39221   4.046  10.380  14.889  0.2919 -0.0715 -0.3770
22375W        W39222   3.420  10.010  12.738 -0.2590  0.0375  0.1083
22376W        W39223  15.810  12.040  14.457  0.0656  0.0934 -0.1510
22377W        W39224   0.618   7.719  12.563  0.2199 -0.1901 -0.1079
22378W        W39225   4.346   0.962   5.042 -0.0305 -0.1038 -0.1977
22379W        W39226  13.995  14.478  11.250  0.0557 -0.0748 -0.0662
22380W        W39227  11.111  11.687  10.955 -0.2252 -0.2821 -0.0464
22381W        W39228   9.970   4.456   5.002  0.0467  0.1449 -0.1826
22382W        W39229   4.654   5.098  11.844 -0.0181  0.3173  0.0392
22383W        W39230  17.639  15.180   5.202  0.3451  0.1863 -0.2576
22384W        W39231  18.735   5.486   2.332 -0.1743 -0.2538  0.0098
22385W        W39232  12.693   7.841  15.341  0.1040 -0.1456  0.2007
22386W        W39233   6.525   3.660  12.633  0.2192  0.0953 -0.0665
22387W        W39234   9.233  17.148   3.116  0.1041  0.3337  0.1997
22388W        W39235  16.938  16.266  11.852  0.0812  0.0405 -0.0019
22389W        W39236   6.333  12.024  13.140 -0.1799  0.0935 -0.1075
22390W        W39237   3.945  14.533  12.475 -0.1337 -0.0117 -0.1272
22391W        W39238   1.799  13.614   4.825 -0.0645 -0.1688  0.0412
22392W        W39239  17.300  14.582   3.393  0.1402  0.0411  0.3615
22393W        W39240  15.226  16.441  14.158 -0.3320  0.3834 -0.2368
22394W        W39241   0.096   8.064   0.264 -0.0019  0.2241 -0.0699
22395W        W39242   0.352   3.199  15.523 -0.1850  0.1017 -0.0739
22396W        W39243   3.853   7.876   0.743 -0.1932 -0.1767  0.0259
22397W        W39244   1.353  14.293  12.302  0.1681  0.0511  0.2860
22398W        W39245  18.567  16.287  14.659 -0.2912 -0.1520  0.1019
22399W        W39246  10.476   6.718  15.372  0.2116  0.1063 -0.0993
22400W        W39247   7.590   4.092   0.870 -0.3217  0.2389 -0.1634
22401W        W39248  18.228   7.678   6.009 -0.0486  0.0000 -0.0969
22402W        W39249   4.357  13.010  11.862  0.3384 -0.0901 -0.1201
22403W        W39250   2.574  11.647  12.524  0.0313  0.2346 -0.0385
22404W        W39251  18.093   7.051  15.721 -0.0630 -0.1010 -0.0445
22405W        W39252   5.397  16.464  13.524 -0.0419  0.1609 -0.2343
22406W        W39253   5.912   4.980   0.098  0.1670  0.1280 -0.1554
22407W        W39254   4.381  11.408  12.218  0.0379 -0.0486  0.0447
22408W        W39255   4.393   8.882   4.753 -0.1621  0.0092 -0.4635
22409W        W39256   3.830   2.099   3.076 -0.1434 -0.0068  0.2984
22410W        W39257   5.233  18.818   1.531  0.1525 -0.1303  0.1098
22411W        W39258   7.963   8.609   9.909  0.0959  0.1291 -0.0692
22412W        W39259  12.816   7.114   0.299 -0.1805 -0.3739 -0.0708
22413W        W39260  13.704  13.518   1.081  0.3021 -0.0773 -0.2034
22414W        W39261   0.707   2.774  13.733  0.1024 -0.1345  0.1730
22415W        W39262  11.110  16.368   0.160 -0.1660  0.1834  0.0921
22416W        W39263  15.536   7.234  11.494  0.0411 -0.0916 -0.0961
22417W        W39264  12.683  11.040   3.787  0.5165  0.2770  0.1774
22418W        W39265  14.868  16.062   3.030 -0.1387  0.2650 -0.1696
22419W        W39266  12.782   5.881   1.446 -0.0275 -0.1179  0.0641
22420W        W39267  11.340  13.054   0.743  0.3259 -0.0841 -0.0517
22421W        W39268   2.639   0.201   5.083 -0.1055  0.0825 -0.0639
22422W        W39269   7.137   9.797   3.360 -0.1819  0.1440 -0.2161
22423W        W39270  14.033  16.229   4.121  0.5354 -0.2297  0.0870
22424W        W39271   9.150   8.224   2.591 -0.2614 -0.2266 -0.1383
22425W        W39272  10.020   7.550  11.046  0.1500  0.1138 -0.2900
22426W        W39273   8.545  15.452  13.063  0.4420 -0.1493  0.0294
22427W        W39274   2.963   8.847   0.112 -0.0072 -0.1032 -0.3314
22428W        W39275   2.390   8.814  13.710  0.0778 -0.0229 -0.0210
22429W        W39276   3.474   0.875   3.870 -0.0911 -0.1879 -0.3727
22430W        W39277  17.977  16.638   1.883 -0.2104 -0.0588 -0.0107
22431W        W39278   1.807   5.372   5.681 -0.1150  0.0358 -0.1087
22432W        W39279   0.222  15.310   2.942 -0.0009 -0.1131  0.1346
22433W        W39280   7.293  11.889   2.726  0.1766  0.0866 -0.0575
22434W        W39281   4.549  12.773  14.834  0.0408 -0.0822 -0.1549
22435W        W39282   0.740  13.541   1.160 -0.1307 -0.2703 -0.1235
22436W        W39283   7.749  15.200  14.417 -0.0421  0.0002  0.0537
22437W        W39284  12.182   4.907   0.759 -0.1258  0.0407  0.1747
22438W        W39285   0.529   1.797  13.327 -0.1529 -0.2903 -0.1412
22439W        W39286   5.517  17.926   4.846  0.0846 -0.0566  0.1494
22440W        W39287  17.072  18.018   3.733  0.1564  0.1694 -0.0786
22441W        W39288   3.367  14.396  13.345  0.2089  0.1393 -0.0039
22442W        W39289  17.307  16.294  14.258 -0.2541 -0.0996 -0.2942
22443W        W39290   7.214  17.833  11.027  0.0396 -0.1793 -0.2165
22444W        W39291  10.773   9.496  14.513 -0.0191 -0.2231  0.1889
22445W        W39292   5.528   5.259  12.241 -0.2722 -0.1265  0.1120
22446W        W39293   4.689   5.424  11.145 -0.0810  0.1599  0.0871
22447W        W39294  10.566   3.084  12.469  0.1216  0.1415 -0.0621
22448W        W39295   3.530   0.394  14.904 -0.0251  0.3137 -0.0433
22449W        W39296   1.423   1.561   5.128  0.0338  0.3287  0.1349
22450W        W39297  18.256   8.778  11.351  0.0521 -0.0878 -0.0283
22451W        W39298  16.268  11.722   1.720  0.1267 -0.0083 -0.0114
22452W        W39299  12.379   2.785   0.374  0.4024 -0.0423 -0.1262
22453W        W39300   9.229  17.001   0.752 -0.0663 -0.0126 -0.1066
22454W        W39301   9.814   0.216   3.100 -0.1883 -0.1007  0.0182
22455W        W39302  15.097   8.712   4.571 -0.0852 -0.0306 -0.0726
22456W        W39303  11.779  16.893   0.810  0.1699 -0.1096 -0.0808
22457W        W39304   6.709  18.051  15.646  0.0634  0.0306  0.3095
22458W        W39305   7.207  18.780   0.943 -0.2769 -0.0919  0.0246
22459W        W39306   4.894   4.334   4.573 -0.1149  0.2869  0.0024
22460W        W39307  15.705  12.931  15.009  0.0794 -0.4650  0.4879
22461W        W39308   2.280  12.930  11.333 -0.3428  0.0111  0.2497
22462W        W39309  11.193  12.722  15.778 -0.0509 -0.0369  0.3713
22463W        W39310   0.056   4.579   2.734  0.2010 -0.0188  0.1484
22464W        W39311   2.832   7.834  15.019 -0.1491 -0.1460 -0.2847
22465W        W39312   2.998  17.824  14.406  0.0423  0.0489 -0.0740
22466W        W39313  17.919   2.730  13.149 -0.2545 -0.0453  0.2247
22467W        W39314  17.008  17.472   6.030  0.0852  0.2878  0.1476
22468W        W39315  12.980   4.528  11.393  0.0182 -0.1424  0.4452
22469W        W39316  16.064   1.460   3.873  0.2533 -0.0751 -0.1656
22470W        W39317  18.616  10.267  13.929 -0.0627 -0.0355 -0.2368
22471W        W39318  18.252  12.262  15.322 -0.0272 -0.0167  0.2063
22472W        W39319   3.946   7.556   3.512 -0.0995 -0.3638 -0.0095
22473W        W39320   4.167   1.164  15.047  0.1566 -0.0395  0.3884
22474W        W39321   7.093   0.266  10.897  0.1832  0.2029  0.1785
22475W        W39322   2.195   9.154  11.469 -0.0050  0.1634  0.1479
22476W        W39323  14.766   4.720   5.730  0.3030  0.0016 -0.2529
22477W        W39324  14.939  15.132   4.675  0.0516 -0.1874  0.1625
22478W        W39325  16.315  16.891   4.510 -0.2868 -0.1154  0.2530
22479W        W39326   2.819  16.840   0.628  0.2185 -0.5720  0.0953
22480W        W39327   5.359  10.186  11.331 -0.1277 -0.1364  0.0853
22481W        W39328   2.727  15.171  14.772  0.2432  0.0221  0.3275
22482W        W39329   7.215  10.153  14.122 -0.1921 -0.0925  0.3034
22483W        W39330   9.934  13.287   0.897  0.3241 -0.1108 -0.1083
22484W        W39331   8.531   6.617   1.405 -0.4233 -0.1226  0.0755
22485W        W39332  16.827  15.624  14.185  0.0653 -0.0293  0.1880
22486W        W39333   6.897   2.154  11.249 -0.1765  0.2019 -0.1816
22487W        W39334  14.690   2.562  14.768 -0.0821 -0.2331  0.2153
22488W        W39335   8.682  10.533   5.354 -0.1446  0.1480  0.0362
22489W        W39336  11.231  10.799  14.366 -0.1269  0.0040  0.1388
22490W        W39337   2.023   3.062   1.568 -0.1508  0.1070 -0.4936
22491W        W39338  13.960  16.950   3.017 -0.0205 -0.1249  0.1010
22492W        W39339   0.731  13.739  13.064 -0.0231  0.1523 -0.1512
22493W        W39340  14.281  12.693   0.739 -0.1054 -0.4027  0.2340
22494W        W39341  11.210  15.289   0.174 -0.1574  0.3883  0.2684
22495W        W39342  16.452  12.122  14.976  0.1046  0.3186 -0.2016
22496W        W39343   1.037   4.141  12.687 -0.1427 -0.0865  0.0481
22497W        W39344  10.229  10.306   0.385  0.2073  0.2447 -0.0471
22498W        W39345  13.984   5.100   0.166  0.1690 -0.3818  0.1417
22499W        W39346   5.363  18.524   5.488 -0.0445  0.1320  0.0871
22500W        W39347  11.640  13.606  14.646  0.3506 -0.1278 -0.1368
22501W        W39348  14.332  16.889   2.251  0.1783 -0.0808  0.0687
22502W        W39349  18.006   4.867   0.630 -0.0499  0.1217  0.4165
22503W        W39350  16.892  17.786  14.981  0.2383  0.5335 -0.2161
22504W        W39351   5.446  10.104  12.207  0.2435 -0.1977 -0.3884
22505W        W39352   8.830   0.107   3.608 -0.3080 -0.1929 -0.1048
22506W        W39353   7.099   2.604   2.760 -0.0904 -0.0674  0.2190
22507W        W39354  12.999  15.065   4.735 -0.2232 -0.0574 -0.0656
22508W        W39355  11.450  13.148  13.918  0.2730 -0.1520 -0.2625
22509W        W39356   7.961  15.159  10.931  0.0086 -0.1177 -0.1360
22510W        W39357   6.117  11.556  14.996 -0.0572  0.3727 -0.1006
22511W        W39358  12.185  12.823   3.395  0.1613 -0.3159  0.2693
22512W        W39359  18.094  16.488   0.728 -0.0310  0.3699 -0.1735
22513W        W39360  15.235   7.557  13.277 -0.2367 -0.1300  0.3201
22514W        W39361  13.878  18.697   3.824  0.2280  0.0602  0.0034
22515W        W39362   9.288   6.695  13.056 -0.1328  0.3768 -0.1430
22516W        W39363   2.806   6.516   2.134 -0.0283  0.1748  0.1893
22517W        W39364  15.714  15.875  15.042 -0.0024  0.1669 -0.0605
22518W        W39365  17.323  15.235  12.277 -0.0821 -0.1910  0.1299
22519W        W39366  17.272  17.562   2.959  0.0906 -0.2675 -0.5754
22520W        W39367  14.355  18.526   3.564  0.1369 -0.2598  0.0248
22521W        W39368   1.373   6.987  12.831  0.1415  0.3126 -0.2335
22522W        W39369   7.414  12.320   1.252  0.0748 -0.0249  0.3296
22523W        W39370   9.461  14.208  13.338  0.1871 -0.2538 -0.1882
22524W        W39371   3.784   1.610   3.153  0.1011  0.1220 -0.0576
22525W        W39372   3.411   2.953  14.269 -0.0191 -0.2098 -0.3769
22526W        W39373  12.238   6.824   5.077  0.1426  0.0829  0.1261
22527W        W39374   7.548  18.122  15.518  0.0977  0.0699  0.0469
22528W        W39375   8.718   5.977  15.594  0.1694 -0.1760  0.0447
22529W        W39376   8.933   4.748   0.391  0.1532 -0.1280 -0.3300
22530W        W39377  15.066   9.703  11.095 -0.2515 -0.0229 -0.3080
22531W        W39378  10.665  12.421  10.459  0.1149  0.0573  0.1434
22532W        W39379  17.148  15.287   4.955  0.1075  0.0282 -0.3925
22533W        W39380   6.568  12.105  13.617  0.2657 -0.0221 -0.0545
22534W        W39381   1.336   6.119  15.603  0.0085  0.0221 -0.3186
22535W        W39382  12.972   5.353  12.436  0.1249  0.0967 -0.4163
22536W        W39383  12.656   2.033  13.236  0.1488 -0.0832  0.0214
22537W        W39384  16.357  10.036   1.836  0.1005 -0.2986 -0.1680
22538W        W39385   0.713   2.099   0.445 -0.2746  0.3605 -0.2596
22539W        W39386   4.159   3.045   2.455  0.3145 -0.1967  0.0378
22540W        W39387  16.488   7.405  15.207 -0.0814 -0.1323  0.0678
22541W        W39388  17.957   6.247   0.128  0.1670  0.3466  0.1954
22542W        W39389  18.558  10.384  13.429  0.1573  0.3061 -0.1342
22543W        W39390   2.991  12.429  10.764  0.4596 -0.2556 -0.0036
22544W        W39391   3.764  10.644   3.549  0.1906 -0.0652 -0.0193
22545W        W39392   1.520   4.137  12.453  0.2520  0.2724  0.1266
22546W        W39393  11.894   0.784  13.908  0.0369  0.1466 -0.1406
22547W        W39394  10.950  14.419  13.299  0.0239 -0.0756  0.0337
22548W        W39395  16.247  11.973   1.032 -0.1290 -0.0397  0.0334
22549W        W39396   4.861  16.991  10.520  0.1380 -0.0916 -0.0537
22550W        W39397  18.678   7.703   4.321  0.3945  0.1052 -0.1265
22551W        W39398   4.557  10.165   3.828  0.1704 -0.2246 -0.0243
22552W        W39399  12.852   4.427  14.546  0.1464 -0.1990 -0.0282
22553W        W39400  13.562   2.067  15.142  0.0483 -0.1285  0.0046
22554W        W39401   1.626  10.358  14.038 -0.1160  0.1688  0.0276
22555W        W39402  10.324   1.745   0.445 -0.1244 -0.4215  0.1916
22556W        W39403  14.084  15.381   4.673 -0.0777 -0.3933  0.1489
22557W        W39404  17.567  15.083   4.716 -0.3290 -0.0200  0.1792
22558W        W39405   8.496   5.367   3.460 -0.0921  0.2762  0.1161
22559W        W39406  10.099   5.041  15.478 -0.2741  0.0878  0.2705
22560W        W39407   8.581   9.204  13.140 -0.0430  0.2088 -0.1188
22561W        W39408  17.842  16.145  12.736 -0.1500 -0.4530 -0.0244
22562W        W39409   1.992   3.823  14.888  0.0742 -0.1061 -0.1647
22563W        W39410  16.685  17.177  13.210  0.0579 -0.1799  0.4077
22564W        W39411   2.875   5.530  14.811  0.2981  0.0300  0.1095
22565W        W39412   0.792  18.443  13.932  0.1631 -0.2844 -0.1029
22566W        W39413  16.701   6.161  13.131  0.0451  0.2655  0.0746
22567W        W39414  13.711  12.351  14.908 -0.0607  0.0074  0.0130
22568W        W39415  12.157   6.019   2.965 -0.0445  0.5262 -0.4390
22569W        W39416  18.751   1.499  11.336 -0.0352 -0.2768 -0.0210
22570W        W39417   3.223   5.876  13.699  0.6410  0.0236  0.1581
22571W        W39418  10.897   4.539   0.527 -0.1535 -0.1509 -0.0428
22572W        W39419  17.343   4.582  12.784  0.0862 -0.0656  0.4088
22573W        W39420  12.040  11.900   1.104  0.3179  0.3422 -0.1977
22574W        W39421  14.214  16.625  15.330 -0.0700  0.0253 -0.0792
22575W        W39422  12.222   4.981  15.631 -0.0519  0.0976  0.1763
22576W        W39423  13.972  16.971  13.280 -0.1534  0.3771  0.0101
22577W        W39424   4.944   0.115   4.743 -0.0112  0.3048  0.3746
22578W        W39425  10.765   3.400  12.088  0.1213  0.0517 -0.1345
22579W        W39426  13.375  13.279   2.737 -0.3523  0.0900 -0.1225
22580W        W39427   2.470  14.012   4.729 -0.1829 -0.1157 -0.0491
22581W        W39428   8.046  16.829  11.800 -0.4472  0.0045 -0.5210
22582W        W39429   4.449  15.419  12.583  0.1127  0.3954 -0.0917
22583W        W39430   0.311  14.806   6.001  0.0420 -0.0154 -0.0625
22584W        W39431   0.810  17.353  13.433  0.0715  0.3219  0.1851
22585W        W39432   4.807   1.490   2.035  0.0080  0.1015 -0.2830
22586W        W39433   1.924  12.871  10.887 -0.0798  0.0796 -0.0843
22587W        W39434   4.615  18.194  13.078  0.0707  0.3326 -0.0046
22588W        W39435  11.422  15.163  11.172 -0.4114  0.1430  0.1138
22589W        W39436   7.033  12.744   1.956 -0.1405 -0.1645  0.1115
22590W        W39437   3.518  17.059  12.876  0.4099  0.4079  0.0537
22591W        W39438   8.798   3.868  14.090 -0.0500 -0.0123  0.1790
22592W        W39439   0.533   0.869   1.364 -0.1898  0.0882 -0.0814
22593W        W39440   3.189  12.611   4.989 -0.1579 -0.1392  0.1326
22594W        W39441  12.138  11.054   2.536 -0.1008 -0.0488  0.3207
22595W        W39442   4.962  16.805   0.189  0.1062 -0.2110  0.0403
22596W        W39443  18.115   2.891   2.902  0.1475  0.0081 -0.0612
22597W        W39444  16.510   7.846   5.608 -0.1542 -0.2995  0.0579
22598W        W39445   9.005  18.477  15.592 -0.0425 -0.1407  0.0953
22599W        W39446   7.848   5.757  12.201  0.1100 -0.1849  0.3800
22600W        W39447   2.123   6.031   6.630  0.2077 -0.0493  0.2231
22601W        W39448   8.822  13.010   3.862  0.2797  0.2775 -0.1623
22602W        W39449   7.756  14.211  10.645 -0.0321  0.0286 -0.0737
22603W        W39450  17.904   9.020  13.600 -0.0539 -0.0402 -0.6441
22604W        W39451  17.777  13.085   3.386 -0.2913 -0.2444 -0.2395
22605W        W39452  16.324  18.780   4.730 -0.0603 -0.0582 -0.2037
22606W        W39453  10.525   0.591  13.607 -0.3394  0.2279  0.0100
22607W        W39454   8.065   0.766  12.494 -0.0598 -0.0638  0.0578
22608W        W39455   6.164   7.010   5.579  0.2209 -0.0481 -0.1973
22609W        W39456  11.390  16.480  14.260 -0.1804  0.1166 -0.2332
22610W        W39457  16.599   9.691   1.563 -0.1038  0.1865 -0.2214
22611W        W39458   5.887  10.643   3.612  0.0306  0.3088  0.5885
22612W        W39459  15.842  15.082  14.538 -0.0962 -0.2279 -0.4634
22613W        W39460   5.416   2.717   0.937  0.0050 -0.2016  0.1773
22614W        W39461   2.665   6.407  14.790 -0.1588  0.0621  0.2903
22615W        W39462   7.643   5.654   0.721 -0.0560 -0.1771  0.1695
22616W        W39463  14.312  15.893  13.408  0.0814  0.1248 -0.0795
22617W        W39464   4.761  12.451   4.069 -0.1162 -0.1259 -0.1605
22618W        W39465  18.335   2.157  12.476 -0.0299 -0.0276  0.3166
22619W        W39466   0.302  18.444  15.039 -0.2919 -0.1012 -0.3458
22620W        W39467   1.553   3.603  13.438  0.2291 -0.0965 -0.0339
22621W        W39468   9.542  14.701  13.267 -0.0442 -0.0035 -0.4070
22622W        W39469   3.418   8.220   1.355 -0.0061 -0.0687  0.1924
22623W        W39470   7.353   7.208   6.092  0.0509 -0.1335 -0.1164
22624W        W39471   7.179   0.924  11.382  0.0338 -0.1889 -0.0406
22625W        W39472   3.181  11.661  15.371 -0.0279  0.3408  0.4022
22626W        W39473   0.321   8.841   4.976 -0.1712  0.1765 -0.2546
22627W        W39474  17.470  11.631  12.575 -0.0353 -0.2443  0.1053
22628W        W39475  14.445  14.618  12.426  0.1002  0.0258  0.2621
22629W        W39476  16.300   5.098   5.254 -0.5251 -0.0367 -0.2749
22630W        W39477   9.708  16.628   1.827  0.0217  0.0584  0.0540
22631W        W39478  12.715  17.982  10.978  0.0305 -0.1771 -0.2107
22632W        W39479   8.096  16.567  14.426  0.3827  0.0083  0.1105
22633W        W39480   3.544  14.612   1.187  0.0071 -0.2839  0.2503
22634W        W39481   7.005  18.423  14.096  0.2493  0.1745 -0.1095
22635W        W39482   5.020   3.093   5.821 -0.1028  0.1138 -0.0145
22636W        W39483  10.330  15.370   4.205 -0.0471  0.1125 -0.0219
22637W        W39484   1.440   4.043  11.819  0.1677  0.0435  0.2916
22638W        W39485   4.855  15.373   1.812  0.1316  0.0872  0.1207
22639W        W39486   6.636   4.772  10.727  0.1673  0.1640  0.0400
22640W        W39487   0.376   6.612   3.962  0.0047 -0.0799  0.1377
22641W        W39488  15.843   1.369   5.013 -0.1005 -0.0477 -0.0121
22642W        W39489   8.785  10.069   1.550 -0.4933 -0.0940  0.1125
22643W        W39490  14.481   4.894   0.749 -0.1941 -0.0150  0.0165
22644W        W39491   3.102  11.515  12.433 -0.0231  0.0646  0.0903
22645W        W39492  15.789   1.229  12.776 -0.0095  0.1338  0.0238
22646W        W39493   9.860  10.089  10.807  0.1131 -0.3252 -0.0164
22647W        W39494  15.823  15.308   5.227  0.3269 -0.2033 -0.0926
22648W        W39495   8.268  12.157   4.938 -0.4141 -0.1143  0.0621
22649W        W39496  11.985   7.891   5.573  0.0496  0.1196 -0.0836
22650W        W39497   5.809   4.647   4.673  0.4064  0.1090 -0.3696
22651W        W39498  16.534  17.392  12.280 -0.1368  0.0180  0.1337
22652W        W39499  14.604  14.872  11.940  0.1271  0.0399 -0.0333
22653W        W39500   8.598   5.598   1.355  0.1069  0.0553 -0.0406
22654W        W39501   5.924  17.084   2.208 -0.0089 -0.0345 -0.0318
22655W        W39502   6.513  11.285  15.157 -0.1005 -0.1499  0.2897
22656W        W39503  18.120   6.842   3.748  0.0624 -0.1347 -0.0095
22657W        W39504  15.067   8.637   3.137  0.2384 -0.0735  0.2669
22658W        W39505  11.152  17.189  12.982 -0.0209  0.0064  0.1096
22659W        W39506   3.121  16.870  14.258  0.3003  0.0005 -0.3772
22660W        W39507  12.940  10.090   4.140  0.0243  0.2766 -0.2572
22661W        W39508  14.090  15.819  11.582 -0.0804  0.0068  0.0842
22662W        W39509   1.040  10.315   5.239  0.0654 -0.2527  0.0992
22663W        W39510   7.672  13.775   4.840 -0.0330  0.1155 -0.1010
22664W        W39511  15.960  14.744   2.798 -0.3529 -0.2249  0.0044
22665W        W39512  17.698  16.660   2.525 -0.0525  0.1392 -0.0497
22666W        W39513   2.173   1.695   2.951  0.1637 -0.0913 -0.1949
22667W        W39514   4.218  14.072  12.484 -0.0757 -0.0044 -0.1291
22668W        W39515  14.958   9.404   1.351  0.0025  0.2876  0.0835
22669W        W39516   8.333  17.147  15.401 -0.1470 -0.1945 -0.3681
22670W        W39517   0.518  12.729   3.453  0.1689  0.0378  0.0943
22671W        W39518   7.258   4.526   3.624  0.1323 -0.1930  0.3850
22672W        W39519  16.379   9.949   0.668 -0.1097  0.2605 -0.2245
22673W        W39520  16.484  13.025  12.186 -0.0461  0.2484  0.0361
22674W        W39521  10.487   7.708   2.333  0.2418  0.1495 -0.0265
22675W        W39522   9.685   7.073  11.730  0.0397 -0.0175 -0.0552
22676W        W39523  17.748   8.563   3.339 -0.2320  0.1492 -0.1081
22677W        W39524  17.258  17.821  12.747 -0.1826 -0.0321 -0.0313
22678W        W39525  10.430  14.585  15.071  0.2222 -0.0292 -0.0567
22679W        W39526   5.652  12.002   3.858 -0.0455 -0.0856 -0.1295
22680W        W39527  10.275   2.676  12.553  0.0082  0.3082 -0.3291
22681W        W39528  10.551   4.764   2.606  0.4028 -0.1163  0.0696
22682W        W39529   1.716   9.796  12.444 -0.0442  0.2145  0.0192
22683W        W39530   5.977  11.825   2.857  0.1530  0.1286 -0.0702
22684W        W39531  11.434   7.402   4.160  0.2962 -0.2370 -0.2898
22685W        W39532   6.333   3.647  13.581  0.4139 -0.0472 -0.0741
22686W        W39533   8.112   1.284  10.448  0.2720 -0.0330  0.1349
22687W        W39534   9.404   1.389  14.019  0.0106 -0.0214 -0.0878
22688W        W39535  16.641  14.090  13.228 -0.2720  0.5691 -0.1362
22689W        W39536   7.862   0.637  13.593  0.1027 -0.1274 -0.2007
22690W        W39537   7.955  18.141  14.228  0.2099  0.0194 -0.1449
22691W        W39538  16.910  14.613   2.778  0.1386 -0.0751 -0.2694
22692W        W39539  11.863   9.880   3.989  0.1929 -0.1062  0.0548
22693W        W39540   9.661   9.506  12.986 -0.1191 -0.1119 -0.2739
22694W        W39541  18.710  10.664   1.774 -0.0322 -0.2833  0.3440
22695W        W39542  15.224   8.493  15.018  0.1589 -0.1796 -0.3982
22696W        W39543  12.007   8.522  14.636  0.2454 -0.2649 -0.0074
22697W        W39544  17.125  12.819   1.053 -0.1033 -0.0092 -0.1696
22698W        W39545  13.152  17.745  12.241  0.0954 -0.1236 -0.2660
22699W        W39546   9.894   0.831   5.071 -0.1268 -0.0038 -0.0127
22700W        W39547  16.735  10.450  15.718 -0.2656  0.0126 -0.1110
22701W        W39548   3.732  17.933   2.285  0.4062 -0.1075 -0.3186
22702W        W39549   6.766   9.450   5.474 -0.1066 -0.0879 -0.0893
22703W        W39550   7.152  14.761  15.099  0.3856  0.0178  0.1656
22704W        W39551  18.814  11.741  11.566  0.0082 -0.2079 -0.0730
22705W        W39552   7.543   9.100   2.157 -0.1334  0.0168 -0.1091
22706W        W39553  13.468  12.046   5.032 -0.3352  0.0048  0.1021
22707W        W39554  18.040  16.058   1.109 -0.0473 -0.1245 -0.1396
22708W        W39555  10.566   4.490   3.051  0.1148  0.1881  0.2836
22709W        W39556  13.001   6.222  11.427  0.1080 -0.1496  0.1358
22710W        W39557  12.291   5.483  13.162  0.0475  0.1793 -0.2190
22711W        W39558  15.709  11.570  13.520 -0.0476 -0.1971  0.0384
22712W        W39559  15.945   9.168  12.043  0.1843 -0.0399  0.0641
22713W        W39560   1.255  13.991   1.269  0.3033 -0.1548 -0.0695
22714W        W39561   6.622  10.116  12.200  0.2168  0.5285  0.2778
22715W        W39562  16.327   6.115   6.050 -0.0419  0.2319 -0.1379
22716W        W39563   0.698   0.426   2.316  0.2379 -0.0489 -0.0134
22717W        W39564   4.402   5.571  14.991  0.1423 -0.4940 -0.2660
22718W        W39565   8.816   2.504  13.809  0.2593 -0.0840  0.4131
22719W        W39566  12.354   6.011  14.910 -0.0506 -0.1165 -0.0831
22720W        W39567   1.827  18.582  11.010  0.1076  0.0754  0.3670
22721W        W39568   1.907   5.003   3.417 -0.0290  0.2976 -0.0880
22722W        W39569  17.601  10.200   3.370 -0.2019 -0.2788 -0.1484
22723W        W39570   2.430   6.353  13.301  0.1191 -0.0162  0.2697
22724W        W39571  12.781   3.534  10.788 -0.2121  0.0333  0.3738
22725W        W39572  10.989  10.759  13.286  0.0156 -0.0109 -0.1672
22726W        W39573  16.937  14.347   1.943 -0.1972  0.5101  0.2318
22727W        W39574   3.003  12.002   4.598 -0.0884  0.1193 -0.2065
22728W        W39575  10.755  17.963  11.038  0.0207 -0.1784  0.3989
22729W        W39576   9.342   1.928   3.944 -0.1453  0.0491 -0.2696
22730W        W39577  14.922   7.478   0.493 -0.1490  0.3107 -0.0241
22731W        W39578   4.671   1.614   3.005 -0.1222 -0.0540  0.1083
22732W        W39579   6.031  17.344  13.880 -0.1265 -0.2108  0.0918
22733W        W39580   7.434   6.598   4.218  0.2248  0.0020 -0.1715
22734W        W39581   0.593   8.880   0.697 -0.0191 -0.1397  0.0473
22735W        W39582   2.933   0.234   2.649 -0.0378  0.2437 -0.0631
22736W        W39583   9.489  10.306  11.575 -0.0550  0.3860  0.1151
22737W        W39584  17.144   5.221   5.076  0.0841  0.1947  0.0914
22738W        W39585  16.767   8.236  14.221  0.1726  0.2664  0.3388
22739W        W39586  14.042   3.458   3.413 -0.1146  0.0098  0.0206
22740W        W39587  16.694   0.267  12.879 -0.2672  0.0307  0.0363
22741W        W39588  11.770  15.317  15.691  0.0259 -0.2395  0.2886
22742W        W39589  14.820   2.459   1.330  0.2616 -0.0518 -0.0649
22743W        W39590   7.540   4.634   4.463  0.1700 -0.0687  0.1396
22744W        W39591  16.995   2.782   3.923 -0.3620  0.0900  0.1981
22745W        W39592  14.442   6.776  15.292 -0.2383  0.0611  0.1047
22746W        W39593   6.501   6.874  11.664 -0.1822  0.3224  0.2057
22747W        W39594  18.621  10.715  15.295 -0.0862  0.0737 -0.1685
22748W        W39595   1.469  16.670   5.265 -0.2525  0.1469  0.1351
22749W        W39596   2.159   1.984   4.688  0.0989  0.1000  0.1280
22750W        W39597   6.868   2.074   3.919  0.1028  0.1806 -0.2188
22751W        W39598  17.667  17.066  12.775  0.2704  0.1561  0.2196
22752W        W39599   8.169   1.932   5.020 -0.0178 -0.2147  0.3587
22753W        W39600   6.574  14.758   5.124  0.0036  0.1300  0.1903
22754W        W39601   5.109  16.796  12.786 -0.0371 -0.1432  0.2661
22755W        W39602   9.206   3.604   5.754 -0.0308  0.1188  0.0724
22756W        W39603  15.931   5.018  14.588  0.1102 -0.0282  0.0099
22757W        W39604  16.638   8.469   4.145  0.1278 -0.2856  0.0575
22758W        W39605   6.828   8.473  10.750 -0.0573 -0.0391 -0.0799
22759W        W39606  15.514   7.792   3.460 -0.1787  0.0557 -0.0643
22760W        W39607   5.072  17.584   1.208  0.2245 -0.1937 -0.0596
22761W        W39608   4.240   1.604  14.766  0.1713  0.1183 -0.1186
22762W        W39609  13.162   9.269   3.901  0.1097 -0.0173 -0.0425
22763W        W39610  16.297   8.189   5.346  0.1165  0.1521 -0.1288
22764W        W39611  11.910  14.499   3.295 -0.0612  0.2402  0.1623
22765W        W39612   7.340   5.417  11.333 -0.0203  0.0437 -0.0444
22766W        W39613   2.920  18.798  11.868  0.0714 -0.2618  0.0700
22767W        W39614   1.202  17.458   0.719  0.2417  0.0839 -0.2849
22768W        W39615   0.617   5.188  14.212 -0.0545  0.1920 -0.3638
22769W        W39616   1.207  14.680  11.914 -0.1841 -0.0007 -0.3281
22770W        W39617  15.875  16.978   0.282  0.2511  0.0512  0.0225
22771W        W39618  14.968  16.323   4.529 -0.0901  0.0816 -0.0400
22772W        W39619   5.575  17.209   9.426  0.5712  0.0903  0.0470
22773W        W39620   0.233  15.950  14.648 -0.1277 -0.1298 -0.0355
22774W        W39621   3.158   6.101   5.729 -0.0740  0.1170 -0.2997
22775W        W39622   0.846   9.256   0.489  0.1528  0.0764  0.1719
22776W        W39623   0.921   3.241   5.442  0.1685 -0.0645  0.2095
22777W        W39624   3.642  10.721  13.110 -0.0200  0.2216  0.3581
22778W        W39625   2.127  13.333   2.638  0.0810  0.3467  0.1241
22779W        W39626   5.113   7.088  13.437 -0.0490 -0.1836  0.0779
22780W        W39627   8.457  10.199   4.765 -0.1170 -0.4435  0.0165
22781W        W39628  14.759   7.118  11.969 -0.2433  0.0496  0.1226
22782W        W39629  12.627  18.711  13.416 -0.1275 -0.0371  0.0277
22783W        W39630   8.988  14.295   9.509 -0.1314  0.0444  0.0269
22784W        W39631  16.737   0.575   3.698 -0.2728  0.3503  0.0191
22785W        W39632   5.331   5.659   5.080  0.4598  0.0033 -0.2449
22786W        W39633  10.039  16.466  10.579  0.1156  0.0445  0.0912
22787W        W39634   5.911   9.575   0.228 -0.3904 -0.0207  0.2706
22788W        W39635  10.213  10.950   2.700  0.3268  0.2535 -0.1490
22789W        W39636  11.384   7.784   4.467 -0.0082 -0.0717 -0.0598
22790W        W39637  10.862   6.705   4.590 -0.0291 -0.1911  0.1372
22791W        W39638  12.656   7.537   4.816 -0.0856 -0.0315 -0.1294
22792W        W39639  16.411  17.968   3.363  0.3535  0.1278  0.0886
22793W        W39640   5.052   0.917   4.574  0.1165  0.1928 -0.0948
22794W        W39641  10.222  17.617  11.328  0.2224 -0.2980  0.2394
22795W        W39642   4.020  12.775  12.438  0.0340  0.0782  0.1776
22796W        W39643  17.543   1.418   2.011 -0.4537 -0.4106 -0.3943
22797W        W39644   8.156   5.221   5.207 -0.0102 -0.3482 -0.0373
22798W        W39645  16.641   9.667  13.475 -0.2703  0.1139  0.0742
22799W        W39646  16.813   6.836   0.603 -0.3584 -0.0796 -0.4542
22800W        W39647  16.139   2.907   2.041  0.1142 -0.4344 -0.0025
22801W        W39648  15.186   3.401  14.463 -0.0957  0.1109 -0.2555
22802W        W39649   9.565   8.426  10.757 -0.2821 -0.0384  0.3830
22803W        W39650   4.530   3.460   1.613  0.2211  0.1458 -0.0754
22804W        W39651  10.971   1.681   4.611 -0.0880  0.0985 -0.1328
22805W        W39652  11.069  17.960  14.171  0.2114 -0.3603 -0.1807
22806W        W39653   9.548   4.294   4.067 -0.0314  0.0427  0.0247
22807W        W39654  11.223  12.846  11.961  0.1493 -0.2312 -0.3099
22808W        W39655  15.611   4.457   0.350  0.1441 -0.1231 -0.1842
22809W        W39656   0.192   7.328  13.422  0.0463  0.0610 -0.2129
22810W        W39657   7.293   7.806   0.909 -0.0508  0.1092  0.2223
22811W        W39658  18.387   0.932   1.177 -0.0647 -0.0018  0.2449
22812W        W39659  15.901  10.134   0.632 -0.1289  0.2076  0.0458
22813W        W39660   6.563   8.602   2.684  0.1255 -0.1109 -0.0494
22814W        W39661  14.839   1.924   3.333  0.2778  0.0334 -0.1807
22815W        W39662   4.052   2.428   3.663 -0.0542  0.2450  0.0536
22816W        W39663   4.084   2.471  13.205 -0.0173 -0.3427  0.0594
22817W        W39664  17.776  11.218   2.322  0.1043  0.0586 -0.0092
22818W        W39665   1.566  12.359   0.555 -0.1051 -0.1625 -0.0230
22819W        W39666   7.107   9.575  12.996 -0.0830 -0.0094 -0.0738
22820W        W39667   9.325   2.881   3.620  0.0609  0.1839 -0.1319
22821W        W39668   6.434  18.456   1.496  0.2663 -0.1945 -0.0864
22822W        W39669   4.019  18.161  11.775  0.1294  0.0643 -0.1597
22823W        W39670   8.423   6.813   2.096 -0.0220  0.1284  0.1251
22824W        W39671   7.924   8.137  15.503  0.0493 -0.0589 -0.0484
22825W        W39672  11.819   1.412   0.269  0.0370 -0.3466  0.1391
22826W        W39673   1.100   4.191   4.798 -0.0910  0.0637 -0.0894
22827W        W39674  16.493  17.541   4.002  0.0955  0.1361  0.3102
22828W        W39675   8.197   5.719  15.777 -0.0202  0.0916  0.1204
22829W        W39676  15.613   0.143   3.714 -0.1607  0.0855  0.2405
22830W        W39677  10.423   1.816   3.179 -0.0231 -0.1396  0.1477
22831W        W39678  14.842   8.314  14.057 -0.1436  0.3775  0.1257
22832W        W39679  18.503   3.740   0.226  0.0233  0.4830  0.0128
22833W        W39680   4.500   7.447  13.667 -0.0423  0.2033 -0.0364
22834W        W39681   8.701   6.622   0.600 -0.1661 -0.1174 -0.1500
22835W        W39682   3.491   9.431   3.318 -0.0635  0.0535  0.3410
22836W        W39683  17.360   1.252   5.175 -0.0905 -0.5857 -0.1880
22837W        W39684  17.292  14.908  12.740 -0.2224 -0.2174  0.2905
22838W        W39685  13.472   3.943  13.348  0.1167 -0.3085  0.1031
22839W        W39686   6.401   2.067   4.213 -0.0526  0.0184  0.2506
22840W        W39687   1.247  13.275  14.208  0.2253  0.0986  0.1692
22841W        W39688   4.314  10.833  15.294 -0.1043 -0.1613  0.3934
22842W        W39689  15.646   4.993  11.956 -0.1976  0.0669 -0.0398
22843W        W39690   8.247   7.795  14.010 -0.2143  0.2491  0.0532
22844W        W39691  12.773   5.694  14.475 -0.0112 -0.4285  0.0495
22845W        W39692   2.644  12.158  12.136  0.1988  0.1133 -0.1344
22846W        W39693   1.811  13.182  11.297 -0.0036  0.2355  0.1446
22847W        W39694   2.399   9.593   4.885 -0.0494  0.0454  0.0113
22848W        W39695   8.269   6.346   4.118  0.1935  0.1297 -0.0069
22849W        W39696   1.204  10.045  12.053 -0.5167 -0.3285 -0.0910
22850W        W39697   1.923  12.085  10.446 -0.2012  0.2996  0.1522
22851W        W39698   8.542   6.117   0.473 -0.4017  0.1929  0.0934
22852W        W39699   0.566   8.452   0.382  0.4190 -0.0407 -0.1396
22853W        W39700  14.984  16.871   3.135 -0.1697  0.1587 -0.1670
22854W        W39701   9.548  12.179   1.697  0.3268 -0.1387 -0.1302
22855W        W39702  14.462   7.122   5.153 -0.0897 -0.0600  0.0185
22856W        W39703   6.309   8.657  13.147 -0.0387 -0.1119  0.0967
22857W        W39704  10.516  13.353  13.988  0.2504  0.0692  0.1254
22858W        W39705  13.716   1.517   1.701  0.3068  0.1319  0.0774
22859W        W39706   5.848   0.629   2.822  0.0874 -0.1007  0.1196
22860W        W39707   6.398  17.604  10.009  0.5071 -0.0758  0.1173
22861W        W39708   0.864   6.876   0.461 -0.1291 -0.3254  0.1771
22862W        W39709   6.755   5.596  12.165 -0.1686 -0.1864  0.4854
22863W        W39710   0.602   1.288  13.753 -0.0026  0.1795 -0.0312
22864W        W39711  12.733   6.634   4.869  0.3564 -0.1612 -0.1992
22865W        W39712   2.771   8.699   1.230 -0.0850  0.1010 -0.2654
22866W        W39713   2.355  13.199   3.993  0.0822  0.1079  0.2114
22867W        W39714   7.325   0.786  15.475  0.2050  0.0714  0.0767
22868W        W39715   7.497  11.546  10.144  0.1864  0.1185 -0.5176
22869W        W39716  10.665   3.004  14.488  0.1254  0.0666  0.1259
22870W        W39717   7.452   4.015   0.378 -0.1178  0.1606 -0.1791
22871W        W39718  15.153   3.599  13.486 -0.3634  0.1412 -0.0260
22872W        W39719  14.109  11.828  12.762  0.2186  0.2957 -0.3363
22873W        W39720   4.897  15.883   0.499 -0.1457  0.0745  0.1365
22874W        W39721  13.186  15.925  11.704  0.0684 -0.2644  0.2087
22875W        W39722   7.274   1.654   4.892 -0.0136  0.0698  0.0239
22876W        W39723   4.837   9.583   0.674  0.0481  0.1381  0.1372
22877W        W39724   3.434  10.271   0.408 -0.4098  0.0270  0.0205
22878W        W39725  13.365  15.609   4.808 -0.3751 -0.0361 -0.1074
22879W        W39726   0.737  12.520   3.938  0.1006 -0.1724  0.0272
22880W        W39727   0.862   0.219  13.019 -0.0023  0.0934  0.1912
22881W        W39728   6.067   7.436  13.338  0.1145  0.3318  0.0412
22882W        W39729  12.689  15.561  13.077  0.2899  0.1675  0.0676
22883W        W39730   0.744  11.928   1.892  0.0309 -0.0292  0.1988
22884W        W39731  13.205   5.593  14.572 -0.3849 -0.2064  0.3517
22885W        W39732  13.476  11.955   0.527 -0.3970 -0.2252 -0.3960
22886W        W39733   4.958   3.861  11.604  0.2872  0.3753 -0.3769
22887W        W39734   3.116  10.960  12.688 -0.2116 -0.2334 -0.1504
22888W        W39735   4.474   7.219   0.863  0.0902 -0.1120 -0.0291
22889W        W39736   9.675   2.544  11.236 -0.3843 -0.1402 -0.2703
22890W        W39737   7.521  13.316  14.844 -0.2157 -0.0231  0.1199
22891W        W39738   9.048  15.143  11.413 -0.2559  0.3075  0.0884
22892W        W39739   7.773  10.965   0.734 -0.1161 -0.0507  0.1123
22893W        W39740   4.492  10.684   0.537  0.0001  0.0272 -0.3034
22894W        W39741  18.367   5.031  12.551  0.3950  0.2738 -0.0926
22895W        W39742  11.596   6.097   4.203 -0.0419 -0.1568 -0.1429
22896W        W39743   1.443   4.705   1.084  0.2311 -0.1673 -0.2215
22897W        W39744   4.352   8.271  13.974  0.0163 -0.3803 -0.1625
22898W        W39745   2.701  11.279  14.415 -0.2354 -0.1107  0.0770
22899W        W39746  17.138   1.176  15.778 -0.2435 -0.1637 -0.0625
22900W        W39747  15.293  10.235  12.580  0.0261  0.1266 -0.1349
22901W        W39748   9.576  15.643  14.856 -0.1195  0.0701  0.1556
22902W        W39749   5.689  15.481   4.967  0.0428  0.1619 -0.0041
22903W        W39750   3.001  12.571   3.043  0.0922 -0.0703 -0.2648
22904W        W39751  10.936   0.254  13.568 -0.0722  0.1246 -0.0657
22905W        W39752  14.382  16.485  14.464  0.2101  0.1220  0.2967
22906W        W39753   8.265   5.534  14.910 -0.0553 -0.0189 -0.1654
22907W        W39754   3.249  18.464  10.861 -0.1475 -0.0827  0.0946
22908W        W39755   5.834   2.107  13.507  0.2146 -0.1355  0.0124
22909W        W39756   7.681   0.725   4.506  0.2127  0.1477  0.2833
22910W        W39757  13.895   0.762   4.988  0.3550 -0.0965 -0.2240
22911W        W39758  16.011   8.298  11.497  0.1992  0.3840  0.2316
22912W        W39759   2.425  13.807   5.177  0.2335  0.1695 -0.4481
22913W        W39760  11.080  11.126  13.645  0.1267 -0.3889 -0.0230
22914W        W39761  12.737   2.315  15.703  0.1732 -0.0136 -0.0060
22915W        W39762   7.687  13.751  11.453  0.1287 -0.2317 -0.2464
22916W        W39763   4.661   2.731  13.954 -0.1821  0.3668 -0.0518
22917W        W39764  18.513  17.798  15.033  0.0109 -0.0670  0.1340
22918W        W39765   4.415   7.932   5.642  0.0048 -0.0308  0.2637
22919W        W39766   1.225   6.667  14.454  0.1831  0.0227 -0.0367
22920W        W39767   2.942   1.084  11.262 -0.2858  0.1207 -0.2185
22921W        W39768  12.902  15.639  11.974  0.1353  0.0045 -0.1374
22922W        W39769  14.463  13.402  14.109  0.0170  0.0964 -0.5122
22923W        W39770   9.434   6.569   2.844 -0.1944 -0.1781 -0.0943
22924W        W39771   8.504   4.971  10.688  0.2054  0.0512  0.0382
22925W        W39772  16.901  11.361  15.755  0.0743 -0.2517  0.3014
22926W        W39773   5.319   2.387   5.230 -0.1088 -0.3084 -0.2295
22927W        W39774   1.474   1.878  13.082 -0.2169 -0.1420 -0.2633
22928W        W39775  11.529  17.835  11.335  0.1667 -0.1394  0.2425
22929W        W39776  10.216  12.981  14.857  0.1394 -0.1042  0.1341
22930W        W39777  18.263  14.722   3.813 -0.2570 -0.2194 -0.0957
22931W        W39778  16.088   0.819   4.309  0.1404 -0.0123  0.1615
22932W        W39779   5.014   9.784  11.059  0.1091 -0.1438  0.1231
22933W        W39780   8.975   1.659   4.110 -0.2689 -0.0658  0.0422
22934W        W39781  14.477   9.661   2.392 -0.0430  0.1627  0.3394
22935W        W39782  15.348  15.454  11.735  0.3911  0.0510  0.0982
22936W        W39783  17.939  11.427  12.454 -0.4390 -0.2544 -0.0338
22937W        W39784  16.536  17.206  11.344 -0.0453 -0.0209  0.1986
22938W        W39785   7.956   1.818   0.050  0.2748 -0.0242  0.0987
22939W        W39786   1.200   9.759  12.481  0.0830 -0.3178  0.0147
22940W        W39787  15.184  14.489  12.147  0.0179  0.2225  0.2383
22941W        W39788   9.779  16.593  15.693  0.2195 -0.1958 -0.2027
22942W        W39789  14.001  14.028  12.920 -0.1747 -0.1601  0.0000
22943W        W39790  17.015   7.643   0.937 -0.3244 -0.0373  0.1030
22944W        W39791   1.143   3.435  14.870  0.3315 -0.3710 -0.2706
22945W        W39792   9.987  14.520   1.453  0.0076  0.1639 -0.2316
22946W        W39793   6.127  16.642   2.058 -0.0465 -0.1262  0.1332
22947W        W39794  10.764   9.259  12.512 -0.0869 -0.1307  0.3919
22948W        W39795   1.487   0.804   0.511 -0.2509  0.1878  0.3545
22949W        W39796   8.178  16.855   5.793 -0.2230  0.2910  0.1007
22950W        W39797  12.004   9.661  11.981 -0.1661  0.1650  0.3397
22951W        W39798   9.041  14.592   4.038  0.1472  0.0115  0.0318
22952W        W39799   6.255  14.554  15.290  0.4013  0.2863  0.2566
22953W        W39800  18.289  10.383   1.830 -0.4195  0.2257 -0.4691
22954W        W39801   4.513  15.200  10.142 -0.0060  0.1256 -0.0654
22955W        W39802   8.098   1.793   3.822 -0.0050  0.4182 -0.0827
22956W        W39803   3.575   3.961  14.261 -0.4121 -0.1528  0.0126
22957W        W39804  14.347  16.428   1.942 -0.0410 -0.0956 -0.1113
22958W        W39805  17.432   9.025   3.948 -0.0617  0.0287  0.0401
22959W        W39806  18.387   8.473   2.246 -0.2290 -0.2104  0.1809
22960W        W39807  13.882  17.003   2.518 -0.0770 -0.2524 -0.2948
22961W        W39808  15.172   3.600   5.461 -0.1882 -0.1891 -0.0664
22962W        W39809  12.682   8.450   4.999  0.1040  0.2292  0.0612
22963W        W39810   3.786  10.559  12.182  0.0774 -0.1919  0.4634
22964W        W39811  17.445   0.413   2.530 -0.2311  0.0624 -0.0926
22965W        W39812   4.729  14.380  15.744  0.0549  0.1901  0.3085
22966W        W39813   3.051   4.691  11.541 -0.3234 -0.0970 -0.2400
22967W        W39814  17.243  17.261   0.803 -0.2698  0.0685 -0.2421
22968W        W39815  15.454   2.884   1.837 -0.4224  0.0182 -0.3025
22969W        W39816   4.143   2.813  13.577 -0.1372  0.1635  0.1814
22970W        W39817   1.615  17.552   3.568  0.2253  0.1270 -0.1954
22971W        W39818   1.215   1.816   1.761 -0.0007 -0.2049  0.1919
22972W        W39819  15.167   7.068   0.501  0.2952  0.0822  0.2176
22973W        W39820   3.264  11.518  13.591  0.1539  0.1261 -0.0862
22974W        W39821   1.744  10.182   0.690 -0.0359 -0.1493 -0.3163
22975W        W39822   9.174   4.263  15.020  0.4247  0.2010  0.0165
22976W        W39823  17.783   1.042  15.563 -0.0199  0.0695  0.0198
22977W        W39824   3.495  13.170   1.494 -0.2015 -0.2512  0.3827
22978W        W39825  17.253  11.614  11.735  0.0189 -0.2166  0.0188
22979W        W39826  17.590   9.620  12.876  0.0228 -0.0872  0.1094
22980W        W39827  14.631  15.821   0.677 -0.0490 -0.0991 -0.2947
22981W        W39828   0.607  12.683  15.313 -0.1676 -0.1111  0.0441
22982W        W39829   3.951  12.780  11.552 -0.1515 -0.0139  0.1804
22983W        W39830  13.207   7.997  15.505  0.1331 -0.0114 -0.0256
22984W        W39831  12.116   6.308  13.694 -0.2858  0.0258  0.0100
22985W        W39832  11.558   9.838   0.632  0.0831  0.1742  0.0588
22986W        W39833   5.817   4.206   3.761  0.4233 -0.1520 -0.1208
22987W        W39834   1.890   8.309   4.474 -0.3389  0.1939 -0.2517
22988W        W39835   3.917  18.798  14.735 -0.1744  0.1207  0.2005
22989W        W39836   1.185   8.707   2.112 -0.0417  0.0110 -0.3182
22990W        W39837   1.959  13.195   3.742  0.0025 -0.0983 -0.0533
22991W        W39838  10.730  16.624  13.148  0.0778  0.0877  0.0064
22992W        W39839  12.760  12.191  13.601 -0.0718  0.1805  0.0758
22993W        W39840   8.777  17.292  11.707 -0.0083  0.2195  0.0493
22994W        W39841   4.232   6.615   5.279  0.0089 -0.0921 -0.0283
22995W        W39842   7.786   8.597   3.323  0.1215  0.0252 -0.1026
22996W        W39843  17.606  16.062   4.454  0.0805  0.0202 -0.1134
22997W        W39844   6.646   8.986   4.674  0.2575 -0.1052  0.4929
22998W        W39845   1.410  16.277  10.692  0.0854 -0.1654  0.0767
22999W        W39846  18.855  16.547   4.591 -0.0744 -0.1498 -0.3017
23000W        W39847  12.810   3.439  11.427 -0.0942  0.0168  0.3150
23001W        W39848   9.733   2.621  12.671  0.1657 -0.2018 -0.4721
23002W        W39849   8.401   7.006  12.661 -0.1092 -0.5766  0.0523
23003W        W39850   9.524   9.750  11.509  0.2227 -0.1416 -0.3258
23004W        W39851   9.666  12.704   1.626 -0.1000  0.3117  0.1469
23005W        W39852  12.770   9.325   4.756  0.0960  0.2132 -0.0756
23006W        W39853  10.315  17.017   1.671  0.3218  0.4227  0.0010
23007W        W39854   8.346  17.350   0.886 -0.1333  0.2182 -0.2527
23008W        W39855  10.222   1.660   4.271 -0.1358  0.0462  0.1262
23009W        W39856  12.084   3.625  15.757  0.2836  0.1119 -0.1150
23010W        W39857  10.338   1.341   1.875 -0.2548 -0.2941 -0.0369
23011W        W39858  10.526   8.674   1.415 -0.0802 -0.0145  0.2280
23012W        W39859   7.000   4.865  11.746 -0.1171  0.2260  0.2275
23013W        W39860   0.549   2.448   1.351 -0.2032  0.2100  0.3870
23014W        W39861  12.628   4.149  11.522 -0.0219 -0.2401 -0.4520
23015W        W39862  13.461   5.091  14.444  0.0231  0.0306 -0.0655
23016W        W39863   8.405   3.883   2.466  0.2959 -0.1964 -0.3937
23017W        W39864   2.829  11.540  14.997 -0.0637  0.0077  0.0565
23018W        W39865  17.064  11.468   3.462 -0.2237 -0.1153  0.0714
23019W        W39866  18.102   3.716   2.071  0.1501  0.5810 -0.1195
23020W        W39867   0.359   1.280  12.923  0.0785  0.2670 -0.1528
23021W        W39868  14.351  11.427  13.422  0.0522 -0.4016 -0.0914
23022W        W39869   0.189   5.050   2.695  0.0183  0.2623 -0.0003
23023W        W39870   9.933   8.544   3.918 -0.1176 -0.2606  0.1444
23024W        W39871   3.522  12.774   1.801  0.0008  0.1319 -0.3093
23025W        W39872   1.096  12.296   0.204  0.0672 -0.2271  0.0522
23026W        W39873  10.924   2.664   3.776 -0.0236 -0.0604 -0.0463
23027W        W39874   1.247  14.418   3.330  0.2157 -0.4593 -0.2363
23028W        W39875   4.107  14.730  14.974 -0.1795 -0.0161 -0.2952
23029W        W39876   2.146  11.603   1.233  0.0805  0.1316  0.0357
23030W        W39877  10.017  16.998   2.665 -0.1430 -0.0122 -0.6149
23031W        W39878   1.385  13.682  13.152 -0.1718  0.0897 -0.1449
23032W        W39879  14.707  11.520   2.297  0.3020  0.0965 -0.1580
23033W        W39880   4.157   0.549  13.100 -0.0319  0.0119 -0.0756
23034W        W39881   9.454  14.944   3.143 -0.2285  0.3593 -0.0538
23035W        W39882  11.281   0.120   2.445 -0.0635 -0.0018  0.0140
23036W        W39883   0.432   2.330  15.450  0.1987 -0.1014  0.0131
23037W        W39884   4.653  12.362  13.657  0.0354  0.1773  0.2708
23038W        W39885  14.894   8.552  13.016  0.4504 -0.1812 -0.0724
23039W        W39886  11.478   5.106   5.205 -0.2291 -0.1697 -0.2350
23040W        W39887  11.735  12.610   5.743  0.3993  0.1250  0.1537
23041W        W39888  13.692   7.702  13.728  0.1597  0.0825  0.0535
23042W        W39889   9.430   6.152   3.115 -0.0757  0.2199  0.0539
23043W        W39890   8.290   9.499   3.978  0.2675 -0.3165  0.0038
23044W        W39891   7.060  17.275  11.010 -0.2332  0.3238 -0.2466
23045W        W39892  10.558   7.077   2.486  0.0488 -0.1764  0.3395
23046W        W39893  12.845   1.520   2.105 -0.2635 -0.1734 -0.1208
23047W        W39894  12.874   3.624   0.582  0.1241 -0.0937 -0.2322
23048W        W39895   3.758   9.569   0.186 -0.2770  0.3857  0.1493
23049W        W39896  16.179  17.323  13.830  0.1392  0.2865 -0.4087
23050W        W39897  13.554   8.630  13.413 -0.0538 -0.0194  0.0955
23051W        W39898  11.089  14.720   1.320 -0.2123 -0.1657  0.2363
23052W        W39899   4.458   4.337  10.590  0.1307  0.0876 -0.0592
23053W        W39900  18.664   4.063  12.243  0.0205 -0.0471  0.0532
23054W        W39901   0.929   8.654   5.881  0.3365  0.3701  0.0757
23055W        W39902  18.677  10.478  12.905 -0.1594  0.0229  0.3367
23056W        W39903   5.008   4.611  12.780 -0.1958  0.1201  0.1316
23057W        W39904   7.469   7.742   4.322  0.0321  0.1889 -0.0518
23058W        W39905   2.194  17.169  14.199 -0.0754 -0.1706 -0.1689
23059W        W39906   8.135  14.040   9.449  0.1205  0.2918  0.1716
23060W        W39907  13.314   2.812   0.905  0.0377  0.2339 -0.2467
23061W        W39908   6.553  16.083   2.408  0.0047 -0.2403  0.0279
23062W        W39909  15.667  12.527   0.407  0.0647 -0.1437  0.2402
23063W        W39910  15.928   8.900  15.697 -0.0331  0.0916 -0.2366
23064W        W39911  12.332   5.800   5.585 -0.1709  0.1390 -0.0842
23065W        W39912   2.862   7.436   3.317  0.1212  0.0728 -0.0031
23066W        W39913   1.332  17.064  11.449  0.1409  0.1016 -0.1699
23067W        W39914   1.701  18.606  13.970 -0.0601 -0.0193  0.1324
23068W        W39915  13.428  18.503  13.768  0.4660  0.0835  0.1482
23069W        W39916   3.717  15.488  13.851  0.2582 -0.1149  0.1560
23070W        W39917  15.064   5.913   3.957 -0.3135  0.0452  0.3878
23071W        W39918   7.954   6.900   2.049  0.2002  0.0917  0.0913
23072W        W39919   6.958   8.642   4.216  0.0156 -0.1365 -0.0485
23073W        W39920   9.913   9.855   2.543 -0.1452 -0.2466  0.4986
23074W        W39921  17.907   7.381  11.524 -0.1152 -0.0259  0.3355
23075W        W39922   1.902   5.035   5.258  0.0169 -0.0187 -0.2480
23076W        W39923  10.860  14.316   1.530 -0.1502 -0.1142  0.1967
23077W        W39924   9.480   9.918   2.918  0.0052 -0.3143 -0.0117
23078W        W39925  10.162  16.378  13.581 -0.0527  0.0118  0.0839
23079W        W39926   5.389   2.004  13.867 -0.0072 -0.3316 -0.0106
23080W        W39927  18.465  14.872  15.659  0.0435  0.2905  0.2960
23081W        W39928  15.970   8.720   4.687 -0.2196  0.0218  0.1477
23082W        W39929   9.545   3.140   0.950 -0.1156  0.2876 -0.2273
23083W        W39930   1.362  16.095   4.556 -0.0910  0.0351 -0.3710
23084W        W39931  12.625   6.909  12.994  0.1508  0.2452  0.1307
23085W        W39932  16.636   8.987  11.536 -0.0271 -0.0437  0.1360
23086W        W39933   2.833  18.034   1.736 -0.0869 -0.3285 -0.2401
23087W        W39934   2.951   9.173   2.004  0.1906 -0.0066 -0.0440
23088W        W39935   1.613  13.575   2.326  0.1376  0.0882  0.0620
23089W        W39936  12.840  16.768   0.731 -0.0882 -0.0281  0.1315
23090W        W39937   1.342   5.021  15.187 -0.1679 -0.0030 -0.0170
23091W        W39938   6.516  12.597  13.903 -0.1845  0.3959 -0.1460
23092W        W39939   7.265  14.536  12.061 -0.0574 -0.1076 -0.1524
23093W        W39940  15.214   1.545   0.089 -0.1776 -0.1969  0.2760
23094W        W39941  17.168  12.408   3.429  0.1515  0.2665 -0.0475
23095W        W39942  12.996  10.523   4.392 -0.1980 -0.1106  0.2089
23096W        W39943   3.048  12.461  14.770  0.0667  0.1385 -0.1100
23097W        W39944  14.502  17.383   0.711 -0.2925 -0.1841  0.1757
23098W        W39945  13.468   0.650  15.466 -0.4384 -0.1032 -0.0426
23099W        W39946   5.415   1.747  12.664 -0.1214 -0.3444  0.1807
23100W        W39947   3.001   4.415   2.746 -0.0971  0.0451 -0.1731
23101W        W39948  12.376   5.532   3.128 -0.0313 -0.0177  0.3112
23102W        W39949  18.028  14.705  15.452 -0.1572  0.1485  0.0051
23103W        W39950  14.463  11.767   5.463  0.1315 -0.2542 -0.3347
23104W        W39951  16.534  13.571   2.107 -0.0703 -0.0386 -0.0792
23105W        W39952  12.033   7.033   3.791  0.0139  0.1120 -0.0250
23106W        W39953  14.908   7.601   1.715 -0.2065  0.0523 -0.3483
23107W        W39954   1.748  10.944   0.701 -0.2358  0.1484 -0.1330
23108W        W39955  13.413  10.495  14.534 -0.2999 -0.0487 -0.0979
23109W        W39956   0.367   9.499  12.054  0.3250 -0.0385 -0.1393
23110W        W39957   4.627  16.277  15.307 -0.1915 -0.1860 -0.0483
23111W        W39958   8.334   4.631   4.092  0.1751  0.1066  0.0177
23112W        W39959  17.166  10.369  14.046  0.1870  0.1096 -0.1462
23113W        W39960   6.326  13.592  12.990  0.4811  0.0616  0.0587
23114W        W39961  16.704   7.877  12.839  0.1694  0.2272  0.0010
23115W        W39962   5.068   2.907  11.483 -0.0839 -0.1006  0.0626
23116W        W39963   7.067   0.615   5.216 -0.3239 -0.2547  0.0964
23117W        W39964   7.751  10.839  14.489 -0.4269  0.0753  0.3707
23118W        W39965  11.967  13.820   1.766 -0.0782 -0.1606  0.0176
23119W        W39966   3.255  17.346  10.313  0.0865 -0.1095  0.0462
23120W        W39967   7.265  11.371   3.110  0.1416  0.2618  0.0841
23121W        W39968  12.159  10.869   0.083  0.2351 -0.1613  0.0021
23122W        W39969   4.963   0.323  11.490  0.0222 -0.4008  0.0439
23123W        W39970   9.682  18.339  11.800  0.0941  0.2200 -0.0230
23124W        W39971   7.788   3.930   3.210 -0.1275 -0.2870  0.1077
23125W        W39972  14.368   4.207  14.525 -0.3645 -0.0155 -0.4571
23126W        W39973   1.500   7.303   2.241  0.2269  0.0127 -0.3648
23127W        W39974   5.460  12.240  12.215  0.0706 -0.1802 -0.0573
23128W        W39975   3.950  18.144   0.620 -0.4434  0.0398  0.4048
23129W        W39976   1.298   3.869   1.478 -0.0267 -0.0900 -0.1236
23130W        W39977  14.844   5.414   1.552 -0.1079  0.2636 -0.0368
23131W        W39978   3.941   7.644  15.343 -0.0647 -0.2943 -0.1888
23132W        W39979   3.873  13.632  12.376 -0.3164 -0.1296  0.0871
23133W        W39980   8.848   5.197  10.945 -0.2398 -0.0650 -0.1520
23134W        W39981   2.345  12.270  15.095 -0.0296  0.1319 -0.0024
23135W        W39982   1.149  14.474  15.120 -0.0243  0.3679  0.0449
23136W        W39983  10.570   3.039   2.063 -0.1223  0.2423 -0.1262
23137W        W39984  14.918   7.354  14.996  0.1105  0.3908 -0.0125
23138W        W39985   7.614  17.283  10.955  0.1679  0.1608  0.1141
23139W        W39986   4.438  10.079  15.014 -0.1607 -0.2859  0.0066
23140W        W39987  17.967  18.521   6.450 -0.1243  0.1031  0.1818
23141W        W39988   3.401  18.712   1.137 -0.1292 -0.1255 -0.2120
23142W        W39989   1.162  16.183  11.693  0.3121  0.2547  0.0818
23143W        W39990   8.947  15.427   0.428 -0.2804 -0.1128  0.0604
23144W        W39991  16.745   7.613  14.319 -0.0226 -0.2960  0.2724
23145W        W39992   0.885   4.816  13.848 -0.2591 -0.2285 -0.4471
23146W        W39993  15.043   0.224   1.627 -0.0500 -0.2634  0.2392
23147W        W39994   9.680  11.129  13.349  0.0436 -0.0425  0.0530
23148W        W39995  12.287  17.071   0.687 -0.1794  0.2382  0.2705
23149W        W39996  13.636  11.315   1.699 -0.1764 -0.1286 -0.2946
23150W        W39997  15.143  13.425  11.285 -0.0068  0.3765 -0.1058
23151W        W39998  17.512   3.139  11.843 -0.0226 -0.3507 -0.2095
23152W        W39999  16.803  12.548  11.429 -0.0376  0.0251 -0.0066
23153W        W40000  14.686  14.743   0.830  0.2248 -0.5344 -0.0229
23154W        W40001  11.199  12.751  13.097  0.1675  0.1827  0.1172
23155W        W40002   5.484   7.133   0.964  0.0123  0.2945  0.0267
23156W        W40003   9.809  14.633  12.741 -0.1576 -0.1482 -0.2258
23157W        W40004  12.761   0.856   2.445  0.0010  0.0371 -0.2124
23158W        W40005   9.061  12.503  11.463 -0.0932 -0.2763 -0.0881
23159W        W40006  16.195  13.486  12.774  0.1002  0.0701 -0.2504
23160W        W40007   9.757   8.721  12.507 -0.0882 -0.0360 -0.2412
23161W        W40008  13.396  15.129  13.467 -0.1328  0.1999 -0.0166
23162W        W40009  14.178  18.579   4.692 -0.1290  0.1868  0.0253
23163W        W40010  10.534   6.553  13.737  0.0900 -0.0839 -0.3708
23164W        W40011  18.140   8.767  13.041  0.3538 -0.1218  0.0908
23165W        W40012   6.396   0.044   2.556  0.1369  0.1002 -0.3319
23166W        W40013  18.431   9.922  11.666  0.2973 -0.0613  0.0597
23167W        W40014  16.066  15.263   3.617  0.5557  0.0505 -0.3078
23168W        W40015   4.494   5.703   0.928  0.2589 -0.1672 -0.4561
23169W        W40016  10.575   8.984  11.602 -0.0237 -0.1443  0.1709
23170W        W40017   1.192   4.555   4.120  0.2423 -0.2307 -0.0109
23171W        W40018  12.075  18.575   3.475  0.1836 -0.2409 -0.1968
23172W        W40019   6.871  11.662   2.730  0.2266 -0.1726 -0.0376
23173W        W40020  16.727  18.227  14.993 -0.1355 -0.0846 -0.1481
23174W        W40021  10.571  18.630  15.688 -0.0941  0.0329  0.3454
23175W        W40022   3.691   0.719  13.953  0.4261 -0.0814  0.0666
23176W        W40023  11.287   9.740   2.015 -0.2662  0.0325  0.2386
23177W        W40024  15.484   0.733  11.553  0.2558 -0.2841 -0.0025
23178W        W40025  11.994  14.219   2.844  0.1913  0.1156  0.0482
23179W        W40026   3.588   8.237   5.928  0.1155 -0.2799 -0.0539
23180W        W40027  11.116   8.289   4.742  0.1360 -0.0722  0.2215
23181W        W40028  14.345   2.926  13.350  0.0535  0.1740 -0.0852
23182W        W40029  11.539   2.247  11.094 -0.2097 -0.1354  0.0459
23183W        W40030   8.787  17.660   1.020 -0.3166  0.1963 -0.1162
23184W        W40031  18.546   5.352  10.614  0.2855 -0.0298 -0.1235
23185W        W40032   2.810  11.185  15.441  0.1421 -0.1286  0.1898
23186W        W40033  16.751  15.784  12.000 -0.1541 -0.1838 -0.2295
23187W        W40034  12.750   6.215  13.962  0.0568 -0.0680  0.3023
23188W        W40035   9.218   6.585  15.127  0.2205  0.0978  0.0215
23189W        W40036   0.020   6.630   0.668  0.2342 -0.2291  0.0157
23190W        W40037  14.431   0.050   0.993  0.0019 -0.2385 -0.2686
23191W        W40038   8.016   4.066  12.241  0.1417 -0.1776 -0.0493
23192W        W40039  14.977   5.819  13.823 -0.0854 -0.0077  0.5503
23193W        W40040  13.183  14.290  15.381  0.3284  0.0026  0.2210
23194W        W40041   6.977   8.291   0.013 -0.1246 -0.0736  0.0293
23195W        W40042   9.525  14.994  12.457 -0.2112  0.1100 -0.0181
23196W        W40043   1.461  11.013  15.012 -0.4150  0.1260 -0.1802
23197W        W40044   7.219  17.736  14.859  0.0200  0.1494  0.1862
23198W        W40045   9.309  11.600   0.078  0.2328 -0.0309 -0.0586
23199W        W40046  10.379   8.954   0.348  0.0394  0.4925  0.1362
23200W        W40047  14.591  15.948   2.158  0.0691  0.1712 -0.0931
23201W        W40048  15.116   3.655  14.995 -0.0725  0.1221 -0.1623
23202W        W40049  10.540   5.053  12.127  0.1202  0.1569  0.1346
23203W        W40050   0.333  15.041   4.197  0.0143  0.0424 -0.1635
23204W        W40051  10.024   4.409  11.139  0.0082 -0.0397 -0.0954
23205W        W40052   3.717   0.917  15.727  0.3293 -0.1731  0.2422
23206W        W40053  13.519  17.788   3.710 -0.0319  0.4898 -0.0789
23207W        W40054  18.517  10.311   2.320  0.1757  0.0198  0.0804
23208W        W40055   4.692   5.621   3.436  0.2080 -0.0510 -0.2917
23209W        W40056   8.751   2.390   5.470  0.0542 -0.2400 -0.4060
23210W        W40057   8.726  12.085  11.234 -0.1129 -0.3229  0.0183
23211W        W40058   3.718  12.905  10.768 -0.1885 -0.1346 -0.2982
23212W        W40059   7.830  12.125   4.737  0.1746  0.0672  0.0005
23213W        W40060   3.537  18.567  14.942 -0.1123  0.0172  0.1150
23214W        W40061   2.164  10.123  13.391 -0.1714 -0.1810 -0.0608
23215W        W40062   4.555  16.042   0.107  0.1358  0.1852 -0.1765
23216W        W40063  14.598  12.739   0.336 -0.1011  0.3647  0.1228
23217W        W40064   5.730   8.303   1.545  0.1465  0.2106 -0.0145
23218W        W40065   3.794  14.864   4.718 -0.0319  0.0633  0.1864
23219W        W40066  17.744  17.512   4.547  0.1626  0.1220  0.0148
23220W        W40067  14.361   3.019   4.735  0.0988  0.2184  0.2017
23221W        W40068  14.667   9.288   0.857  0.1622 -0.0458  0.0759
23222W        W40069  10.351  16.268   3.486 -0.2638 -0.1394 -0.0707
23223W        W40070   5.991   9.577  14.761 -0.1719 -0.0507  0.2704
23224W        W40071  18.783   5.353  12.634  0.3373 -0.5016  0.1934
23225W        W40072   7.725  17.786  11.195 -0.1177  0.1048 -0.1413
23226W        W40073   5.443  18.413   1.773  0.2216  0.2480  0.2274
23227W        W40074   5.297  13.576  14.408 -0.2826 -0.1383 -0.0963
23228W        W40075   9.737   7.467  13.065 -0.1380  0.3873 -0.0374
23229W        W40076  12.768  11.958   5.080  0.1155 -0.3320 -0.0111
23230W        W40077   0.990   4.976   5.412 -0.0959  0.1672  0.1658
23231W        W40078  16.720   6.132   0.941  0.2239  0.1126 -0.1701
23232W        W40079   2.302   1.521   5.069  0.0817 -0.2696  0.0030
23233W        W40080  13.266  12.994  14.518 -0.0329 -0.1774 -0.0244
23234W        W40081  14.671   8.664   0.962 -0.2333  0.0481  0.0021
23235W        W40082   5.775  16.901   1.158 -0.2702  0.1104 -0.1912
23236W        W40083  15.688   2.183   5.585  0.3668  0.0756 -0.0458
23237W        W40084  15.132   4.235   1.224  0.0534  0.0755 -0.1174
23238W        W40085  16.587   4.220  11.674 -0.1538 -0.0150  0.0577
23239W        W40086  14.849  17.926   0.037  0.2584  0.4709 -0.0935
23240W        W40087   5.334   1.026  12.956  0.1312  0.2608 -0.1626
23241W        W40088   7.686  15.356   2.784  0.1836 -0.0443 -0.2576
23242W        W40089   2.670   6.665   0.239 -0.1964 -0.0345 -0.1922
23243W        W40090   7.176   1.410  13.883  0.0573  0.0589 -0.2514
23244W        W40091   8.658  12.209   1.417 -0.1848  0.0353 -0.0284
23245W        W40092   7.400  18.736   4.639  0.2731 -0.1930  0.0878
23246W        W40093   1.356   9.651   2.560  0.2019 -0.1159  0.1746
23247W        W40094   8.322  18.792   3.485  0.0324 -0.0694  0.0453
23248W        W40095   9.538   7.593  14.818 -0.1391  0.0021  0.2549
23249W        W40096  15.188   6.471   0.419  0.0474  0.2220  0.1347
23250W        W40097   5.154   5.425   2.784  0.0873 -0.0692 -0.4144
23251W        W40098   1.866   4.427  14.189  0.1240  0.3145 -0.0272
23252W        W40099   2.067  14.053   3.203 -0.0738  0.2590 -0.2557
23253W        W40100   0.994  16.492  14.386 -0.1020  0.0679 -0.0538
23254W        W40101   9.337  15.119  11.881  0.0117  0.1534 -0.0609
23255W        W40102  11.194   7.397   3.689  0.0284  0.2179  0.3671
23256W        W40103   3.776   6.362   3.769 -0.0661 -0.2779  0.2242
23257W        W40104  18.205   6.436  12.908 -0.2510  0.3732 -0.0311
23258W        W40105   2.667   8.218  13.860  0.0515  0.0673 -0.1873
23259W        W40106   2.818  16.429   0.352  0.3822 -0.0789 -0.0820
23260W        W40107  14.732   1.424   4.189  0.1241  0.1434 -0.1712
23261W        W40108   8.515  12.450  11.536 -0.0908 -0.2199 -0.1541
23262W        W40109  10.727  18.582   1.351 -0.1989  0.0455 -0.2178
23263W        W40110  17.438   4.961   3.446  0.5195 -0.0547  0.4728
23264W        W40111   1.320  13.655  12.378 -0.1501 -0.2019 -0.0468
23265W        W40112   1.876  17.667   1.421  0.0623 -0.0353 -0.1103
23266W        W40113   7.683   1.310  14.187  0.0601  0.2548  0.3622
23267W        W40114  11.485  11.501  15.067  0.0664 -0.0763 -0.0388
23268W        W40115   7.854  16.137  10.461  0.1904 -0.0310  0.1563
23269W        W40116   9.190   5.292  11.966 -0.0227  0.1485 -0.1315
23270W        W40117   2.080   0.250   2.248  0.2688 -0.0498 -0.1381
23271W        W40118   8.344  17.963   2.211 -0.1046 -0.1886  0.1019
23272W        W40119   3.583   6.374   0.482  0.0920  0.2221  0.1759
23273W        W40120   9.921   3.350  14.901 -0.1144 -0.0179 -0.0002
23274W        W40121  12.814   8.918  14.481  0.0280  0.0154 -0.1960
23275W        W40122  12.292  14.112   1.124  0.0825  0.3008  0.0490
23276W        W40123   1.896   5.163   0.457  0.1161  0.2532 -0.2944
23277W        W40124  15.624   9.225   3.632  0.0702  0.1309 -0.3633
23278W        W40125   6.482   0.009  12.330  0.1262 -0.0885 -0.0609
23279W        W40126   2.280  17.879  12.159 -0.0083  0.1433 -0.0007
23280W        W40127   3.671  11.920   3.383 -0.2696  0.0621 -0.1328
23281W        W40128   3.379   8.670   0.364 -0.3559  0.1961  0.1346
23282W        W40129  15.989  14.720  12.467 -0.0183 -0.1619  0.0737
23283W        W40130   9.099   1.845  14.351 -0.0389  0.3939 -0.1257
23284W        W40131   6.658  10.515   1.280  0.1668 -0.0131 -0.3506
23285W        W40132   3.532   4.505   1.824 -0.0491 -0.1600  0.0590
23286W        W40133   8.912  12.571  12.589  0.2367  0.1596  0.1297
23287W        W40134   3.122   1.215   3.912  0.2771 -0.0510  0.1151
23288W        W40135  15.184  11.551   0.739  0.1548  0.1107  0.0729
23289W        W40136   7.672   0.081   0.816  0.0768 -0.0122  0.0327
23290W        W40137   5.713  14.462   2.923 -0.1309  0.1888 -0.3834
23291W        W40138  17.131  16.052   4.135  0.2710 -0.0458  0.1714
23292W        W40139  18.376   7.412  11.822  0.0496 -0.0580 -0.0396
23293W        W40140   7.353  12.415   0.226 -0.1330  0.0168 -0.2451
23294W        W40141   4.009   0.856   3.932  0.0329 -0.3182 -0.0537
23295W        W40142   0.422   6.870  14.445  0.1756  0.5477  0.2797
23296W        W40143   0.068   6.388   2.688 -0.1682 -0.0579  0.3405
23297W        W40144   8.369  10.006   0.884  0.0205 -0.0997 -0.3176
23298W        W40145   3.730  15.177   2.470 -0.3374  0.3757  0.1641
23299W        W40146  16.761  14.317   0.847  0.1787  0.2823  0.2455
23300W        W40147   4.814   7.909  12.554  0.0459  0.0542 -0.0256
23301W        W40148   2.713   5.569   4.289  0.1659  0.0234  0.1155
23302W        W40149   6.736  11.624  11.020 -0.0278 -0.1117  0.2093
23303W        W40150  18.314  13.127  15.515  0.1602  0.1810  0.1932
23304W        W40151   8.912   6.940  13.304 -0.0621 -0.3165  0.1185
23305W        W40152  11.200  14.877  12.309 -0.0857 -0.0698 -0.2459
23306W        W40153   1.537   8.819   0.005  0.1184  0.1520  0.2192
23307W        W40154  13.382  17.431   4.761  0.0453  0.0322 -0.2360
23308W        W40155  18.682   5.444   4.611 -0.2355 -0.0877  0.0810
23309W        W40156  11.716   3.559   0.812  0.1421  0.0152 -0.1391
23310W        W40157  15.167   6.334  13.646  0.1066 -0.0737  0.0418
23311W        W40158   2.946   1.993  11.143  0.3277  0.0588 -0.2412
23312W        W40159  15.928   4.942   3.905 -0.0036  0.3208 -0.0205
23313W        W40160   8.749   8.976  11.281  0.6583  0.1693  0.1868
23314W        W40161  16.007  16.541   1.025  0.0316 -0.0087 -0.0598
23315W        W40162  12.423   2.653   3.888 -0.0348 -0.0859  0.3618
23316W        W40163  11.856  11.415   4.096  0.0528 -0.2541 -0.1644
23317W        W40164  10.446   6.250  13.109 -0.0537 -0.3995  0.0810
23318W        W40165   8.627  14.905  11.440  0.6120  0.2725 -0.0447
23319W        W40166   4.289   6.773   0.058  0.2593  0.4494  0.1448
23320W        W40167   2.276  13.663  12.394  0.2123  0.1047 -0.0384
23321W        W40168  14.266  10.099   1.401 -0.1492 -0.1558 -0.3236
23322W        W40169  14.126   7.678   3.350 -0.1236 -0.1386 -0.0685
23323W        W40170   9.340  12.044   3.158  0.1329  0.1789 -0.0961
23324W        W40171   1.321   8.043   3.501  0.0787 -0.2438  0.3339
23325W        W40172  10.034  16.262  14.181  0.2828 -0.1330  0.1717
23326W        W40173  18.287  12.255   4.342 -0.0969  0.2992 -0.1788
23327W        W40174  18.679  12.711  14.695 -0.3226 -0.0107  0.5110
23328W        W40175   7.184   7.037   3.819  0.4879 -0.2080 -0.2690
23329W        W40176  14.726   0.074  13.641  0.3491  0.4002  0.0482
23330W        W40177   5.183   1.140  15.366 -0.0257 -0.0894  0.1112
23331W        W40178   2.590  10.018  11.102 -0.0688  0.1473  0.0671
23332W        W40179   1.558   5.814   3.984 -0.1041 -0.1780  0.0777
23333W        W40180   7.661  16.447  12.226  0.1802 -0.0030  0.0131
23334W        W40181  13.671  16.071   2.889 -0.0799 -0.0315  0.0618
23335W        W40182  12.981  17.119   4.769  0.0382  0.1250 -0.2189
23336W        W40183   2.686   0.694   3.912 -0.1955  0.0875 -0.0931
23337W        W40184  13.855   3.769   1.703 -0.0551  0.0090  0.0673
23338W        W40185  10.203   3.957   0.809 -0.0084 -0.0248 -0.0037
23339W        W40186  18.375   2.676   0.617  0.0166 -0.0009 -0.0390
23340W        W40187   9.761   5.776  15.637 -0.1909  0.0960 -0.3434
23341W        W40188  11.007   8.728   1.421 -0.0895  0.3594  0.2922
23342W        W40189   2.200  10.591  12.325 -0.1567  0.0726  0.2852
23343W        W40190  18.556  14.922  14.859  0.0418  0.3654 -0.1434
23344W        W40191  13.533  18.039   0.733 -0.0584  0.0551  0.1828
23345W        W40192  15.552  18.193   0.937  0.0636  0.0653 -0.1540
23346W        W40193  14.557  15.002   5.095 -0.0179 -0.2528 -0.4083
23347W        W40194   6.510  18.240  11.238  0.2026  0.0741  0.3865
23348W        W40195   5.272  18.350   2.227  0.1947  0.0596 -0.3021
23349W        W40196  10.487   0.118   1.132  0.3074 -0.0352  0.1737
23350W        W40197  15.666   9.798   3.853  0.0238  0.0241 -0.0691
23351W        W40198  13.507  10.449  13.096  0.2030  0.0455  0.0113
23352W        W40199   5.487  18.446  14.800  0.5308 -0.2330  0.1075
23353W        W40200  10.951  13.128  12.889 -0.1432 -0.1464 -0.0889
23354W        W40201   3.795  17.306  12.544  0.0486 -0.0828  0.0972
23355W        W40202   9.934   4.532  10.664  0.0093 -0.4143 -0.0857
23356W        W40203   7.825  10.238   4.075  0.0803  0.4249 -0.0138
23357W        W40204   2.499  17.980  14.526  0.0634 -0.0671 -0.1606
23358W        W40205  17.050   0.566  15.215 -0.5275 -0.1698  0.0395
23359W        W40206  12.033  15.773  14.910  0.0113 -0.0894  0.0771
23360W        W40207   6.367   0.876   1.059  0.2631 -0.0471 -0.1132
23361W        W40208   9.272   8.061  11.416 -0.1405 -0.1365  0.1620
23362W        W40209   4.393  11.518  11.712  0.0050 -0.1351  0.0664
23363W        W40210   8.295  16.780   1.015  0.0925 -0.2683  0.1642
23364W        W40211   4.996   9.713  12.675  0.0260 -0.1697 -0.1388
23365W        W40212   7.085   9.822  14.567 -0.0643  0.1170  0.0518
23366W        W40213  16.329  16.246   3.304 -0.2946  0.1125 -0.1276
23367W        W40214  10.939  15.434   0.922  0.0692 -0.0107 -0.3973
23368W        W40215   2.797  18.696  13.044 -0.1370 -0.0313 -0.1889
23369W        W40216   0.757  11.325   0.186  0.1650  0.0533  0.2201
23370W        W40217  13.812  11.625  14.406  0.2420 -0.0353 -0.1837
23371W        W40218   7.428   8.525   0.155 -0.0526  0.1019 -0.1128
23372W        W40219   3.285  18.553  11.522 -0.3304 -0.0264 -0.0106
23373W        W40220  12.739   1.464  11.200 -0.2080  0.2055 -0.0456
23374W        W40221  13.672  17.298   3.254 -0.3103  0.1006  0.1442
23375W        W40222  11.437  12.414  13.428 -0.1568  0.1743 -0.1863
23376W        W40223   5.689  12.788  15.055  0.0061  0.2034  0.1911
23377W        W40224   7.916   2.845   3.617  0.0378  0.1428  0.0915
23378W        W40225   7.294  12.408  12.083 -0.0233 -0.4329 -0.0602
23379W        W40226  12.462  12.485  13.924  0.2249  0.0934 -0.0518
23380W        W40227  18.093  10.357   2.554  0.1533 -0.0611  0.0428
23381W        W40228   6.810   7.405   0.095  0.0117 -0.1358 -0.2172
23382W        W40229   1.830  13.967  12.454  0.1978  0.1176  0.2976
23383W        W40230   7.936  13.645   4.043  0.1666 -0.1153 -0.3232
23384W        W40231  12.477   6.288  11.713 -0.0530  0.0496 -0.2094
23385W        W40232   5.002  11.640   2.717  0.1927 -0.2912  0.0019
23386W        W40233   9.203   8.168  12.580 -0.0711  0.0386  0.1227
23387W        W40234   2.057  16.919  10.746 -0.0700  0.1319 -0.2707
23388W        W40235   2.643   8.191   5.977  0.4174  0.0202 -0.2794
23389W        W40236  10.704   1.629   3.602  0.1741 -0.1130 -0.0109
23390W        W40237  12.548   5.355  15.370 -0.0393 -0.0091  0.5366
23391W        W40238   8.399   1.976   1.726  0.0814  0.2116  0.0425
23392W        W40239   2.017  13.031  15.684 -0.1057 -0.1018  0.0711
23393W        W40240  15.767   5.641   2.598  0.1965  0.1834  0.1385
23394W        W40241   3.019   8.659  12.632  0.2023 -0.0194  0.1393
23395W        W40242  18.738   7.010  13.983 -0.0074  0.0944  0.3206
23396W        W40243   9.431   6.063   5.467  0.2809  0.1926  0.1163
23397W        W40244  16.115  10.350   2.152 -0.2341  0.0588  0.1557
23398W        W40245  16.965  15.772   2.237 -0.0784  0.0459 -0.1804
23399W        W40246   0.928   2.702   5.300 -0.1354  0.1512 -0.0232
23400W        W40247  12.000  16.828   1.574 -0.1274  0.1579 -0.0617
23401W        W40248  14.002  18.154  14.676 -0.2202 -0.1913 -0.0652
23402W        W40249  12.426   3.545   4.224  0.2350 -0.1202  0.0800
23403W        W40250   5.588   3.024  11.282  0.1273 -0.1947 -0.0087
23404W        W40251  14.428   3.966  13.170 -0.2526  0.0539 -0.0195
23405W        W40252   6.852  18.124  11.956  0.2606  0.1057  0.1320
23406W        W40253  16.343   4.684   1.807  0.0865 -0.0191  0.0001
23407W        W40254  15.927   1.761  12.703 -0.2198 -0.2048  0.0060
23408W        W40255   3.383  16.560  13.014 -0.1731  0.1550  0.2279
23409W        W40256   4.886  15.425   3.922  0.2303 -0.0620 -0.2021
23410W        W40257   7.866  15.489   5.364  0.3580  0.1558 -0.0806
23411W        W40258   8.697  11.077  14.610 -0.2361 -0.1230  0.1910
23412W        W40259  17.845  13.756  15.134  0.0591  0.0967  0.1066
23413W        W40260   6.075  17.753   3.345 -0.2802 -0.1371  0.2636
23414W        W40261   9.406  17.975   2.814  0.3046 -0.0944  0.2482
23415W        W40262  13.367  16.032   3.754  0.2104  0.3454  0.1144
23416W        W40263  11.417  10.090   1.640 -0.3682 -0.4091 -0.0968
23417W        W40264  16.659   0.663   0.746  0.1624  0.0505 -0.1337
23418W        W40265   6.675  13.552   3.212 -0.0746 -0.0009  0.0687
23419W        W40266   1.892   8.166  14.048  0.1008  0.0149 -0.1206
23420W        W40267  10.972  13.897  15.644 -0.0687  0.0106  0.0147
23421W        W40268   3.559   2.928   3.789 -0.0190 -0.0733  0.0915
23422W        W40269  10.487  16.826   5.241 -0.0236 -0.1895 -0.0836
23423W        W40270  14.388  17.973   2.218 -0.1320  0.0072 -0.0281
23424W        W40271   2.278   0.916   3.985 -0.1167  0.1022 -0.0048
23425W        W40272   5.582  16.433   2.237 -0.0239 -0.2460 -0.0816
23426W        W40273   3.739   6.086  14.480 -0.3391  0.1500  0.4411
23427W        W40274   2.203  15.846  14.227  0.1593  0.2244 -0.2241
23428W        W40275   9.074   9.784   0.639  0.1079  0.1252  0.1813
23429W        W40276   3.578  14.800   4.244 -0.1834 -0.1660  0.5428
23430W        W40277  14.153  11.499   2.698  0.1601  0.1842 -0.1286
23431W        W40278   6.362  11.107  11.589 -0.0256  0.0592  0.1747
23432W        W40279   1.048  16.062  14.131 -0.0303 -0.1587  0.1651
23433W        W40280  17.914   9.585   2.674 -0.0678 -0.0987  0.2463
23434W        W40281   3.161  11.891   1.146  0.0904 -0.1890 -0.0066
23435W        W40282   3.002   0.790   2.512 -0.2573  0.0833  0.0247
23436W        W40283  11.313   8.739   4.917  0.0189 -0.2803  0.0121
23437W        W40284   6.762  14.584  14.166  0.0018 -0.3638  0.1054
23438W        W40285   2.550  13.970   0.697 -0.0250  0.0437  0.1648
23439W        W40286  14.262   2.022  15.099  0.0161 -0.2414  0.0808
23440W        W40287   4.229  17.622   1.292  0.0722  0.0986  0.3407
23441W        W40288  13.222  17.977  15.022 -0.0098 -0.2673  0.1180
23442W        W40289  14.585  10.857   0.865  0.2942  0.1454  0.0612
23443W        W40290  13.181  13.245   3.545  0.1197 -0.2749  0.0283
23444W        W40291   4.077  16.244  12.349  0.1842  0.0615 -0.3090
23445W        W40292  17.880   5.738   4.045  0.1851  0.1986  0.1080
23446W        W40293   7.992  11.286  13.252  0.0471 -0.1386  0.0422
23447W        W40294   8.204   0.079   2.491  0.0899 -0.2074 -0.2920
23448W        W40295  11.882  18.015   0.799 -0.0154 -0.3200  0.1646
23449W        W40296  10.956   7.838   4.127 -0.0739 -0.1164 -0.1512
23450W        W40297   3.484   8.608  14.049  0.1443  0.1151 -0.0664
23451W        W40298  17.494  10.702   3.267 -0.1692 -0.0232 -0.1064
23452W        W40299   3.515  11.949  11.325 -0.1911 -0.2730  0.1730
23453W        W40300  15.881   4.144   2.561  0.1302  0.2682 -0.0511
23454W        W40301   1.825  10.030  15.082 -0.1990 -0.0784 -0.0005
23455W        W40302   0.737   4.870  13.269  0.0228  0.0063  0.3642
23456W        W40303  15.700   6.330   3.255 -0.4474 -0.1114  0.1411
23457W        W40304   0.453  18.596  11.728 -0.1122  0.1947 -0.2519
23458W        W40305  15.926  11.505  15.132 -0.1751  0.4213 -0.3771
23459W        W40306   6.777   5.598  15.674 -0.0277 -0.1051 -0.4481
23460W        W40307   8.547  13.120   1.306  0.0002  0.0999 -0.0907
23461W        W40308  13.208   1.616  13.430  0.1779 -0.0615  0.0351
23462W        W40309   0.186  10.504  11.824  0.0337 -0.1879 -0.0367
23463W        W40310  13.814  12.291  12.776  0.1008 -0.1290  0.2013
23464W        W40311  11.062  15.434   3.791  0.0713  0.1435  0.0714
23465W        W40312  15.831  18.123   2.523 -0.3036  0.2490  0.2481
23466W        W40313   1.702   6.155   5.995  0.0979 -0.0233  0.0243
23467W        W40314  18.434   6.964  14.567 -0.0710  0.0003 -0.0810
23468W        W40315   8.709   4.531  12.070  0.0848 -0.3174 -0.3916
23469W        W40316   4.346   1.324  13.520 -0.0455  0.1941 -0.3343
23470W        W40317  18.824   1.864   3.950  0.1498 -0.1017 -0.2646
23471W        W40318  13.508   7.547   1.595  0.0684 -0.0054  0.0426
23472W        W40319  13.516   2.885   4.555 -0.0897 -0.0256 -0.3594
23473W        W40320   4.945  17.208   2.146 -0.2802  0.0746 -0.2318
23474W        W40321   7.531   6.041  13.453 -0.1582  0.1070  0.0206
23475W        W40322   5.302  12.302   4.068  0.1281  0.2190  0.4987
23476W        W40323   5.398   0.282  11.847  0.1637 -0.0685  0.0051
23477W        W40324  11.943  16.931   0.318 -0.1546  0.0982 -0.2663
23478W        W40325  14.741   3.350   4.093 -0.3014  0.1451 -0.0969
23479W        W40326   8.995  13.888  13.281 -0.0995  0.1988  0.1353
23480W        W40327   3.552  10.632   4.517  0.0017 -0.0806 -0.0632
23481W        W40328  16.535  17.390  15.724  0.0642  0.0534  0.2152
23482W        W40329  11.268   9.976  11.535 -0.0456  0.1703  0.2397
23483W        W40330   9.656  18.209   0.993  0.0158  0.1389 -0.3063
23484W        W40331   9.021   6.256  12.855 -0.0771  0.0901 -0.2592
23485W        W40332   5.182   4.394   0.512  0.2097 -0.1292  0.3282
23486W        W40333  18.801  17.723   5.334  0.0118 -0.1410  0.0069
23487W        W40334   0.791  14.584   0.305  0.1137  0.0885  0.0461
23488W        W40335  12.788   6.249   4.580  0.2616  0.1612  0.0021
23489W        W40336  14.054   7.408  12.837  0.0359  0.0221  0.3777
23490W        W40337   0.573   1.368   2.215 -0.0162  0.1813  0.1892
23491W        W40338   8.103   3.638   4.516  0.0271  0.2546 -0.2399
23492W        W40339   2.093   1.216   5.398  0.2743 -0.2235 -0.2709
23493W        W40340  16.438  15.010   3.483 -0.1193 -0.1481 -0.0641
23494W        W40341   0.379   9.371  11.440 -0.2963 -0.1028 -0.3659
23495W        W40342  16.037  15.724  13.004  0.2454  0.0323 -0.0566
23496W        W40343  14.831   1.894   0.169 -0.3038  0.0440  0.2934
23497W        W40344   2.393   7.657  13.587 -0.0246 -0.0098 -0.0609
23498W        W40345  16.366   4.259   2.296  0.1693  0.0702 -0.1197
23499W        W40346   9.808   4.561  14.289 -0.1084 -0.2688  0.0238
23500W        W40347   2.339   3.028   3.917 -0.2776  0.4486  0.1165
23501W        W40348  11.722  17.257   5.506  0.2975 -0.2647 -0.0083
23502W        W40349   6.369   2.652   3.475 -0.1807 -0.0276 -0.1906
23503W        W40350   6.709   8.643  11.815 -0.0753 -0.1682 -0.0465
23504W        W40351  10.788   9.173   0.561  0.0654  0.1480 -0.1060
23505W        W40352  14.439   8.304   2.082  0.1830 -0.1218  0.2048
23506W        W40353   1.185  11.422  11.169  0.0967  0.3233 -0.1169
23507W        W40354   6.128  13.443  12.519 -0.0712 -0.2910 -0.1864
23508W        W40355   0.700   9.692  10.371 -0.3699  0.2544  0.1430
23509W        W40356   3.099  15.986   5.623 -0.1166 -0.0799 -0.2330
23510W        W40357  12.127  16.065   1.597 -0.2404 -0.0773 -0.0516
23511W        W40358  15.326  17.338  13.089  0.1750  0.1154  0.0965
23512W        W40359  14.260   6.683   1.481 -0.0111  0.2645  0.1316
23513W        W40360  17.620  14.564  12.729  0.0809  0.1604 -0.1975
23514W        W40361  18.130  13.347   5.765 -0.2490 -0.0027  0.1590
23515W        W40362  17.011   4.762   5.298  0.1717 -0.3949  0.0160
23516W        W40363   9.710  17.329   2.856  0.1450  0.1694  0.1971
23517W        W40364  18.222  10.834   1.408  0.1468  0.0778 -0.0633
23518W        W40365   0.770  15.327   3.460  0.0423  0.0151  0.0732
23519W        W40366  14.842  10.634   0.435  0.1723  0.1008 -0.3074
23520W        W40367   9.470  18.613  13.255  0.1015  0.0941  0.0437
23521W        W40368   9.881   9.869   1.189 -0.0665 -0.0222  0.3426
23522W        W40369   9.434  18.083   1.516 -0.0553  0.0088 -0.0466
23523W        W40370   2.459  12.906   2.569 -0.4836 -0.0206 -0.0174
23524W        W40371   4.425   6.097   5.457 -0.3105  0.0247  0.0032
23525W        W40372   9.533   6.766   4.225 -0.1935 -0.1505 -0.2159
23526W        W40373   6.922  10.490  13.574  0.1046  0.1085 -0.0297
23527W        W40374   3.921  15.879  14.124  0.0819 -0.1190  0.0185
23528W        W40375  10.951   9.835   2.924 -0.2545 -0.1642 -0.1872
23529W        W40376   9.551   4.087   0.933  0.1634  0.2167 -0.2194
23530W        W40377   8.877  12.695  11.908 -0.0004  0.0834  0.1188
23531W        W40378   3.379   2.445   3.561  0.2847  0.1952  0.0950
23532W        W40379  13.398   0.749   5.139  0.0406  0.0451 -0.0344
23533W        W40380   7.033  11.340  15.160 -0.3335 -0.1376 -0.0949
23534W        W40381  14.635   9.181   4.457  0.1388  0.3107  0.1066
23535W        W40382   6.404   1.675   1.527  0.1245  0.2086  0.1763
23536W        W40383   8.932   1.347   3.324  0.3633 -0.2367  0.0271
23537W        W40384   6.892   8.323  12.662  0.0870 -0.1453  0.0793
23538W        W40385   2.427  13.119   4.449  0.3097 -0.0815  0.2230
23539W        W40386   3.703   8.194  15.388 -0.2016 -0.0597 -0.0919
23540W        W40387   3.989   9.598   3.457  0.3243  0.1036  0.1437
23541W        W40388  11.714   4.276   1.895  0.0291  0.0284 -0.1021
23542W        W40389  11.923  13.782  13.764  0.0694  0.1842  0.3304
23543W        W40390   2.901   6.545   4.118 -0.2683 -0.2180  0.1577
23544W        W40391  16.286  13.672  15.490 -0.0155 -0.0825  0.2554
23545W        W40392   5.298  16.319   1.822 -0.1262  0.0489 -0.1195
23546W        W40393  14.089  12.049   0.586 -0.1490  0.0515  0.1090
23547W        W40394  10.615  17.314   3.048  0.4999 -0.1941 -0.0097
23548W        W40395  11.015  15.999  10.924  0.1624  0.0407 -0.1403
23549W        W40396  10.447   5.768  15.452 -0.0284 -0.0388  0.2984
23550W        W40397   5.399   1.877  13.263  0.3873 -0.0638 -0.2218
23551W        W40398  12.279  18.017   3.731 -0.1109  0.1465 -0.0695
23552W        W40399   0.551  16.307  14.302  0.5063 -0.2710  0.0804
23553W        W40400   7.586  17.922  11.700 -0.1850 -0.3287  0.4501
23554W        W40401   4.887   4.090  10.345  0.0581 -0.0431  0.1468
23555W        W40402  17.068  18.785   4.163 -0.1824  0.1558  0.1292
23556W        W40403  11.761  14.150   1.384  0.0285  0.1023 -0.1133
23557W        W40404  10.460  10.207   5.481 -0.0666  0.2090 -0.2362
23558W        W40405   6.140   5.094  14.083  0.1074 -0.2976 -0.0456
23559W        W40406   6.000   3.865   1.815  0.1567  0.1010  0.1599
23560W        W40407   9.727  18.073   3.466 -0.4658 -0.1916  0.0122
23561W        W40408   9.415  14.401  14.008  0.0147  0.0419 -0.0970
23562W        W40409   7.406   0.057   3.185  0.0266  0.1536  0.0501
23563W        W40410   0.939  14.440   1.406 -0.0404 -0.2172 -0.2554
23564W        W40411  17.343   6.011  15.392 -0.0109 -0.2197 -0.0419
23565W        W40412  14.473  14.424   1.879 -0.0117  0.1228  0.1813
23566W        W40413   8.670   0.596   4.582 -0.0165 -0.0567 -0.3471
23567W        W40414   0.428  10.591   2.998  0.1746  0.0919  0.0199
23568W        W40415   2.619  10.441  11.394 -0.2061 -0.3423  0.2415
23569W        W40416  14.574   3.287  13.628 -0.2605  0.2946 -0.1764
23570W        W40417   7.918  17.126   3.211  0.0116 -0.0301 -0.0356
23571W        W40418  11.741   1.492  13.072  0.0460 -0.1132  0.1220
23572W        W40419   1.341  13.819   4.778 -0.0582 -0.0953 -0.1303
23573W        W40420   6.345  14.014   2.302  0.1783 -0.0183 -0.0251
23574W        W40421  11.942  12.346  12.033  0.4074  0.0764  0.1635
23575W        W40422   4.488  11.173   6.042 -0.0532  0.3405 -0.2020
23576W        W40423  18.831   7.484   0.596  0.0923 -0.1304  0.1076
23577W        W40424   6.826  18.347   3.005 -0.0685 -0.1171  0.0096
23578W        W40425   7.816   1.207   1.331 -0.2836 -0.0167  0.1500
23579W        W40426   6.068   3.320   4.193 -0.0209  0.0272  0.0767
23580W        W40427  18.310   1.053  13.104  0.1514 -0.1098  0.0767
23581W        W40428   9.168  12.352  14.014  0.2563 -0.0268 -0.0417
23582W        W40429  10.154   9.028   1.180  0.1449 -0.3147 -0.2832
23583W        W40430  11.687   5.065  15.692  0.2524 -0.0193 -0.3434
23584W        W40431  14.087  14.483  12.005  0.2912  0.0282  0.1036
23585W        W40432   0.817   9.322   4.888 -0.0421 -0.0295 -0.0512
23586W        W40433   9.639  10.497  12.556  0.1950  0.0194 -0.3462
23587W        W40434  16.396  15.120   5.419 -0.0115  0.1917  0.0413
23588W        W40435   9.780  13.130  15.094 -0.0006 -0.0448 -0.0122
23589W        W40436   2.539  18.109  13.946 -0.0770  0.1929 -0.1179
23590W        W40437   1.191  10.473  11.749 -0.2192  0.1776  0.1667
23591W        W40438   5.512   8.893  13.039  0.2410 -0.2166 -0.0794
23592W        W40439  15.353   5.736  12.893 -0.1766  0.1255  0.0944
23593W        W40440  16.687   6.359  10.662 -0.5512  0.1296  0.2011
23594W        W40441   5.004  16.337   2.947  0.2811 -0.0955  0.0091
23595W        W40442   0.853  10.137   2.185 -0.3508  0.0676 -0.0981
23596W        W40443   8.237   8.701   1.689 -0.2140 -0.1098 -0.1733
23597W        W40444  14.828   9.922  14.727  0.1044  0.1036 -0.2201
23598W        W40445  17.201  13.106   3.940  0.0235  0.3503  0.1902
23599W        W40446   7.049   0.885   2.773 -0.0821 -0.1636 -0.0876
23600W        W40447  10.728  14.207  11.356 -0.3384 -0.4359  0.0277
23601W        W40448  16.639  16.602   3.386 -0.0061 -0.0501  0.2756
23602W        W40449   6.924  13.833   1.380 -0.0657 -0.0896 -0.0477
23603W        W40450   9.888   0.764  15.018  0.3106  0.0882 -0.4045
23604W        W40451   9.538   6.900   2.503 -0.1852 -0.1777 -0.1151
23605W        W40452  10.789   2.195   0.066  0.0685 -0.1669 -0.2249
23606W        W40453  10.456   2.099  13.291 -0.2677  0.0645 -0.0269
23607W        W40454   1.367  16.129  11.237  0.0843 -0.1440  0.1438
23608W        W40455   1.737   1.767   1.449 -0.0338 -0.1402 -0.1083
23609W        W40456   1.774   9.684   0.675 -0.0619 -0.2447  0.2085
23610W        W40457  11.098   2.286   3.070  0.2340 -0.2132  0.0985
23611W        W40458  15.982  12.056   3.501 -0.0717  0.0458  0.0727
23612W        W40459   0.720   6.188  12.606 -0.1508 -0.0922  0.0752
23613W        W40460  15.755  10.661   2.472 -0.1169  0.3364 -0.3546
23614W        W40461   8.910   9.369   5.546  0.0588 -0.1434  0.3287
23615W        W40462   4.413   7.899   2.520 -0.1832 -0.3584 -0.0093
23616W        W40463  14.761  12.051   4.915 -0.0098  0.1113  0.3424
23617W        W40464  15.035  14.909   5.273 -0.0517 -0.1168 -0.2589
23618W        W40465   8.354   9.618  10.460 -0.0691  0.2774 -0.0108
23619W        W40466   0.463  14.263  14.538  0.0459  0.2456  0.0825
23620W        W40467   7.240  11.263  10.525 -0.2732 -0.0766  0.1522
23621W        W40468  18.118  10.916   2.657 -0.0607  0.0916 -0.1007
23622W        W40469   5.950   5.803  13.478  0.0777 -0.1161  0.0107
23623W        W40470  17.113  18.385   2.426  0.1845  0.0966 -0.1725
23624W        W40471   2.879  10.078  12.878 -0.4287  0.3983  0.0620
23625W        W40472  13.661  12.513   5.151 -0.1703  0.0152  0.0394
23626W        W40473  11.627   9.808  14.109  0.2908 -0.2687 -0.3910
23627W        W40474  14.340   5.046   3.092  0.0000 -0.0969 -0.0298
23628W        W40475  14.654   7.288  12.746  0.2563 -0.1295 -0.1246
23629W        W40476  13.035   5.845  14.062  0.0237  0.1504  0.0824
23630W        W40477  10.249   0.344  12.524  0.0833  0.0931 -0.1589
23631W        W40478   3.450   5.386   3.124 -0.0071 -0.3016 -0.1331
23632W        W40479  17.914  14.811  11.782 -0.0508 -0.0373  0.0632
23633W        W40480   1.455  16.383  14.276  0.2791 -0.0264  0.1372
23634W        W40481  12.419   5.123   2.097  0.0038  0.0257  0.2621
23635W        W40482   1.509  10.853   0.243  0.2737  0.0651  0.3386
23636W        W40483   8.636   5.816   3.618  0.1645 -0.0644  0.2107
23637W        W40484  16.511   7.034  13.191  0.0302  0.1830 -0.0592
23638W        W40485   8.453  15.347   9.688 -0.2089  0.2669 -0.1925
23639W        W40486   7.129   3.188   0.659 -0.0696  0.0858  0.2097
23640W        W40487  16.959  11.115   0.514 -0.0469 -0.1131  0.0235
23641W        W40488   1.263  15.052   4.224 -0.0037  0.0053  0.0242
23642W        W40489   3.620   3.300   1.611 -0.0373 -0.0156 -0.1462
23643W        W40490  15.497  18.180   3.141 -0.2144 -0.0058  0.0006
23644W        W40491   1.295  15.146   3.279 -0.4161 -0.1687 -0.4889
23645W        W40492  12.762   8.087   9.870 -0.1675  0.2345  0.0738
23646W        W40493  10.378  10.965   3.165 -0.1828  0.0278  0.0187
23647W        W40494  11.024   3.898   2.576 -0.1705 -0.0742 -0.1498
23648W        W40495   9.117  17.215   0.279  0.0822  0.0115  0.0226
23649W        W40496   9.527   5.410  11.638 -0.1130  0.1568 -0.1202
23650W        W40497  15.216  13.596  11.870 -0.1112 -0.1919 -0.0556
23651W        W40498   1.258  13.496   3.233  0.0249  0.0281  0.1181
23652W        W40499  15.691   2.866   6.302  0.1807 -0.0303  0.2611
23653W        W40500  13.399   8.530  11.656 -0.0337 -0.2812 -0.2271
23654W        W40501  14.988   5.833  11.242  0.1239 -0.3246 -0.3635
23655W        W40502  13.513  17.629   1.541 -0.1254  0.2154  0.1783
23656W        W40503  13.982  12.210   4.707  0.0196  0.3025  0.1156
23657W        W40504   1.315  16.552  15.236  0.2168 -0.4146  0.1521
23658W        W40505   6.583  11.469  11.457 -0.0947 -0.1468  0.0532
23659W        W40506  16.091  17.946   1.649 -0.1854  0.3632 -0.2094
23660W        W40507   2.612   3.945   5.879 -0.2823 -0.0903 -0.2793
23661W        W40508   8.886   4.198  11.593 -0.1085  0.3440 -0.2010
23662W        W40509   7.932  15.902   1.961 -0.2728 -0.0603 -0.2008
23663W        W40510   1.125   5.737  12.554  0.1276  0.0850 -0.4580
23664W        W40511  14.371  10.020  14.624 -0.4583  0.1182 -0.0312
23665W        W40512  10.244   2.624   2.048  0.2922  0.3203 -0.2498
23666W        W40513   9.777  17.752   1.179  0.1842  0.0856  0.2443
23667W        W40514   8.089  13.911  15.581 -0.2113 -0.3026 -0.1887
23668W        W40515   9.535   7.745   0.533  0.4429  0.1505 -0.2625
23669W        W40516  17.427  15.141   3.843 -0.0281  0.1489 -0.1189
23670W        W40517  15.457  14.254   0.856  0.0262 -0.2230 -0.0569
23671W        W40518   2.395  10.483   0.988  0.0418  0.0446  0.0908
23672W        W40519  16.217  15.754   4.031  0.3654 -0.1633  0.0317
23673W        W40520  17.292   3.899  13.730  0.1443  0.3110 -0.0571
23674W        W40521   4.930  10.965   0.654 -0.0288 -0.0474 -0.1173
23675W        W40522  14.394   4.420   0.405 -0.1009 -0.0538  0.0271
23676W        W40523   0.094  11.899  12.093 -0.0071 -0.0002  0.6062
23677W        W40524  18.237  13.988  14.724  0.2065  0.0839 -0.1082
23678W        W40525   6.099   6.307  14.649  0.1133 -0.2276 -0.1098
23679W        W40526  10.510  11.470  14.669 -0.0701 -0.0665  0.0840
23680W        W40527   2.186   9.301   0.622  0.1848  0.0064 -0.0832
23681W        W40528   2.095   5.686  14.561  0.0245  0.4437  0.2019
23682W        W40529   0.525  15.941  12.392  0.0651  0.3157 -0.2124
23683W        W40530  12.461  10.309   3.175  0.1383 -0.0107 -0.2269
23684W        W40531  12.328   0.939   4.297 -0.0400 -0.0728  0.0137
23685W        W40532   6.223   4.997   4.844  0.0970 -0.1136 -0.4382
23686W        W40533   9.315  11.910  12.423  0.2127 -0.0557  0.1049
23687W        W40534   6.022  13.512  13.781  0.0494 -0.2055 -0.0169
23688W        W40535  10.213  13.002  12.193 -0.0924 -0.1621  0.0386
23689W        W40536  14.161  12.383  10.195 -0.0554  0.0176  0.2916
23690W        W40537   8.811   9.071   1.725 -0.0937 -0.3815  0.1429
23691W        W40538  10.486  17.034   2.236  0.0484  0.1251 -0.0711
23692W        W40539  12.832  10.504  14.658  0.1242  0.0200 -0.5162
23693W        W40540   1.454   3.618   0.281 -0.0381 -0.3125 -0.1065
23694W        W40541   3.167   5.476  15.195 -0.1447 -0.1819  0.1928
23695W        W40542  14.363   2.804  12.749  0.5558  0.0353  0.0097
23696W        W40543   3.137   3.189   6.157  0.1800  0.2692 -0.2504
23697W        W40544   7.475   7.380  13.645  0.1163  0.1379  0.0782
23698W        W40545  13.088   5.105  12.876  0.3909 -0.0017 -0.0368
23699W        W40546  16.107  15.439   1.845 -0.0605 -0.0738  0.1584
23700W        W40547  10.883   6.653   1.791  0.0561 -0.1365  0.0114
23701W        W40548  15.306  18.580  14.440  0.0904 -0.4559  0.3426
23702W        W40549  16.085   7.928   0.951 -0.0003  0.1871  0.2539
23703W        W40550   3.980  15.212   4.432 -0.2142  0.0204  0.0741
23704W        W40551  12.655  17.921  11.498  0.0596  0.2285  0.1933
23705W        W40552   2.133  10.562   2.347 -0.1874 -0.1935  0.3277
23706W        W40553  18.848   0.344   0.853 -0.0258  0.1282  0.1617
23707W        W40554  17.623  16.545  15.564 -0.2049 -0.0859  0.4241
23708W        W40555  10.819  13.460  10.767  0.1418 -0.2100  0.2454
23709W        W40556  13.671   0.578  12.505  0.4873 -0.1813  0.1507
23710W        W40557  12.030   4.894   4.346  0.1603  0.2296 -0.2090
23711W        W40558   8.882  17.760  13.357 -0.1345 -0.1353  0.3343
23712W        W40559  18.825   3.585  12.299  0.4013 -0.1598  0.3927
23713W        W40560  13.572  15.247  12.255 -0.1761 -0.1743 -0.5837
23714W        W40561   7.571  17.221  12.035  0.3198 -0.1503  0.1535
23715W        W40562   8.775   5.453   0.013 -0.0002  0.0876  0.1857
23716W        W40563   3.259   6.078   1.315  0.2334  0.1073  0.0609
23717W        W40564   6.745  14.939  10.501 -0.1180  0.1832  0.0322
23718W        W40565  11.949   3.415   4.402  0.0199 -0.1596  0.2798
23719W        W40566   6.112   7.070   3.509 -0.0294 -0.1650  0.2167
23720W        W40567   1.209   9.998  13.536  0.2165  0.1336 -0.0769
23721W        W40568  14.443  15.569  12.790 -0.1787  0.1696 -0.0214
23722W        W40569  13.586   6.957   5.999  0.3115 -0.0346  0.1148
23723W        W40570   2.222   7.903   0.774  0.0698 -0.0725 -0.2161
23724W        W40571   1.441   5.807   5.768  0.2614  0.0261  0.0471
23725W        W40572   8.466   9.074  13.869 -0.1166  0.1327  0.1400
23726W        W40573  13.614   2.715   4.087 -0.2411 -0.1793  0.0564
23727W        W40574  14.302  13.200   3.769  0.1344  0.1889  0.1938
23728W        W40575   6.352  12.681  11.328  0.0919 -0.1908  0.3111
23729W        W40576   1.703  11.555  15.726 -0.2184 -0.2817  0.0134
23730W        W40577  18.211   5.571   4.779 -0.0889  0.1747  0.0874
23731W        W40578  15.600   0.669   5.588 -0.1145  0.2779 -0.1791
23732W        W40579   5.685   8.777  11.234 -0.1382 -0.0301  0.0657
23733W        W40580  15.894  18.440  11.767  0.0419  0.0484  0.1822
23734W        W40581  14.217  12.335   0.014  0.0954 -0.0552  0.1653
23735W        W40582   4.934   2.003   2.846 -0.1741 -0.1098 -0.1036
23736W        W40583   3.302   6.678   2.513 -0.0553 -0.3706 -0.1859
23737W        W40584   3.757  12.614  13.622  0.2023  0.1900  0.2348
23738W        W40585   3.724  11.854   4.212 -0.0358 -0.1559  0.0527
23739W        W40586  13.934   9.863  14.275 -0.2024 -0.1321 -0.1046
23740W        W40587   6.063   1.503   1.132  0.2556  0.0024  0.3469
23741W        W40588   8.143   3.798  12.761  0.2337  0.3550 -0.3290
23742W        W40589  10.357   8.182  13.310 -0.2446  0.0504  0.1747
23743W        W40590   1.329   8.902   1.229 -0.1297  0.3467  0.1542
23744W        W40591  11.626   7.277  14.669  0.0772  0.0816  0.1080
23745W        W40592  18.467  17.327   3.464  0.0677  0.3129  0.1715
23746W        W40593   2.159  18.208  11.136  0.2824  0.3526 -0.2507
23747W        W40594   7.496  11.551  15.524  0.0510 -0.2212 -0.0869
23748W        W40595  12.745  16.887  11.175 -0.0594  0.0279  0.0655
23749W        W40596  16.918   9.628  12.132 -0.2415 -0.0318 -0.0866
23750W        W40597  12.795   8.639  14.897 -0.1536 -0.0886  0.2445
23751W        W40598   6.113  17.551  11.686  0.3836  0.1634  0.0254
23752W        W40599  12.618  12.901   4.748  0.0299  0.2701 -0.2191
23753W        W40600  12.499   1.168  13.557  0.2273  0.2339  0.0298
23754W        W40601  12.202  10.164  11.337  0.0513 -0.0928  0.1415
23755W        W40602  18.826   9.222  13.437  0.1568 -0.1031 -0.3441
23756W        W40603   7.056  18.716  10.576  0.1183 -0.2612  0.0034
23757W        W40604   4.924  13.435   3.019  0.0974 -0.1703 -0.0322
23758W        W40605   3.396  17.163   2.874 -0.0810  0.1506  0.4300
23759W        W40606   8.527   5.172  13.466  0.1139 -0.1066  0.0694
23760W        W40607  17.035   9.890   1.292 -0.2906  0.0565 -0.0460
23761W        W40608  13.065  15.237   1.393  0.1487 -0.1769  0.1531
23762W        W40609  14.970   0.549   0.310  0.3847  0.1079  0.0265
23763W        W40610   9.665  16.866   0.502  0.1718 -0.0398 -0.2074
23764W        W40611   7.697   2.881   5.054  0.1432 -0.2266  0.0377
23765W        W40612  13.795  16.889   3.528  0.2247  0.1951  0.0449
23766W        W40613   2.100  16.418  13.057 -0.0393 -0.2769 -0.1075
23767W        W40614   3.662  18.569   0.082  0.4598  0.1551  0.1605
23768W        W40615   0.874   5.457  13.931  0.3050 -0.0222  0.0917
23769W        W40616  18.321  11.608   5.154 -0.0291 -0.2287  0.0673
23770W        W40617   7.731   8.010   5.744 -0.0063  0.0794 -0.0376
23771W        W40618   7.004  10.239   3.551  0.0167  0.1215 -0.2309
23772W        W40619   8.745   0.728   1.327  0.1482  0.1363  0.0158
23773W        W40620  14.070  16.311   1.076  0.0784 -0.5522  0.0768
23774W        W40621  11.297  11.273  10.759  0.3181 -0.3148  0.0788
23775W        W40622  18.029   2.343  11.989 -0.1946 -0.0182 -0.3729
23776W        W40623   4.978  17.114  13.750 -0.2497 -0.1564  0.0269
23777W        W40624  16.082  10.164  11.579  0.4576 -0.0696  0.0211
23778W        W40625   8.909   6.880   5.981  0.1596 -0.3682  0.0007
23779W        W40626  15.402  15.666   5.178  0.0927  0.2971 -0.0664
23780W        W40627  13.922   7.269   1.835  0.0280  0.1799 -0.2019
23781W        W40628   8.427   1.503  13.828  0.0129 -0.2795 -0.0469
23782W        W40629  16.491  18.414   1.151 -0.0160 -0.2408 -0.2539
23783W        W40630  18.641  12.311  14.981  0.2287  0.0859 -0.3166
23784W        W40631   3.640   5.817   5.849  0.0295 -0.0119 -0.0662
23785W        W40632  17.210   6.030   1.219 -0.4512 -0.1581  0.3206
23786W        W40633   5.932   9.560   2.718 -0.1466  0.1860  0.2623
23787W        W40634  12.498   9.742   1.683  0.2009  0.2301 -0.2821
23788W        W40635   8.754  16.599  12.331 -0.0274  0.1098 -0.1186
23789W        W40636   3.042   6.326   5.289  0.0213 -0.2151 -0.0193
23790W        W40637   0.672   5.569   1.866  0.0322  0.0341 -0.0741
23791W        W40638  12.739  14.969  10.817 -0.3019 -0.1118 -0.0428
23792W        W40639  14.778   1.344   5.423 -0.2061 -0.2409  0.1774
23793W        W40640   6.840  12.742   1.460  0.1387 -0.1914 -0.0337
23794W        W40641   9.519  12.233   2.467  0.2013  0.1158 -0.0072
23795W        W40642  16.803   2.831   0.800  0.1764  0.0269  0.0176
23796W        W40643   0.336  12.651  12.736 -0.0904  0.0130 -0.2394
23797W        W40644   5.211   5.749   0.112 -0.2288 -0.2317 -0.2259
23798W        W40645   0.176  17.413   0.624  0.0195  0.0761 -0.1775
23799W        W40646  12.046  18.051  12.591  0.2872  0.0843 -0.0012
23800W        W40647   6.378  18.001   0.253  0.2623  0.2093  0.4331
23801W        W40648  14.682   1.042   2.222 -0.2385  0.4443  0.1518
23802W        W40649   1.188   5.000   2.820 -0.1105  0.1059  0.0500
23803W        W40650   8.710   7.641  13.888  0.0377 -0.0284 -0.3334
23804W        W40651  11.471  10.463  11.354 -0.2334  0.3095  0.0543
23805W        W40652  16.486   1.856   5.675  0.3416  0.0369  0.0844
23806W        W40653  14.110   7.701   1.581  0.0094 -0.1701 -0.1600
23807W        W40654  17.981  13.632   4.482  0.2057 -0.3501 -0.3249
23808W        W40655   7.810  13.502  12.970  0.2596  0.0216  0.2206
23809W        W40656  13.398  17.980   0.235  0.0565  0.2022  0.2138
23810W        W40657  17.217   5.372  14.946  0.1501 -0.0340 -0.0553
23811W        W40658  13.334   8.870   2.003 -0.0274 -0.0038 -0.0566
23812W        W40659   5.171   6.250   0.337 -0.3404 -0.3507 -0.0028
23813W        W40660   3.816  14.352   3.424  0.1635  0.0332  0.2108
23814W        W40661   1.682  16.560   4.347 -0.3371  0.0888 -0.0827
23815W        W40662  14.014  18.041  11.466 -0.0527  0.0446 -0.1581
23816W        W40663   5.877  14.429  11.181 -0.0675 -0.0778 -0.0018
23817W        W40664   6.913   9.238   5.059  0.3227  0.2795  0.0395
23818W        W40665  12.641   8.936  11.460  0.2825  0.1067 -0.0720
23819W        W40666   0.661  17.795   5.459  0.1197  0.0731  0.0606
23820W        W40667   5.037   8.185  11.151 -0.1789 -0.0351 -0.1298
23821W        W40668  14.158  15.763   0.245 -0.0776  0.0755 -0.2703
23822W        W40669   1.689  13.428  14.333  0.2506 -0.1997  0.0646
23823W        W40670  13.392  14.473   4.510  0.0668  0.1410  0.2761
23824W        W40671  17.161   5.921  14.156  0.3582 -0.0305 -0.1445
23825W        W40672   4.943   4.147   2.006 -0.0909  0.0955 -0.0769
23826W        W40673   7.834  17.752  10.736  0.0912 -0.1003 -0.1367
23827W        W40674   4.571  16.950  12.049  0.1674 -0.0581 -0.3373
23828W        W40675   1.747   9.539   4.773  0.2593  0.0870 -0.1448
23829W        W40676  14.046   5.688   0.364  0.3031  0.1421  0.3083
23830W        W40677   9.482   2.399   5.180 -0.2365 -0.1230  0.3224
23831W        W40678  11.356  16.310  12.745  0.1894  0.3613  0.0444
23832W        W40679  12.399   9.260   2.204 -0.1814 -0.0048 -0.2440
23833W        W40680   0.386  12.429   0.394 -0.2867 -0.0650  0.3112
23834W        W40681  13.434   2.678  14.732  0.0522  0.0252 -0.1688
23835W        W40682   3.946   1.010  10.569  0.0377 -0.0127  0.4139
23836W        W40683   6.549  15.256  13.715  0.1689  0.0707 -0.6255
23837W        W40684  16.399  11.753  11.735 -0.0348  0.3987 -0.2921
23838W        W40685   2.342   6.327   3.341  0.0300  0.1104  0.0716
23839W        W40686   7.396  17.236   3.488 -0.0685  0.0614  0.2328
23840W        W40687  16.283   7.166   3.598  0.0468  0.2389 -0.0222
23841W        W40688   4.753   1.768  11.163 -0.0831  0.0056 -0.1242
23842W        W40689  13.436  12.091  11.999 -0.0935  0.1836  0.2506
23843W        W40690   7.471  10.791  11.459  0.0956  0.0419  0.1126
23844W        W40691   3.837   9.225   1.482  0.0280  0.1384 -0.2821
23845W        W40692   1.145  10.603  15.057 -0.5982  0.4635  0.0416
23846W        W40693   3.805  17.885   0.178 -0.0727 -0.2269 -0.1282
23847W        W40694  16.202  15.386  14.696 -0.1295  0.2898  0.0183
23848W        W40695  13.586   3.695  14.555 -0.3048 -0.4188 -0.0132
23849W        W40696  15.204   6.494  12.640  0.2721  0.1276  0.1712
23850W        W40697   4.141  16.056   2.494 -0.1536  0.1603  0.1305
23851W        W40698   8.786  12.107  13.697 -0.0290  0.4587 -0.1591
23852W        W40699  12.448  17.079  13.039 -0.0393  0.1707 -0.2449
23853W        W40700   1.921   0.091   0.707  0.0368  0.3247 -0.1681
23854W        W40701  18.018   4.689   2.456 -0.0333  0.0994 -0.1828
23855W        W40702  11.537  15.086   3.800  0.0011  0.1965 -0.0083
23856W        W40703   1.824  17.201  13.315 -0.0179  0.1121  0.0190
23857W        W40704  14.181   6.075   4.081  0.1621  0.4478 -0.1073
23858W        W40705   3.585  14.751   3.200  0.0847  0.1379 -0.1088
23859W        W40706  17.760   5.824   2.510 -0.0453  0.2947  0.0661
23860W        W40707  15.041   5.363   3.916  0.3211 -0.1368 -0.3152
23861W        W40708  13.824   1.886   3.914  0.2565 -0.1555 -0.0088
23862W        W40709   8.203   2.235  12.126 -0.0891  0.2296 -0.0219
23863W        W40710   0.727  10.931  13.126  0.2254 -0.1597  0.1747
23864W        W40711   9.109  17.776   1.876 -0.2755 -0.2043  0.4046
23865W        W40712   1.876  16.584  11.909 -0.1208  0.1751 -0.0810
23866W        W40713  11.396  11.494  12.510 -0.0057  0.0120 -0.2733
23867W        W40714  10.557  12.001  10.860  0.5536 -0.0355  0.1030
23868W        W40715   7.213  16.881  13.861 -0.3305  0.1721 -0.0859
23869W        W40716   5.805   7.198   2.724  0.0219  0.0873  0.0541
23870W        W40717  12.457  13.697   0.980  0.1675  0.0705 -0.1299
23871W        W40718   5.800   1.048   5.007 -0.0416 -0.3167 -0.0424
23872W        W40719  11.219  14.196   3.144 -0.2413 -0.1144  0.0051
23873W        W40720  12.250   5.033  13.523 -0.3428 -0.0069  0.1991
23874W        W40721   7.133  12.918  14.141 -0.1082  0.4241 -0.3179
23875W        W40722  11.905   5.526  10.869 -0.1626  0.2472  0.1097
23876W        W40723   7.517  15.200   3.651  0.2679 -0.1299 -0.2741
23877W        W40724  12.222   7.668   4.627  0.0877 -0.1189  0.1034
23878W        W40725  15.130   8.916  12.732  0.0638 -0.0163  0.1547
23879W        W40726  11.170   3.003  11.876  0.0725  0.1810 -0.1736
23880W        W40727   8.914   2.746  13.263 -0.0320  0.0264  0.0422
23881W        W40728   5.337   1.184  11.041  0.1376  0.2509  0.2263
23882W        W40729   6.169  16.022  11.274 -0.1011 -0.1845  0.0594
23883W        W40730  13.877  12.687  13.679  0.1503 -0.0113 -0.3031
23884W        W40731  10.077  12.868   1.223 -0.2843 -0.1345 -0.0917
23885W        W40732  13.460   4.908  11.577 -0.1159  0.2392 -0.0520
23886W        W40733  14.981   4.545  11.409  0.3431  0.0532 -0.0412
23887W        W40734   0.900   8.354   5.121 -0.0799 -0.3048  0.2436
23888W        W40735   0.870  13.097  15.244  0.0142  0.2830 -0.2822
23889W        W40736   5.043  18.347   1.252 -0.3033 -0.0781  0.0096
23890W        W40737   8.261   4.218   0.311  0.1340 -0.0855  0.0323
23891W        W40738  18.184   8.356   3.566  0.1232 -0.0234 -0.1023
23892W        W40739   7.582   3.632  12.938  0.1878 -0.0573 -0.0972
23893W        W40740   1.662   7.309  11.013  0.1385 -0.1702 -0.1140
23894W        W40741  13.492  13.008  13.932 -0.0165 -0.0373 -0.2799
23895W        W40742  11.142   4.151  11.545 -0.1350  0.1217  0.0417
23896W        W40743  11.966   9.367  15.010 -0.1286 -0.0030 -0.4705
23897W        W40744  17.993  17.035  15.502  0.2516  0.0136  0.0467
23898W        W40745   6.232   5.953  14.355  0.2507  0.0211 -0.0078
23899W        W40746  14.538  16.877  11.587 -0.3847 -0.1379 -0.2353
23900W        W40747   3.547  13.326   0.274  0.1670 -0.1559 -0.2675
23901W        W40748  17.813   9.013   5.230  0.1961 -0.1542 -0.0266
23902W        W40749  13.037   4.960  15.263 -0.2120  0.0795 -0.0922
23903W        W40750   9.009   7.402   3.848 -0.1365 -0.1454  0.2958
23904W        W40751   2.071   6.569   1.506  0.2334 -0.1567  0.1029
23905W        W40752   1.373  17.947   0.446  0.0956  0.0047  0.0803
23906W        W40753  15.230   5.581  11.533 -0.2347  0.0312  0.2094
23907W        W40754  16.843   2.079  14.041  0.0748 -0.2414  0.0110
23908W        W40755  10.877  13.563  13.662 -0.4571  0.2950  0.0350
23909W        W40756   3.820  17.194   3.657  0.1864  0.2615 -0.2140
23910W        W40757   6.309   3.526  13.095  0.1492  0.0994  0.3304
23911W        W40758   6.465   7.510  13.707  0.1593 -0.0709 -0.1411
23912W        W40759  13.990   4.165  13.431 -0.0377 -0.0867 -0.4492
23913W        W40760   1.061   7.883  14.197 -0.3891 -0.2081  0.2333
23914W        W40761  18.719  16.358   0.072 -0.2375  0.3821  0.1073
23915W        W40762   5.917  17.035   3.995  0.3442 -0.1739  0.1623
23916W        W40763  10.825  14.731   4.370  0.2659 -0.4311  0.0591
23917W        W40764  17.120  15.776  14.621  0.1628  0.2098  0.0822
23918W        W40765   6.738   7.649  15.421  0.0965 -0.0778  0.1330
23919W        W40766   4.798  12.041  14.865  0.0811  0.3892  0.0446
23920W        W40767   4.385  11.574   2.479  0.3268  0.0309  0.0588
23921W        W40768   5.006   3.021  13.627 -0.0563  0.1381  0.0445
23922W        W40769   8.134   6.993  11.210  0.1497 -0.1119  0.0114
23923W        W40770  13.190  18.705  11.953 -0.3099 -0.3496  0.1684
23924W        W40771  13.833  14.028  15.150 -0.4713  0.1894 -0.1512
23925W        W40772  12.030  16.879  12.860 -0.1097 -0.4023 -0.0890
23926W        W40773  10.056  15.513   3.387  0.0871  0.2561 -0.0814
23927W        W40774  10.489  12.506   1.072 -0.2086 -0.2631 -0.2069
23928W        W40775   6.507   1.709   3.558  0.3544 -0.0751  0.1603
23929W        W40776   5.335  12.692  11.610 -0.0649 -0.1625 -0.2304
23930W        W40777   1.978  13.546   2.000  0.1553 -0.1034  0.1019
23931W        W40778   3.104  14.939   0.781 -0.0370  0.0377  0.1777
23932W        W40779   4.940  11.523   4.078  0.2026 -0.2758  0.0398
23933W        W40780  18.268  18.608   1.862  0.2247 -0.1613  0.0733
23934W        W40781  14.247  12.230  13.062  0.0106 -0.0699  0.1819
23935W        W40782  11.525   3.004  14.136 -0.1495 -0.3596 -0.0997
23936W        W40783  13.152   7.470   3.077 -0.1302 -0.3623 -0.0839
23937W        W40784   2.957   3.713   5.521 -0.0332 -0.0810  0.1286
23938W        W40785   6.151  14.908   2.789 -0.3675  0.2402  0.0108
23939W        W40786   0.245  16.447   1.074  0.0330 -0.1812  0.0651
23940W        W40787   1.342  18.539  10.858  0.0565  0.4618  0.0915
23941W        W40788   6.768  13.788   4.645 -0.0181 -0.0569 -0.0324
23942W        W40789  11.444   9.940  14.651 -0.0443  0.0464 -0.1390
23943W        W40790  11.254  18.227   4.699  0.1029  0.0863  0.1978
23944W        W40791  10.363   6.417   3.308  0.2315  0.1504 -0.0977
23945W        W40792   8.754   8.506   0.205 -0.1411  0.0742 -0.0476
23946W        W40793   5.717  12.226  11.765  0.2113  0.0154  0.1737
23947W        W40794  16.727  17.352   4.952 -0.2692  0.0831 -0.0308
23948W        W40795   0.665   1.660   0.951 -0.2136  0.1435  0.1433
23949W        W40796  12.794   9.614   0.312 -0.0343  0.0566  0.0994
23950W        W40797  16.884  13.650   4.352  0.1204  0.0340  0.0709
23951W        W40798  11.793   7.501   2.290 -0.1420 -0.1543 -0.0264
23952W        W40799   0.985  14.633   5.367  0.0026  0.0975  0.2123
23953W        W40800   8.604  13.388  11.400  0.2831 -0.0732 -0.1035
23954W        W40801   2.157   4.843  15.544  0.1427 -0.1716  0.3343
23955W        W40802  17.051   5.000   2.057 -0.0310 -0.2655 -0.1468
23956W        W40803   3.013  14.278   4.645 -0.1913 -0.0124  0.1401
23957W        W40804   6.868  10.784   2.141  0.0309  0.0563  0.1318
23958W        W40805   1.584  12.798   4.589 -0.1166  0.2914  0.2448
23959W        W40806   8.577  15.088  14.828 -0.0721 -0.1830  0.0994
23960W        W40807  15.987  10.089  14.480  0.0662  0.3179  0.1315
23961W        W40808  10.717  16.586   3.747 -0.2219  0.0177  0.1004
23962W        W40809   6.248   9.398  13.360 -0.1563  0.1117  0.2400
23963W        W40810   0.645   4.032   0.301 -0.0949  0.0728 -0.3336
23964W        W40811   2.617  15.559   0.699  0.2626 -0.2876  0.1180
23965W        W40812   1.337  13.075  11.389  0.0779 -0.2644 -0.0169
23966W        W40813   5.391   9.593  11.347  0.2003  0.1605  0.0333
23967W        W40814   0.597   7.534   3.480  0.2505 -0.0480 -0.1371
23968W        W40815  16.413   0.599   0.242 -0.2715 -0.2396  0.1424
23969W        W40816  17.310  16.885  12.468 -0.1741 -0.1369 -0.1260
23970W        W40817   5.450  10.791   0.667 -0.0825  0.1226  0.0406
23971W        W40818   4.780   5.701   1.950  0.1048  0.4369  0.2516
23972W        W40819   9.327   4.674  14.565  0.1087  0.1618 -0.0511
23973W        W40820   3.685  14.991  15.138 -0.2772  0.2625  0.1827
23974W        W40821   2.082  13.317  15.103  0.0770 -0.0300 -0.0081
23975W        W40822   3.611  17.169  13.689  0.2268 -0.0595 -0.1544
23976W        W40823   8.754   1.317  12.257  0.3464 -0.2834 -0.0404
23977W        W40824   9.511   3.740   2.203 -0.0439  0.0317  0.2420
23978W        W40825  12.620   5.128   0.932 -0.1546 -0.1318  0.8628
23979W        W40826  16.696   6.554   2.712 -0.3584 -0.0074 -0.0859
23980W        W40827   5.003   2.993   4.698  0.0625  0.1174  0.1608
23981W        W40828   7.335   2.825  11.058  0.0944 -0.0397  0.0096
23982W        W40829   9.305  11.303  12.789  0.3930 -0.0459 -0.0627
23983W        W40830   2.346  15.932  11.307 -0.1031  0.1936 -0.3230
23984W        W40831   2.923  17.276  11.170 -0.2790 -0.1151 -0.2008
23985W        W40832  17.429  11.302  12.129 -0.0065 -0.0462  0.4442
23986W        W40833   7.452  16.824   1.491 -0.1245  0.1027  0.2397
23987W        W40834   4.437  10.131  13.114 -0.1400  0.2810  0.1996
23988W        W40835  15.752  10.317  15.284  0.0455 -0.0824  0.1664
23989W        W40836   2.457   6.039   4.532  0.1205 -0.1132 -0.2956
23990W        W40837   3.845   9.376   0.916 -0.0938  0.2250  0.3974
23991W        W40838   9.817  13.853  11.434  0.1361 -0.0943 -0.2796
23992W        W40839  14.749  10.832   3.992 -0.1688 -0.3142 -0.0961
23993W        W40840  13.295  18.212  15.541  0.0445 -0.0391 -0.3829
23994W        W40841  10.627   2.767  10.522 -0.0387 -0.2049  0.0597
23995W        W40842  16.040   8.922   2.778  0.6177 -0.4572  0.1585
23996W        W40843   9.508  15.399  11.340 -0.0006 -0.3963  0.1880
23997W        W40844   8.333   8.083   3.059 -0.1482 -0.1308 -0.1242
23998W        W40845  12.791   7.828  12.174  0.1749 -0.0320  0.1048
23999W        W40846  16.584   8.540   3.567  0.0331 -0.1782  0.0305
24000W        W40847   5.765  13.756   4.718 -0.0044  0.1871 -0.2144
24001W        W40848   6.538   6.977  12.759 -0.1342 -0.2829  0.2138
24002W        W40849  17.430   5.756   3.609  0.0570  0.2452  0.0888
24003W        W40850   7.495   3.947  14.561  0.1070 -0.1754 -0.1269
24004W        W40851   7.141   3.727   0.780 -0.0862 -0.0951 -0.0763
24005W        W40852  13.425   4.907   2.507 -0.0055  0.0162 -0.0381
24006W        W40853  15.035   4.660   4.621  0.0384 -0.6312  0.0666
24007W        W40854   9.102   5.829   4.491  0.0996 -0.2790 -0.1674
24008W        W40855  14.277  14.114   3.939  0.0403 -0.0732 -0.1474
24009W        W40856   7.821  18.827  13.097 -0.1433  0.3328  0.2306
24010W        W40857   4.405  13.976   2.248  0.0483  0.1778  0.1874
24011W        W40858  13.628  16.683  14.729 -0.3169 -0.0197  0.1617
24012W        W40859   0.482   2.635   4.436 -0.2766  0.0621 -0.0421
24013W        W40860  12.454  17.577  13.246 -0.3554  0.1030  0.0488
24014W        W40861  14.201  16.839   0.570  0.2975  0.2242 -0.0466
24015W        W40862  10.820  10.222  15.135  0.2778  0.0108  0.1550
24016W        W40863   1.261  14.676   2.485 -0.2218  0.0932  0.0447
24017W        W40864  15.992  16.633   3.492 -0.2489  0.0951 -0.2193
24018W        W40865   4.254  10.110   2.448 -0.0722 -0.1043  0.1356
24019W        W40866  10.507  18.163   3.674  0.3404 -0.1156  0.2259
24020W        W40867  11.198   5.187   2.907  0.2430 -0.2221 -0.1562
24021W        W40868   4.313   1.265  14.023 -0.1773 -0.0093  0.2313
24022W        W40869  13.034  18.584   2.127  0.0890  0.3723  0.1633
24023W        W40870  11.688   5.562   2.377 -0.1624 -0.0412  0.2239
24024W        W40871  18.390  17.365  15.524  0.1954 -0.1743 -0.0151
24025W        W40872   4.152   8.498   5.033  0.0877  0.2203  0.0665
24026W        W40873  13.743   8.082  15.396 -0.1430  0.1853 -0.2233
24027W        W40874   9.997  13.979  15.724 -0.1344  0.1854 -0.0307
24028W        W40875  15.424  12.352   1.039  0.3098 -0.3634 -0.0961
24029W        W40876  12.020  15.686  12.152 -0.4068 -0.1097 -0.3030
24030W        W40877  15.757   8.393   5.016  0.1170  0.0945 -0.2639
24031W        W40878   6.929  17.209   4.282 -0.2941  0.2994 -0.0142
24032W        W40879   1.652  14.859  13.885  0.2016  0.1119  0.0630
24033W        W40880  14.792  17.306   3.919  0.0801 -0.2398  0.0223
24034W        W40881   4.549   5.386  15.467 -0.2211 -0.3026 -0.1950
24035W        W40882  17.298  16.312  12.209  0.0571  0.1493 -0.1504
24036W        W40883   7.783  17.781   1.468 -0.2200 -0.4508  0.2679
24037W        W40884   9.418  13.359  13.293 -0.0610 -0.2713  0.0433
24038W        W40885   7.018  16.618   1.207 -0.1202 -0.0426  0.2833
24039W        W40886  12.082   9.461   3.771 -0.1485  0.1382 -0.2932
24040W        W40887   0.777   4.648   3.928  0.0865  0.0288 -0.0245
24041W        W40888   4.442  13.799  11.644 -0.0319 -0.2814 -0.1299
24042W        W40889  16.474  12.330  15.750  0.0028 -0.1092  0.0432
24043W        W40890   0.746  17.235   3.459 -0.2295 -0.3220 -0.0961
24044W        W40891   6.964  14.038   1.790 -0.0271 -0.2251  0.0297
24045W        W40892   8.858   3.438   0.325 -0.2854  0.0847  0.1104
24046W        W40893  14.789   0.517  11.869 -0.2912  0.1930 -0.2592
24047W        W40894  13.338  17.040  14.978 -0.1222 -0.0268  0.2255
24048W        W40895  16.370   0.209  14.150  0.0021 -0.0470 -0.2276
24049W        W40896  16.807   0.280   5.228 -0.3113 -0.2777 -0.3435
24050W        W40897   8.268  12.018  14.481 -0.0168  0.1983 -0.1356
24051W        W40898   3.092  15.937   4.074  0.1531 -0.0329  0.0051
24052W        W40899   6.429  10.843  13.367  0.2046  0.1443  0.0673
24053W        W40900   0.924  10.955  12.659 -0.2660 -0.1700  0.3551
24054W        W40901   4.394  13.257  15.002 -0.3137  0.1899  0.3016
24055W        W40902  15.552  12.529   3.768  0.1898 -0.3669  0.1716
24056W        W40903   8.385  13.647   3.784 -0.2153  0.0602 -0.1324
24057W        W40904   9.897   8.839  15.163  0.0040  0.2544 -0.0126
24058W        W40905   3.006  14.461   0.732 -0.1935 -0.1214 -0.1045
24059W        W40906   5.731  10.302  11.729 -0.0738 -0.1417 -0.1530
24060W        W40907  14.361   6.992   1.991 -0.0872  0.0034 -0.1834
24061W        W40908   6.055  17.016   0.288 -0.4088 -0.1523 -0.0020
24062W        W40909   1.890   0.203  14.916  0.0489  0.0188 -0.2305
24063W        W40910  14.285   9.977  11.773  0.2869 -0.2430 -0.4292
24064W        W40911   6.369   7.305   2.696 -0.1974 -0.0200 -0.1541
24065W        W40912  11.263   9.200   1.408 -0.0568 -0.1452  0.1440
24066W        W40913   9.016   1.652  13.779 -0.0234  0.2432 -0.0281
24067W        W40914   0.665   6.688   0.003 -0.2663  0.0518 -0.0202
24068W        W40915   0.224  17.731   0.238 -0.1698 -0.0444 -0.3260
24069W        W40916   8.118   4.889  12.619 -0.2174 -0.3178  0.0168
24070W        W40917   2.453   0.952  12.575  0.0501  0.2722  0.2537
24071W        W40918   1.630   5.456   4.339  0.2831 -0.0620 -0.0950
24072W        W40919   3.353   7.658   3.628  0.1491 -0.1149  0.0456
24073W        W40920  14.123   9.184   4.315  0.1007 -0.0904 -0.3766
24074W        W40921   0.539  12.930  14.789 -0.1029 -0.0909 -0.0046
24075W        W40922   8.066   4.841  11.417 -0.1503  0.1354 -0.1877
24076W        W40923   0.724  14.129  14.122 -0.0910  0.1471  0.0672
24077W        W40924   3.962  11.895   1.392  0.2982 -0.1501  0.0172
24078W        W40925   9.831  12.680   3.004 -0.1171 -0.2017 -0.0822
24079W        W40926   3.711   2.552   1.104  0.5294 -0.1205  0.1442
24080W        W40927   1.603   9.089  11.636 -0.1080 -0.1926 -0.2436
24081W        W40928   0.456   3.407  12.145 -0.5480 -0.3028  0.1908
24082W        W40929  16.763  11.928   0.824  0.1054  0.1492  0.0986
24083W        W40930   3.871  13.254   4.688  0.0401 -0.2321 -0.1367
24084W        W40931  11.575  12.668   2.515  0.1364  0.1361  0.0890
24085W        W40932  16.442  16.439   4.761  0.1952  0.2423 -0.1412
24086W        W40933   8.864  13.880  11.545 -0.2719 -0.0181 -0.1709
24087W        W40934   7.895   1.012  15.145 -0.0005 -0.3215 -0.0709
24088W        W40935   0.429   2.258   3.415  0.0500  0.0859  0.5086
24089W        W40936  16.039   2.405  11.734  0.1584  0.0781 -0.0317
24090W        W40937   8.715  18.609   3.260  0.0306 -0.2417 -0.2187
24091W        W40938   8.737   9.491  15.142 -0.3228 -0.0528  0.2809
24092W        W40939   4.077  12.508   0.098 -0.2794  0.1839 -0.3703
24093W        W40940   0.872   4.855  15.029 -0.0501 -0.3199  0.0880
24094W        W40941   4.871   2.857  14.866  0.3052  0.0144  0.0484
24095W        W40942   7.225   5.646   0.921  0.0102  0.0604 -0.0735
24096W        W40943   5.917   6.887   1.080  0.1699 -0.0079  0.4314
24097W        W40944   0.936   0.945  11.070 -0.2646 -0.1299 -0.1842
24098W        W40945  11.825   9.550   0.288 -0.1748  0.0447  0.1967
24099W        W40946   5.905   1.570   4.853 -0.0686  0.1216  0.2228
24100W        W40947   2.074   6.975   2.770  0.0500 -0.0593  0.0144
24101W        W40948   5.949   3.829  12.433  0.1425  0.2026 -0.3641
24102W        W40949   9.096   6.096   3.672 -0.0269 -0.2585  0.0795
24103W        W40950  18.124  10.637  11.929 -0.3432  0.0210 -0.0801
24104W        W40951   8.786  10.941  11.714 -0.1004 -0.0032 -0.2974
24105W        W40952   6.984  13.953   0.101  0.0136  0.0346 -0.1012
24106W        W40953   0.620  10.647   4.554 -0.2789 -0.1613 -0.0507
24107W        W40954  17.018  18.563  14.193  0.3971  0.5332  0.1859
24108W        W40955   4.327   4.788   3.308  0.2453  0.2260  0.1424
24109W        W40956  12.479  17.118  12.530  0.0077  0.1407 -0.0271
24110W        W40957   8.631  12.646   3.578  0.1362 -0.1769  0.0764
24111W        W40958   0.510  14.974   3.154 -0.2195 -0.0340  0.3123
24112W        W40959   5.295   6.492   4.527 -0.1748 -0.0557  0.1957
24113W        W40960  14.675   8.801   2.842 -0.1988  0.2440  0.2656
24114W        W40961   8.759  15.842   2.706 -0.1162  0.0663 -0.0352
24115W        W40962   5.802  10.192   5.469  0.0023 -0.5303  0.0064
24116W        W40963   4.357  12.160   2.828 -0.2128  0.0624 -0.2032
24117W        W40964  10.783   0.461   5.018  0.1763 -0.0386 -0.1242
24118W        W40965   1.562   0.688  14.224  0.1146 -0.0747 -0.0891
24119W        W40966   2.483   8.146  11.857 -0.1896  0.2911  0.1865
24120W        W40967   5.252   8.123  14.014  0.0966  0.1723 -0.0566
24121W        W40968  12.276  12.993   5.851 -0.0530 -0.0709  0.0248
24122W        W40969  11.795  14.848  15.194  0.1142 -0.0151 -0.4515
24123W        W40970   0.795   7.239  11.510  0.0387  0.1659 -0.1775
24124W        W40971   8.889  12.204  11.803 -0.0382  0.1111  0.0300
24125W        W40972  13.015   6.877   1.216  0.0873  0.1032  0.1290
24126W        W40973  11.888   5.584   3.177 -0.0574 -0.1097  0.0155
24127W        W40974  16.435   8.875   2.531 -0.2135 -0.3495 -0.4446
24128W        W40975   8.451  13.762   2.605 -0.3050 -0.0304  0.1762
24129W        W40976  10.379   6.544  14.218  0.1756  0.2340 -0.0713
24130W        W40977  13.237  15.422   5.268  0.0950  0.0808  0.1314
24131W        W40978   6.685  12.438  11.600 -0.2439 -0.4893 -0.0255
24132W        W40979   2.823   5.022  13.528 -0.0058 -0.4116  0.2251
24133W        W40980   7.016   5.220  13.752 -0.0510  0.0709  0.1956
24134W        W40981   8.061  15.057  12.270  0.0533 -0.0206  0.3673
24135W        W40982  10.171  12.476   4.716 -0.0115  0.1226  0.0863
24136W        W40983   0.158  16.676  10.725 -0.2500 -0.1572  0.0138
24137W        W40984   6.754   0.885  12.621  0.0245  0.0697 -0.1352
24138W        W40985   6.634   8.877   3.523 -0.0887 -0.2870 -0.2325
24139W        W40986   4.748   0.447  14.938 -0.0772  0.0735  0.6490
24140W        W40987   2.100   1.320   3.730 -0.1403 -0.0872  0.2337
24141W        W40988  11.743   8.465   0.303  0.0727 -0.2285  0.0770
24142W        W40989  16.302  18.280  11.325 -0.1553  0.0283  0.1273
24143W        W40990   1.439   4.994   5.569 -0.1336  0.1629  0.1630
24144W        W40991  17.583  14.133   5.550 -0.2220 -0.2568 -0.2538
24145W        W40992   2.616   4.357   4.211  0.2611  0.3836 -0.0252
24146W        W40993   4.253   1.024   2.608  0.1309  0.2106 -0.0516
24147W        W40994  11.091   5.153  11.440 -0.1586  0.0503  0.2454
24148W        W40995  17.450   2.997   3.830  0.1510  0.0616 -0.1350
24149W        W40996   4.671   3.388   0.673  0.0187  0.3673 -0.0368
24150W        W40997  16.347   1.715   4.308 -0.1707  0.0298  0.1242
24151W        W40998  16.625   1.143   5.617  0.1360 -0.0035 -0.2212
24152W        W40999  11.471   9.214   4.940  0.1877 -0.1658 -0.1410
24153W        W41000  16.983   7.213  11.382  0.2914  0.1052 -0.1663
24154W        W41001   6.557  17.851   2.225 -0.1576 -0.0115 -0.0689
24155W        W41002   1.400  16.111   5.059  0.2339  0.0315  0.0578
24156W        W41003   4.709   9.849  14.601 -0.0691  0.1105  0.2872
24157W        W41004  16.785  18.611   4.516 -0.0550  0.2369 -0.2499
24158W        W41005   4.560   2.454  14.375 -0.3281 -0.1173 -0.0931
24159W        W41006  14.103   9.497  11.732 -0.2962 -0.0597  0.3033
24160W        W41007  10.773   9.161  15.718  0.1503  0.0055  0.1260
24161W        W41008  17.933   5.810   3.526 -0.1205 -0.1715  0.1338
24162W        W41009  12.705  12.712   3.368 -0.3174 -0.1271  0.1207
24163W        W41010  12.742  13.450   2.163  0.0742 -0.0893 -0.0127
24164W        W41011   3.396   7.715  15.339 -0.1301 -0.2377  0.0770
24165W        W41012  18.460   5.521   3.736  0.2175 -0.2040 -0.0650
24166W        W41013   5.001  17.541   1.747  0.1897 -0.3078 -0.2645
24167W        W41014  10.598   9.826  14.124 -0.2519  0.0639  0.0004
24168W        W41015   6.251   1.862   0.302 -0.0792 -0.2460 -0.2900
24169W        W41016  14.348  10.202   6.223 -0.0657 -0.1284 -0.1470
24170W        W41017   8.438   6.983   0.817 -0.2009  0.2129 -0.2206
24171W        W41018  16.016  10.755  13.874 -0.0637  0.1171  0.3865
24172W        W41019   8.715   7.146   1.780  0.0788  0.1075  0.0606
24173W        W41020  11.035  11.622   3.296  0.2119 -0.1403  0.1233
24174W        W41021  10.775   4.118   0.889  0.2163 -0.3242 -0.0841
24175W        W41022   5.503  12.004   2.738  0.2750  0.0661  0.3853
24176W        W41023  18.476  15.768   0.081  0.2457  0.1877  0.3148
24177W        W41024   1.177   3.995  13.533 -0.1090  0.2393  0.2772
24178W        W41025   8.172  18.719   2.032  0.1112 -0.0317 -0.0991
24179W        W41026   8.594  13.316   2.412  0.1035  0.2926 -0.2856
24180W        W41027   6.233   1.954   2.333  0.0341 -0.0046  0.1606
24181W        W41028  17.384  17.369   3.542  0.0663 -0.0777 -0.0559
24182W        W41029  18.134  18.414   2.759 -0.2941  0.2916 -0.0484
24183W        W41030  12.250   5.646  11.167 -0.1004 -0.1311  0.0384
24184W        W41031   5.364  14.033   1.892  0.1232 -0.1917 -0.0799
24185W        W41032  17.339  13.271  12.147  0.1751 -0.1036  0.0363
24186W        W41033  15.968  18.290   3.208  0.2515 -0.0648 -0.2597
24187W        W41034  11.364   1.959  12.791 -0.1218  0.0870 -0.0481
24188W        W41035   0.476   2.521  12.279  0.2088  0.1193  0.0228
24189W        W41036   7.444   2.909  13.884  0.0938 -0.2591  0.1697
24190W        W41037  11.302   5.743  11.326 -0.1791  0.0497 -0.0691
24191W        W41038  13.106   5.765   2.528  0.4540  0.0741 -0.1774
24192W        W41039  18.846  18.632  13.628  0.0691  0.0107 -0.0731
24193W        W41040   6.818  14.237  11.106  0.0100 -0.1684  0.3525
24194W        W41041   9.684  11.810   3.484 -0.2260 -0.1579 -0.2541
24195W        W41042  12.676  12.653   5.949 -0.0294 -0.3585  0.0042
24196W        W41043  12.759  18.652  14.458 -0.1317  0.4040  0.3958
24197W        W41044  15.491   1.291  15.601 -0.6539 -0.3621  0.0268
24198W        W41045   1.764   9.558  11.265  0.1484 -0.3460 -0.2192
24199W        W41046  15.345  13.299  13.159 -0.0648 -0.3133  0.0663
24200W        W41047   4.582  16.603   0.424  0.2818  0.3618  0.0764
24201W        W41048   1.409  11.422   2.666 -0.0256  0.0827  0.0383
24202W        W41049   7.538   5.125  15.205  0.0015  0.1445 -0.0586
24203W        W41050   7.734   6.523   1.788 -0.1297 -0.0722  0.1426
24204W        W41051  14.365   7.540   4.587  0.0846  0.1637  0.1226
24205W        W41052  12.665   2.808  15.239 -0.2469 -0.3174 -0.0054
24206W        W41053  14.061   8.036  12.497 -0.0895 -0.4272  0.1604
24207W        W41054  13.571   9.354  14.992 -0.1871 -0.3085  0.1074
24208W        W41055  10.889  10.842   3.971  0.0474 -0.0341  0.1620
24209W        W41056   1.607  18.350   0.709  0.1638  0.3339  0.3195
24210W        W41057   7.306  13.482   1.411  0.4530 -0.2604  0.0877
24211W        W41058  16.628  11.817   0.020 -0.2697 -0.1750  0.2805
24212W        W41059  18.078   4.808  12.909  0.0260  0.2039  0.1103
24213W        W41060  17.802   6.604   1.632 -0.2281  0.1338  0.1492
24214W        W41061  10.023  13.722   1.813  0.2343  0.2561 -0.2371
24215W        W41062   5.325  13.067   2.385  0.0434  0.0931 -0.0605
24216W        W41063   4.440   8.364   1.723 -0.1032  0.1598 -0.2838
24217W        W41064   5.387   8.129  12.641 -0.0040  0.1137  0.0084
24218W        W41065   3.597  15.067   0.908  0.2028 -0.2261  0.1086
24219W        W41066   8.023   7.813   4.194  0.2335  0.2197 -0.1194
24220W        W41067  15.345   1.156   0.714  0.0799  0.1751  0.0083
24221W        W41068   5.666   8.049  11.711 -0.1360 -0.1808 -0.0411
24222W        W41069   1.346   2.948   5.094 -0.1341 -0.4540  0.0696
24223W        W41070  10.453  16.629   5.773  0.2599  0.2360 -0.1343
24224W        W41071  15.675  14.648   1.125  0.1587  0.1299 -0.3579
24225W        W41072  17.727  16.611  14.587 -0.1523 -0.1462 -0.0656
24226W        W41073  15.166   6.205   4.629  0.0255 -0.2093  0.0477
24227W        W41074   4.721  10.608  11.662  0.2344 -0.1809  0.1795
24228W        W41075   3.687  14.483  12.926  0.3448 -0.0231  0.1405
24229W        W41076  10.521   4.586   4.203 -0.0931  0.1211  0.0644
24230W        W41077  14.964  18.530  11.376  0.1334  0.1959  0.0663
24231W        W41078   0.202   0.493  12.980 -0.0948  0.0745  0.0678
24232W        W41079  10.909   6.897  13.723  0.1289 -0.0821 -0.1235
24233W        W41080  13.322  14.443   1.980 -0.0096  0.0182  0.2993
24234W        W41081  17.693  15.005  12.550 -0.0954 -0.1064 -0.1453
24235W        W41082  10.246  10.910   1.698 -0.0436 -0.1943 -0.0657
24236W        W41083   4.939   7.787  10.421 -0.1261  0.2312 -0.2714
24237W        W41084  11.364   5.507  13.426  0.0861  0.2473  0.0601
24238W        W41085  14.313  17.273  13.703 -0.0184 -0.1761 -0.0064
24239W        W41086  15.046   1.758  11.215  0.2502  0.3030  0.1736
24240W        W41087   5.352  17.690   0.152  0.1334  0.1476 -0.1357
24241W        W41088  13.393   4.504  12.659  0.0131 -0.0280  0.1717
24242W        W41089  12.758  13.519  12.807  0.3177 -0.0376 -0.0221
24243W        W41090   9.098  11.846  11.418  0.1166  0.0875  0.2570
24244W        W41091  18.650   6.619   3.006  0.3600 -0.2068  0.0913
24245W        W41092  16.569   2.681   0.320  0.0623  0.0836 -0.0247
24246W        W41093   5.868  10.307   0.638 -0.2062 -0.1149 -0.1178
24247W        W41094   8.072  18.087  13.350 -0.0046 -0.4018 -0.1428
24248W        W41095   4.543  13.571   2.633 -0.0454  0.0893 -0.1778
24249W        W41096  13.833  18.104  15.637  0.2743 -0.1806  0.0821
24250W        W41097   6.513   3.594   5.133 -0.1112 -0.1582 -0.0761
24251W        W41098   0.128  11.947   3.050  0.0243  0.1032 -0.1525
24252W        W41099  10.597   7.386   4.441  0.1091  0.1550 -0.2116
24253W        W41100   2.635  14.406  10.378  0.0944 -0.0002 -0.1216
24254W        W41101  13.271  15.565   2.176  0.0679  0.2973 -0.1515
24255W        W41102  12.222  12.739   0.404  0.0573 -0.0268 -0.1921
24256W        W41103   8.949  17.565   5.732  0.0571 -0.1459 -0.0533
24257W        W41104  13.049   1.301  14.727 -0.0958 -0.1114  0.0805
24258W        W41105   0.799   9.568  14.964  0.1407  0.0906  0.3351
24259W        W41106  11.972   0.521   1.871  0.0081 -0.3772 -0.3267
24260W        W41107  15.041  15.577  14.222  0.2910  0.2580 -0.0219
24261W        W41108   2.190  10.967   0.959 -0.1423 -0.3808 -0.0010
24262W        W41109   7.112  14.053  12.126  0.1793 -0.0637  0.0162
24263W        W41110  15.518   1.537   0.996 -0.2347  0.0207 -0.0489
24264W        W41111   6.145   4.557   5.085  0.1773 -0.2781  0.2553
24265W        W41112  11.833   8.024   4.611  0.3398  0.3047 -0.2289
24266W        W41113  17.702   9.758  11.837  0.2877 -0.3592  0.0149
24267W        W41114   5.520  17.342   2.385 -0.0489  0.5430 -0.1273
24268W        W41115  10.900  16.861   5.550  0.0596 -0.1651  0.1169
24269W        W41116  13.014   1.329   3.767 -0.0594 -0.3067 -0.1594
24270W        W41117   3.463  13.805   0.092 -0.1944  0.1876  0.1642
24271W        W41118  14.498   9.277   5.013 -0.0870 -0.0035  0.2447
24272W        W41119   7.984   3.894  14.555  0.4476  0.0295  0.1082
24273W        W41120  18.402   3.030  13.377  0.1727  0.1789  0.0247
24274W        W41121   8.860  11.294   0.092 -0.0762 -0.1145 -0.1714
24275W        W41122   1.671  13.279  15.430  0.0727  0.3772 -0.0930
24276W        W41123  12.124  14.370   4.207  0.2022 -0.1541  0.1251
24277W        W41124   8.167   5.034   3.881  0.1199 -0.2856  0.1040
24278W        W41125   4.175   3.334   0.720  0.0790 -0.2602  0.1297
24279W        W41126   7.133  15.078   4.395 -0.2155 -0.0330  0.2358
24280W        W41127  18.814  14.022   1.007 -0.4335  0.2489  0.2161
24281W        W41128  11.156  10.534  13.916  0.1348  0.0256  0.4376
24282W        W41129   6.921  15.876  13.940  0.2523  0.0450 -0.0849
24283W        W41130  10.842   4.733   1.656  0.0125  0.2460 -0.1282
24284W        W41131  12.122   3.450  11.483  0.0809  0.2175  0.0290
24285W        W41132  16.288   9.813   3.739 -0.1611  0.3675 -0.0273
24286W        W41133  17.198   5.235   3.833 -0.3516  0.3535 -0.2714
24287W        W41134   6.918   0.369   2.457 -0.1555  0.1934 -0.0433
24288W        W41135   4.777  16.812   1.068  0.0936  0.2535  0.1101
24289W        W41136   8.327  10.149  13.377  0.1059  0.1159 -0.1343
24290W        W41137   3.043  18.804  14.812  0.1581  0.0520 -0.1369
24291W        W41138   2.368  12.723   0.074  0.0199 -0.1221  0.0139
24292W        W41139  10.861  14.940  11.013 -0.0225  0.0456 -0.1186
24293W        W41140   2.905   6.302   1.015 -0.3519  0.3856  0.0154
24294W        W41141  14.052  16.326  13.305  0.2258  0.1134  0.0772
24295W        W41142  17.665  17.732   3.243  0.2851 -0.0467 -0.1298
24296W        W41143   6.152   5.087  10.908  0.0531 -0.0926 -0.0088
24297W        W41144  12.569   1.901  11.394 -0.0294  0.3037 -0.0533
24298W        W41145   7.285  14.110   2.183 -0.1036  0.1054 -0.1024
24299W        W41146   2.223   1.900   1.894 -0.1280 -0.3265 -0.2395
24300W        W41147  17.138  16.072   2.795 -0.0153 -0.0368 -0.0936
24301W        W41148   3.877  17.993  15.104 -0.1890 -0.0900  0.0216
24302W        W41149   8.526   5.529   5.237 -0.1137 -0.0180 -0.2649
24303W        W41150  14.089  10.887   0.995  0.2545  0.0869  0.0935
24304W        W41151  18.657   5.673   0.118  0.3886 -0.0285  0.0069
24305W        W41152   9.247   0.891   1.250  0.0701 -0.2417  0.0430
24306W        W41153  13.249  11.908  11.404  0.1155  0.0746  0.1539
24307W        W41154  12.078   9.558   1.865  0.0299  0.1767  0.3857
24308W        W41155   7.646   5.164   3.554  0.3079 -0.2118 -0.1880
24309W        W41156  11.650  16.653  12.571  0.0681 -0.0998 -0.0857
24310W        W41157  13.018  16.291  13.136  0.0159  0.2195 -0.0486
24311W        W41158  18.340  14.715  14.455  0.1686  0.0665 -0.0638
24312W        W41159   1.219   8.105   1.505 -0.0418 -0.2164 -0.2669
24313W        W41160  18.383  12.498   2.141 -0.1902 -0.1219 -0.1678
24314W        W41161   3.920   1.971  11.480  0.1940 -0.0502 -0.0715
24315W        W41162   5.471  13.708   0.595 -0.0718 -0.2998  0.2980
24316W        W41163   8.357  12.506   1.730  0.2771  0.2303  0.0034
24317W        W41164  10.938   1.877   3.218 -0.0260  0.0122 -0.1406
24318W        W41165   7.429   0.321  13.088  0.0806 -0.0954  0.0622
24319W        W41166  17.387   9.899  12.239  0.0543 -0.3916 -0.1511
24320W        W41167  11.535   8.715  14.403 -0.2497 -0.1989 -0.0086
24321W        W41168   3.124  13.595  13.120 -0.2213  0.3508  0.2439
24322W        W41169   5.383   1.313  13.419  0.0417  0.0762 -0.1855
24323W        W41170   1.824  12.101   9.948 -0.0511 -0.0458 -0.3694
24324W        W41171  16.074   1.090  11.768 -0.2519 -0.2477 -0.2478
24325W        W41172   6.381  16.567   2.488  0.0220  0.2954 -0.2211
24326W        W41173  12.838   0.262  13.353 -0.4157  0.1083  0.1080
24327W        W41174   1.354  17.809   3.239  0.2906 -0.1598  0.0982
24328W        W41175  16.921   7.641   1.882 -0.1901 -0.3418 -0.1990
24329W        W41176  15.038  17.967   4.747  0.3727 -0.2824 -0.1588
24330W        W41177  16.791   8.265  15.650 -0.3241 -0.1247 -0.2957
24331W        W41178   0.668  15.039   5.181  0.0567  0.0728 -0.0025
24332W        W41179  10.546   5.942  14.484  0.1240 -0.2164  0.0838
24333W        W41180  14.870   1.996  15.391  0.0180  0.2321 -0.1155
24334W        W41181   6.559  11.729  15.348 -0.0758  0.3131 -0.2318
24335W        W41182  10.878   6.779   0.542 -0.3328 -0.1228  0.0699
24336W        W41183  16.910  13.549  11.449  0.1226  0.0585 -0.0648
24337W        W41184   1.588  16.098  15.281  0.1102 -0.0903  0.0762
24338W        W41185  18.740   7.748  12.080 -0.2944 -0.1938 -0.0172
24339W        W41186  17.209   1.288   3.994 -0.0891 -0.2694 -0.1598
24340W        W41187   2.551   5.491   4.777  0.1149  0.0561  0.1009
24341W        W41188   4.078  10.502   3.919  0.1565  0.4507  0.3565
24342W        W41189   0.951  12.591  14.955  0.0418  0.1222 -0.1527
24343W        W41190  11.130  12.853   1.304 -0.0008  0.0929  0.0958
24344W        W41191  12.218   1.426  11.335 -0.0074 -0.0515  0.1259
24345W        W41192  12.726   2.762   5.680 -0.2246  0.0013  0.2409
24346W        W41193  12.257  17.513   0.978 -0.1361  0.0547  0.3083
24347W        W41194   0.336   4.380   0.503  0.1244 -0.1348  0.0962
24348W        W41195  14.203  15.080   0.517  0.3337  0.0130 -0.3020
24349W        W41196  14.042  14.811   2.676  0.1928  0.1803  0.2770
24350W        W41197   2.480  14.008  14.348 -0.5405  0.2151 -0.1984
24351W        W41198  11.663   4.004  14.225 -0.0518 -0.0690 -0.1676
24352W        W41199  15.447  17.423  15.244  0.1439  0.0410  0.1810
24353W        W41200   5.692   7.193   1.802 -0.1044  0.1389  0.1042
24354W        W41201  16.442   2.287  12.514 -0.0316  0.4676 -0.0774
24355W        W41202   2.407   5.566   2.115  0.1486  0.1391  0.2085
24356W        W41203   5.843   3.536  12.805  0.1821 -0.1662  0.0246
24357W        W41204   1.658  11.356  13.967 -0.0136 -0.0075 -0.0708
24358W        W41205   2.919   7.102   2.046 -0.1670  0.1726  0.3544
24359W        W41206  14.480   1.129  11.400  0.3586  0.1356 -0.0438
24360W        W41207   2.748  12.614  12.974 -0.1462  0.1092 -0.1088
24361W        W41208   0.737   0.910   2.056 -0.1215  0.0035 -0.3194
24362W        W41209   8.614   8.671  11.941 -0.0026  0.2602  0.1876
24363W        W41210   0.200   4.182   0.933 -0.1617  0.6257  0.2902
24364W        W41211   3.464   4.877  10.338 -0.1205 -0.2692  0.3371
24365W        W41212  14.678   0.447   3.023  0.1622 -0.2660  0.0865
24366W        W41213   8.519   9.474   3.360 -0.2229  0.1032  0.1918
24367W        W41214   0.101  11.210  11.792 -0.2831  0.1573  0.0409
24368W        W41215  16.398  15.325  15.680 -0.0578  0.2293 -0.2849
24369W        W41216   2.808  10.723  15.617  0.0176 -0.1903  0.0851
24370W        W41217  14.150  12.059   2.900  0.2594  0.0280  0.0711
24371W        W41218  15.002   3.603   0.244  0.1426  0.1731 -0.1278
24372W        W41219  10.151   0.061   3.967  0.0067  0.1364 -0.2421
24373W        W41220   3.207   1.731  13.243 -0.0597 -0.0437  0.3836
24374W        W41221   0.433  16.707   2.000  0.0022 -0.0496 -0.2627
24375W        W41222  13.377  12.003   2.798  0.2575  0.2108 -0.3392
24376W        W41223   2.977  13.985  11.531 -0.0129  0.0471  0.1266
24377W        W41224  11.856  13.519  13.303 -0.3693  0.1611  0.2477
24378W        W41225   9.412   2.187   0.553  0.1939 -0.0711  0.0782
24379W        W41226  10.802   8.667   4.888  0.1242 -0.2467 -0.0016
24380W        W41227  17.419  15.660   5.321  0.1527  0.0109 -0.0597
24381W        W41228  13.801  13.713  13.268  0.0807  0.0517 -0.0222
24382W        W41229   1.783  16.611  15.002 -0.0122  0.0591 -0.0992
24383W        W41230   5.343  11.028  15.179  0.1823 -0.3207 -0.2974
24384W        W41231  15.439  17.082   4.639  0.0817  0.4074 -0.4098
24385W        W41232   2.413   3.314  11.004  0.2200 -0.3732  0.3569
24386W        W41233  18.427  15.957   5.161  0.2198 -0.2604 -0.0975
24387W        W41234   9.135   7.837  13.751  0.1680 -0.0627 -0.3581
24388W        W41235   8.077  15.717  13.132 -0.0449  0.2776  0.2192
24389W        W41236   3.353  15.944  14.619 -0.2060  0.0350 -0.3309
24390W        W41237   7.751   2.025  13.620  0.0916 -0.5242  0.0913
24391W        W41238   1.322   3.584  10.920 -0.2891 -0.0889  0.3693
24392W        W41239  17.431   9.382   4.372  0.2357 -0.1228  0.0191
24393W        W41240   6.731  16.848  12.394  0.0973  0.1650  0.2129
24394W        W41241   4.139   2.916   3.917  0.3691 -0.2279 -0.0896
24395W        W41242  14.380   9.163  15.220 -0.0318  0.1514  0.0258
24396W        W41243   4.910  10.749   2.061 -0.1618  0.2627 -0.1941
24397W        W41244  15.109   7.045  11.653  0.1201  0.1371 -0.1015
24398W        W41245  12.587   2.782  13.067  0.1399 -0.0938  0.1177
24399W        W41246  15.133   8.930   2.625  0.1626 -0.2251 -0.1863
24400W        W41247   1.201  14.067   4.205 -0.0096  0.5257  0.2818
24401W        W41248  17.921  16.212  15.382 -0.0691 -0.0699 -0.1697
24402W        W41249   2.646   9.479  13.910  0.3241 -0.4794 -0.2907
24403W        W41250   0.808   2.763   0.980 -0.0575  0.0668 -0.0846
24404W        W41251   0.231  15.912   2.975  0.1217  0.2628 -0.1313
24405W        W41252   0.932   8.848   5.004 -0.1047 -0.1246 -0.1516
24406W        W41253  17.838   2.750   3.349 -0.0102  0.1273  0.0069
24407W        W41254  10.441  18.550   0.897 -0.1216  0.3282  0.3318
24408W        W41255  10.132   8.058  15.678  0.1506  0.1259  0.0295
24409W        W41256  15.745  16.850   0.751 -0.3066  0.0374  0.1757
24410W        W41257   4.558   0.848  10.823  0.1453 -0.2173 -0.2191
24411W        W41258   3.434   6.230  12.097 -0.1846 -0.1189  0.0204
24412W        W41259   8.560   9.147   5.228  0.1506 -0.1375  0.3532
24413W        W41260   7.031  14.840   0.337  0.0896  0.1174  0.0701
24414W        W41261   0.654  12.429  15.700  0.1626 -0.0565  0.1321
24415W        W41262   7.196   4.231  14.907 -0.1435  0.0584 -0.0454
24416W        W41263   7.570  12.838  10.588 -0.0550  0.1292 -0.1961
24417W        W41264   7.981  18.562  12.591 -0.1133  0.1107 -0.1245
24418W        W41265  12.023   8.322  12.088 -0.1060 -0.0850  0.1679
24419W        W41266  10.928   8.793  13.821 -0.0543 -0.0290 -0.1515
24420W        W41267  15.705   8.892   0.950  0.4127  0.0406 -0.1541
24421W        W41268  16.769   6.343   3.180 -0.0491 -0.0856 -0.1240
24422W        W41269   3.958  13.655   0.047  0.1847  0.0358  0.0807
24423W        W41270   1.432   8.621  13.698  0.0764 -0.0358 -0.3557
24424W        W41271  17.226  17.967  13.357  0.2833  0.0458  0.3692
24425W        W41272  14.021   0.342   1.213  0.0547 -0.0201  0.1860
24426W        W41273  16.298  12.081  12.146  0.0702  0.1560 -0.0858
24427W        W41274   0.935  15.982   4.261  0.2527 -0.0732  0.0152
24428W        W41275  16.622   0.586  13.884  0.1359 -0.1926 -0.1705
24429W        W41276   8.910  14.374  12.405 -0.0590 -0.2280  0.1030
24430W        W41277  16.344   2.279   0.847 -0.1117  0.0616 -0.0628
24431W        W41278   9.421  11.218  14.563 -0.0685 -0.1322 -0.0030
24432W        W41279   9.824  17.780   2.030 -0.3491  0.2653  0.3925
24433W        W41280  11.886   3.205   3.420 -0.1172 -0.2302  0.4043
24434W        W41281  17.049  15.226  14.824  0.1978 -0.1532 -0.1227
24435W        W41282  14.687   9.831   1.391 -0.1397  0.0495  0.3405
24436W        W41283  17.270   3.189  15.736 -0.3846  0.1878 -0.2147
24437W        W41284  10.955   8.535  12.568 -0.0445  0.0091  0.0413
24438W        W41285   4.497   5.072  15.015  0.0331  0.0228 -0.0541
24439W        W41286  11.677   5.662   1.102 -0.0635 -0.0452 -0.4822
24440W        W41287  12.863  15.062   2.417  0.1774  0.3213 -0.1790
24441W        W41288   9.367  12.717  11.808 -0.0442  0.0260 -0.1270
24442W        W41289  11.342  13.023  15.390  0.3490 -0.0515 -0.4004
24443W        W41290  14.027  12.456   1.113  0.0381  0.3986  0.1225
24444W        W41291  12.966   4.816   0.294  0.1045 -0.1697  0.1583
24445W        W41292  14.437  17.904   0.884 -0.1037  0.2674  0.1983
24446W        W41293   0.256  10.186  13.655  0.1788  0.1481  0.2957
24447W        W41294   2.347   8.439  13.227  0.3485  0.2362 -0.0295
24448W        W41295   7.044  17.615   3.413 -0.4074  0.1576 -0.0078
24449W        W41296  18.531  17.624   0.194 -0.0086  0.0038  0.1047
24450W        W41297  10.536  17.795   0.088 -0.1021 -0.2357 -0.2146
24451W        W41298  18.185   6.983  14.086  0.0205  0.1149 -0.1529
24452W        W41299   7.693  11.608   2.575  0.4069  0.0479 -0.1858
24453W        W41300  17.823   4.955   6.089 -0.0099  0.1290  0.4804
24454W        W41301  17.704  17.751  14.954 -0.0349  0.0751  0.0165
24455W        W41302  15.376   7.704   1.891  0.0463  0.1362  0.1228
24456W        W41303  14.412  10.142  15.462  0.0469 -0.0713 -0.2470
24457W        W41304   3.242   4.796   2.548 -0.6328 -0.2827  0.1908
24458W        W41305  10.057  11.814   3.885 -0.0786 -0.0711 -0.2157
24459W        W41306   1.488   6.109  12.997 -0.0018 -0.1629  0.5543
24460W        W41307   5.854   4.921  14.980 -0.3700 -0.0586 -0.0678
24461W        W41308   4.271   7.357   1.547 -0.3499  0.0868  0.1290
24462W        W41309  13.164   0.875  15.005 -0.6097  0.1060 -0.4832
24463W        W41310   2.038  17.497   5.065  0.0526 -0.3344  0.0117
24464W        W41311   9.953   3.314   0.062  0.0934  0.1009  0.2372
24465W        W41312   4.457   0.538  11.308 -0.2682  0.2690  0.0579
24466W        W41313   0.075   7.173  14.406  0.2171  0.2436  0.3015
24467W        W41314   1.834  15.111   3.484  0.0267 -0.2055  0.2799
24468W        W41315  18.374   1.127  14.777 -0.1648 -0.0994  0.0937
24469W        W41316   7.877  15.777   4.111 -0.1392 -0.1678 -0.1820
24470W        W41317  13.220   8.577  14.672 -0.1010 -0.0922  0.4384
24471W        W41318   0.331  10.995   3.840  0.2173 -0.3356  0.3020
24472W        W41319   3.857  15.640   4.740  0.1048  0.4743  0.1941
24473W        W41320   6.013  18.412  11.411  0.3224  0.1766 -0.1373
24474W        W41321  18.031  18.074  15.113  0.3041 -0.1172  0.0888
24475W        W41322  14.693  10.392   1.595  0.2600  0.1139 -0.2784
24476W        W41323   8.952   8.591   1.875  0.2221  0.0816 -0.2117
24477W        W41324   0.252   9.606  13.284  0.1036  0.1500 -0.5906
24478W        W41325  11.642  13.294   0.100  0.3954  0.0718 -0.5098
24479W        W41326   0.759  15.641  15.314  0.0356 -0.1617 -0.1387
24480W        W41327   1.853  14.405   0.229  0.2433 -0.0613  0.2225
24481W        W41328   5.806   8.764   3.946 -0.1415  0.2149 -0.3584
24482W        W41329   9.544   8.380  12.223 -0.0271  0.1758  0.3918
24483W        W41330   9.631  13.088  11.963 -0.0769 -0.1098  0.1740
24484W        W41331  18.035   3.270   1.166 -0.0491  0.3279  0.0200
24485W        W41332   3.911  12.543  14.834 -0.0748 -0.0818  0.0375
24486W        W41333   2.912  14.142   2.933  0.0312 -0.1818 -0.0001
24487W        W41334   2.636   8.050  13.301  0.2978  0.0915  0.2380
24488W        W41335   4.734   3.488   0.181  0.0196  0.1439  0.0518
24489W        W41336   7.818   3.568  14.144 -0.1235  0.1824  0.1775
24490W        W41337   2.485  16.388   2.936  0.0623 -0.0471 -0.1499
24491W        W41338   1.110  13.492   1.437  0.0737  0.1364 -0.2489
24492W        W41339  11.281   8.795  12.258 -0.0002  0.1428  0.0746
24493W        W41340   9.528  15.618   4.822  0.1834  0.0785 -0.0053
24494W        W41341   3.616   2.245   5.388 -0.1181 -0.0756  0.2420
24495W        W41342  11.965  12.718  11.631  0.1405 -0.2081 -0.0437
24496W        W41343  11.738  16.832   2.001  0.0807 -0.0537  0.1227
24497W        W41344  16.036  13.735   2.319 -0.0504 -0.0979  0.1625
24498W        W41345   6.897  13.527  12.061  0.0328 -0.2205 -0.2080
24499W        W41346  11.614   9.624   1.563 -0.0183  0.0468  0.0620
24500W        W41347   1.819   8.267   0.882  0.0259 -0.0957  0.1787
24501W        W41348  11.426   7.288   4.951 -0.1686 -0.1193  0.1510
24502W        W41349  15.589  16.845  15.358 -0.0421 -0.0630 -0.0266
24503W        W41350   9.692  15.529   0.764  0.0856  0.2002 -0.2857
24504W        W41351   8.203   5.058  15.520  0.0554  0.2369 -0.3085
24505W        W41352  18.358  12.732   4.124  0.1304  0.0579 -0.2994
24506W        W41353   7.021  16.296  11.010  0.0709 -0.0824  0.0023
24507W        W41354  15.314   0.946   3.989 -0.2096 -0.1289 -0.0245
24508W        W41355   3.730  17.922   4.887  0.0294 -0.3365  0.3956
24509W        W41356   5.295   8.978   1.320  0.0691 -0.2853 -0.1886
24510W        W41357  11.143  12.004   0.677  0.0576  0.1635  0.0195
24511W        W41358  10.874   0.039   0.149 -0.2641  0.2510  0.1061
24512W        W41359  18.786   6.141  13.242  0.2480  0.3187 -0.3133
24513W        W41360   4.710  15.865   3.699 -0.0386 -0.3211  0.1632
24514W        W41361   5.781   0.988  12.647 -0.1416 -0.0640  0.1875
24515W        W41362  14.428  17.573  12.120  0.3725 -0.0013 -0.1453
24516W        W41363  12.319   9.307   2.770 -0.2814  0.1959  0.3592
24517W        W41364  17.781   5.001   1.715  0.1564 -0.1064  0.0472
24518W        W41365   4.486   2.189   4.486  0.1033 -0.0320 -0.4687
24519W        W41366  16.022   3.501   5.610 -0.1099  0.0362  0.1907
24520W        W41367  17.666  14.828  15.057  0.4557  0.2807 -0.0963
24521W        W41368   3.205  12.336   0.437  0.3139 -0.0768  0.1574
24522W        W41369  14.679   9.570  12.649  0.2747  0.0254  0.3074
24523W        W41370   2.000  16.661  14.511  0.1480 -0.1212  0.0027
24524W        W41371   8.618  11.171   0.521  0.2426 -0.1020  0.0803
24525W        W41372  18.161  16.571   3.579 -0.2807 -0.1481  0.1035
24526W        W41373  16.752  16.987  12.692 -0.1753  0.1411 -0.0999
24527W        W41374   4.206  17.099   2.867 -0.3408  0.0036  0.0363
24528W        W41375  12.715   1.927  14.135  0.0992  0.0061  0.1460
24529W        W41376  11.957  17.126  15.591 -0.0235  0.2496 -0.3040
24530W        W41377  15.065   7.131   2.472  0.2115  0.0184 -0.1456
24531W        W41378   1.371   6.891   0.326  0.2428 -0.1568 -0.4486
24532W        W41379  12.425   1.800   3.937 -0.0478  0.2907  0.0903
24533W        W41380  13.707   3.878  13.963 -0.0613 -0.0124  0.1579
24534W        W41381   9.889  16.468   3.222  0.1420  0.4079  0.1369
24535W        W41382   9.395  15.309  13.378 -0.1706  0.0367  0.3601
24536W        W41383   0.015  14.246   0.561  0.1426  0.1514 -0.5853
24537W        W41384   9.909   8.164  14.591 -0.0647 -0.0099 -0.0899
24538W        W41385  13.587   8.075   4.946 -0.1523 -0.0652  0.0915
24539W        W41386   1.029  14.883  11.532  0.2488 -0.2699 -0.2132
24540W        W41387  11.621  14.577  12.318  0.4314 -0.0427 -0.0699
24541W        W41388   1.662  14.921  12.629  0.0914  0.1873 -0.0051
24542W        W41389   4.056  15.514  15.085 -0.2401 -0.2285 -0.0983
24543W        W41390  11.942  18.551  14.106  0.2474  0.0961  0.1730
24544W        W41391   8.027  11.069   4.391  0.2345  0.0427  0.1793
24545W        W41392  18.753   0.690   4.232 -0.0275  0.2784  0.0814
24546W        W41393  12.478   8.414  15.434  0.1249 -0.2488  0.1497
24547W        W41394   5.867  11.128   3.474 -0.0201  0.0453  0.3132
24548W        W41395  18.099  13.216   4.238 -0.2560  0.0352  0.3462
24549W        W41396   7.344   7.315   0.122  0.1683 -0.0905 -0.0905
24550W        W41397   4.301  17.611  11.157  0.0592  0.2859  0.2040
24551W        W41398   5.320  18.823   5.014  0.0682  0.1275 -0.4901
24552W        W41399   9.117   1.509  15.749  0.3625  0.1586  0.3253
24553W        W41400   0.389   1.187   1.763  0.0703  0.1881 -0.0029
24554W        W41401  16.917   3.716   0.306 -0.2909  0.0063  0.3341
24555W        W41402   3.942  18.459   4.263 -0.0952 -0.1087 -0.0631
24556W        W41403   0.535  16.084  15.074 -0.2017 -0.1727  0.0218
24557W        W41404  18.738   7.383  15.492 -0.2143 -0.0594 -0.0121
24558W        W41405   5.859   5.561  11.394  0.1195 -0.1416 -0.0534
24559W        W41406   4.178  10.928  15.757  0.0093 -0.0513 -0.1239
24560W        W41407  16.764   7.743  14.840 -0.0426  0.2035  0.1793
24561W        W41408   1.612   2.366  11.605  0.0443 -0.0628 -0.1104
24562W        W41409  16.164   9.464   5.731  0.2607 -0.3095  0.0241
24563W        W41410  14.834  18.010  11.116  0.0318  0.0523 -0.0000
24564W        W41411   5.714   5.977   0.933  0.0273 -0.3348  0.2364
24565W        W41412   7.322  16.698   0.748  0.0518 -0.1091 -0.1689
24566W        W41413  10.900  13.129   0.966 -0.3876  0.0214 -0.0739
24567W        W41414  11.943  15.584   5.051 -0.1693  0.0230 -0.2389
24568W        W41415  13.256   6.331   2.058 -0.2492 -0.2032  0.1930
24569W        W41416   7.044   0.488   3.882  0.0408  0.2851 -0.0522
24570W        W41417  15.040  17.799   2.149  0.0440 -0.1022 -0.2241
24571W        W41418   8.429   8.062   0.517  0.1063  0.0879 -0.0729
24572W        W41419   2.981  14.337  10.769  0.0511  0.0707 -0.0267
24573W        W41420   9.949   6.600   1.192  0.0533  0.1646 -0.2475
24574W        W41421  13.973   2.398  15.572 -0.1398  0.1958 -0.1084
24575W        W41422  12.499  12.960  13.777  0.3438 -0.1744  0.1438
24576W        W41423   5.028  15.811   1.605  0.1758 -0.0723  0.2242
24577W        W41424  11.911  11.657   0.598  0.1827  0.1262 -0.1496
24578W        W41425   6.134   2.017   1.792 -0.2076  0.1225  0.1217
24579W        W41426   5.851  12.884   5.131  0.1602 -0.0014  0.1780
24580W        W41427   5.222  13.351   1.352  0.1603 -0.2119  0.2096
24581W        W41428  15.720  14.155  13.301  0.1621 -0.0132  0.6052
24582W        W41429  12.985  14.183   3.286  0.0320  0.4155  0.2641
24583W        W41430   8.922   6.242   1.462  0.0948 -0.0913 -0.1170
24584W        W41431   4.102   2.986   3.444  0.1577 -0.2248  0.1131
24585W        W41432  15.709   3.089   0.521 -0.2432  0.1623 -0.2102
24586W        W41433  14.094  15.804   2.940  0.3411  0.0089 -0.3505
24587W        W41434  15.440   3.512  12.372  0.2206  0.3849 -0.2530
24588W        W41435   9.803  15.905  11.684  0.1284  0.2432 -0.2158
24589W        W41436  12.303   0.171   0.040  0.0742 -0.0748  0.1125
24590W        W41437   5.695   7.771  11.055  0.0261  0.1473 -0.1385
24591W        W41438   2.633   2.777  11.597 -0.0304 -0.0425  0.1070
24592W        W41439  13.012   4.090  13.443  0.2692  0.0053 -0.4532
24593W        W41440   9.248   7.603  12.580 -0.1213 -0.2149  0.0184
24594W        W41441  13.124  10.965   4.132 -0.2140 -0.2735 -0.1755
24595W        W41442   7.174  16.286  14.932  0.2849  0.0673 -0.0472
24596W        W41443   8.628  13.012  12.946  0.3275  0.5048  0.2084
24597W        W41444  13.225  14.989   2.987  0.2543 -0.1995  0.1085
24598W        W41445   9.380  10.379  13.880  0.1247  0.1939 -0.2721
24599W        W41446   7.955   0.003  14.526  0.0815 -0.0880  0.1669
24600W        W41447   3.761   9.838  15.484  0.1280 -0.2875  0.1932
24601W        W41448   4.124  16.352  12.891 -0.2002 -0.0798  0.0946
24602W        W41449  14.140   3.653   0.107 -0.0082  0.0844  0.1181
24603W        W41450  17.794  14.017   3.786  0.2238 -0.2792 -0.2332
24604W        W41451   4.980   2.563   0.581  0.0155 -0.0479  0.2392
24605W        W41452   2.943   9.901  12.434  0.0354 -0.1271  0.0394
24606W        W41453  12.802  17.645  14.526 -0.0218  0.0766 -0.2545
24607W        W41454   2.257  13.509  13.392 -0.2375 -0.0748  0.1205
24608W        W41455   9.496   5.350  12.996  0.1299 -0.0007  0.2769
24609W        W41456  17.621  18.462   2.768  0.2583  0.4049  0.0495
24610W        W41457   8.514   9.614   2.584 -0.1240 -0.0179  0.0093
24611W        W41458  12.337   8.912  15.719  0.0439  0.0814  0.1638
24612W        W41459   2.656   5.072  13.031 -0.3092 -0.0786 -0.1304
24613W        W41460   4.650   8.223   3.294 -0.2218 -0.2162 -0.1488
24614W        W41461  13.764   8.553   0.123 -0.4925 -0.0589 -0.0260
24615W        W41462  13.082   9.287  11.365 -0.0208 -0.0775  0.0321
24616W        W41463   7.687  14.283  13.845  0.0889 -0.1100  0.0810
24617W        W41464   6.871  18.731   2.286  0.1834  0.0090  0.2382
24618W        W41465   5.364  11.571  14.336  0.1586  0.1233 -0.0475
24619W        W41466   6.957  15.791   1.083  0.2731  0.1224 -0.2010
24620W        W41467  11.924  13.094   2.837 -0.1248 -0.2877  0.0170
24621W        W41468  10.879  14.878  14.185  0.0245  0.2855 -0.0159
24622W        W41469   4.258   1.360   2.173 -0.3170 -0.0918 -0.1845
24623W        W41470   2.017   5.353  13.355 -0.3453  0.3503 -0.2421
24624W        W41471   8.421   2.103   0.035  0.1280 -0.1947  0.0651
24625W        W41472   8.235  15.237   1.634 -0.2084  0.1177  0.1151
24626W        W41473  16.159  15.149   4.814  0.0560 -0.3534 -0.1892
24627W        W41474  11.439  12.241  15.124 -0.6295 -0.2162  0.2248
24628W        W41475   9.911  15.274  11.515 -0.3749 -0.0222  0.0852
24629W        W41476   5.790  13.271   1.529 -0.2803  0.1234 -0.4261
24630W        W41477   7.277   0.939  14.005 -0.3984  0.1441 -0.0331
24631W        W41478   9.924   0.105  11.110  0.1029 -0.1295  0.2156
24632W        W41479  11.985   8.545  15.629 -0.4612  0.3595 -0.0535
24633W        W41480   6.019  12.155  13.789 -0.1003  0.0466  0.0889
24634W        W41481  17.022   6.014   2.807 -0.0600  0.3554  0.0662
24635W        W41482  16.495   7.565  13.343 -0.1682 -0.1967  0.1468
24636W        W41483   7.269  12.326  11.356 -0.1605  0.0750  0.1227
24637W        W41484  16.426  15.344  12.877  0.0910 -0.0990 -0.0379
24638W        W41485   9.216   5.510  11.128 -0.0424  0.1039 -0.1241
24639W        W41486  10.872   0.886   2.934  0.1013  0.0187 -0.0404
24640W        W41487  11.066  12.870   3.455  0.0679 -0.3857  0.0874
24641W        W41488  12.630   8.176   2.884 -0.0814 -0.0976  0.1648
24642W        W41489  17.491   9.909   5.179 -0.0318  0.0500 -0.0244
24643W        W41490  14.896  11.447   3.180  0.2005  0.2119 -0.2559
24644W        W41491   1.324   4.105   2.683  0.1896 -0.0211 -0.2182
24645W        W41492  13.070   3.944   4.695 -0.1068 -0.0608 -0.0849
24646W        W41493   5.313  14.574  15.648  0.1495 -0.0535 -0.0284
24647W        W41494   1.462   2.464   4.833  0.2089  0.0413  0.1202
24648W        W41495  16.858   5.013   3.498 -0.0560  0.0470  0.1282
24649W        W41496  15.578   5.395   4.747 -0.2182  0.2088 -0.1791
24650W        W41497  16.973  17.487   2.063 -0.1507 -0.1419 -0.2687
24651W        W41498  13.677  17.772  14.429  0.2428 -0.0258 -0.1634
24652W        W41499   5.692   0.005   1.984  0.2548 -0.0470 -0.1383
24653W        W41500  17.851   4.392   4.194 -0.0298 -0.3406 -0.4687
24654W        W41501   8.408   8.585   2.989 -0.1208  0.0144  0.2484
24655W        W41502   5.310   6.857   4.158 -0.1636  0.2591  0.2090
24656W        W41503   5.849   3.272   4.831 -0.5911  0.0236 -0.1436
24657W        W41504   0.746  10.094  13.657 -0.0642 -0.1909  0.3001
24658W        W41505   9.543  16.424  14.680  0.1575 -0.3483 -0.0843
24659W        W41506   6.084   4.489   3.373  0.3878  0.3126  0.1400
24660W        W41507   0.868  18.250  14.838 -0.0327  0.2020  0.2042
24661W        W41508  14.200   4.358   3.696 -0.4128 -0.0737  0.3181
24662W        W41509   0.101  14.670  15.040 -0.1653  0.0593 -0.1458
24663W        W41510   5.656  17.862   1.061  0.0229 -0.2800  0.1626
24664W        W41511  13.062  17.464   5.257 -0.0014  0.0515 -0.0471
24665W        W41512   7.856  10.359  14.338 -0.2330 -0.4999 -0.0872
24666W        W41513  10.714  14.666   2.678  0.2547 -0.0814  0.2471
24667W        W41514  10.458  15.919  12.105 -0.0039  0.2985  0.1010
24668W        W41515   8.051   0.504   2.699  0.1603 -0.0668 -0.2383
24669W        W41516   1.943  16.255  14.027 -0.0066  0.2137  0.2798
24670W        W41517   8.499  12.224   0.286 -0.0053 -0.1596  0.1629
24671W        W41518  18.233  10.142   5.934 -0.0219 -0.0545  0.0645
24672W        W41519  16.823   3.447   6.316 -0.4171  0.3866  0.0018
24673W        W41520   4.116   1.881  13.311 -0.3034 -0.3973  0.2837
24674W        W41521   6.397   5.314   0.127 -0.3430 -0.4122  0.4539
24675W        W41522   2.336   9.300  12.934  0.1000  0.0910  0.1188
24676W        W41523   8.163  16.292  12.627  0.2461 -0.0686  0.0435
24677W        W41524  17.172  13.418  10.972  0.1294 -0.1631 -0.0181
24678W        W41525   8.991   7.052  15.196 -0.2602  0.1612 -0.0403
24679W        W41526   4.449   5.973   5.892  0.0878  0.0258 -0.0421
24680W        W41527  13.091   5.174  11.381  0.2189  0.0575 -0.3657
24681W        W41528   8.426   1.848   5.406  0.3091  0.0143  0.1659
24682W        W41529   8.653  13.754  15.579  0.0743  0.1487  0.0455
24683W        W41530   1.152   2.745   1.870 -0.2717  0.2635  0.0455
24684W        W41531   2.204  16.330  15.378 -0.2301  0.1528  0.1193
24685W        W41532  13.336   0.656   3.601  0.3398 -0.4356 -0.0913
24686W        W41533  10.290  12.014  15.522  0.1519  0.0615  0.0747
24687W        W41534   0.288  12.212  15.481 -0.2318  0.2816  0.0108
24688W        W41535   2.235   1.327  12.215  0.0724  0.1980 -0.0776
24689W        W41536   3.857   8.603   0.563  0.2527 -0.1945 -0.0664
24690W        W41537  10.720   1.960  13.755  0.2534 -0.3170 -0.1467
24691W        W41538  12.948  16.049  14.512 -0.1696 -0.0519  0.2174
24692W        W41539   8.523   9.951  13.927 -0.0344 -0.0220 -0.0485
24693W        W41540   6.110  15.852   3.173 -0.3305  0.0507  0.3837
24694W        W41541  14.488   2.332   0.890 -0.3005  0.0100 -0.0574
24695W        W41542   0.630   8.169  11.353 -0.0330 -0.0642 -0.3762
24696W        W41543   1.815  11.863  11.945 -0.1649  0.2875  0.2267
24697W        W41544  16.430   3.901  13.271 -0.0274  0.3122  0.2353
24698W        W41545   5.063  11.622   3.189  0.1061 -0.1403 -0.1166
24699W        W41546  17.120   0.768  14.151  0.0365  0.2435 -0.0334
24700W        W41547   0.681  16.897   3.913  0.0998 -0.3454  0.3558
24701W        W41548  11.671   8.127  11.368  0.0908 -0.2451  0.0176
24702W        W41549   1.779  12.652   2.877 -0.3560  0.0449 -0.3087
24703W        W41550   7.676   8.313   4.171 -0.0033 -0.0106  0.1238
24704W        W41551  14.689   5.791   5.435  0.1294 -0.1001 -0.4775
24705W        W41552  14.217   8.777   1.990 -0.0153  0.1324 -0.0615
24706W        W41553   9.526   8.967   0.296  0.2373  0.2557 -0.3332
24707W        W41554   5.988  16.675  15.637  0.0486 -0.0541 -0.0775
24708W        W41555   4.143  18.808   0.227 -0.3155  0.0492 -0.0908
24709W        W41556  11.665  18.490   0.620 -0.0572 -0.0488  0.2352
24710W        W41557  18.346  18.863   2.593  0.0743  0.0576 -0.2337
24711W        W41558  14.872  15.539   2.901  0.1828 -0.4129  0.1663
24712W        W41559   4.818  15.688  12.799  0.0864  0.5292  0.1969
24713W        W41560   1.191   5.628  14.303  0.1297  0.1040  0.0794
24714W        W41561  16.181   5.408  13.531  0.0026  0.0264  0.1276
24715W        W41562  14.686  13.995   2.031  0.3559 -0.0762 -0.0258
24716W        W41563  12.095  14.005   3.298  0.1401 -0.0609  0.0815
24717W        W41564   3.187   3.876  15.569  0.0684 -0.0066  0.1154
24718W        W41565  15.027  11.171   4.426  0.2823  0.0341 -0.1755
24719W        W41566   0.916   1.775  14.792 -0.1980 -0.1516 -0.0569
24720W        W41567  15.965   1.602   0.667  0.1865 -0.0810  0.0472
24721W        W41568  16.561  14.668  13.235 -0.4182 -0.0524 -0.1122
24722W        W41569  13.410   2.423   1.379  0.1820 -0.0661  0.0351
24723W        W41570   3.727  18.553  14.206 -0.0394  0.1423 -0.4289
24724W        W41571   9.761   2.964  13.086  0.1470 -0.0822  0.1729
24725W        W41572   7.420  12.061  14.306 -0.2207  0.1748  0.2551
24726W        W41573  10.838   0.213   2.255  0.1659 -0.0317 -0.0427
24727W        W41574   9.655   4.909  11.724 -0.0401 -0.1929  0.0103
24728W        W41575  14.715   4.158   4.506 -0.1698  0.0487  0.0957
24729W        W41576   3.592   5.148   4.125  0.0698  0.1202 -0.0032
24730W        W41577  18.415   4.042  14.414  0.4471  0.1028 -0.0699
24731W        W41578  15.721   9.777  13.710  0.1837 -0.0466 -0.1089
24732W        W41579  15.651  17.472   3.516  0.0844  0.1667  0.1215
24733W        W41580  14.500   8.726  12.079  0.1161  0.2191 -0.3384
24734W        W41581   3.379  13.868   4.859  0.0914 -0.2455 -0.1849
24735W        W41582   0.740  16.375  11.479  0.0063  0.1706  0.0420
24736W        W41583  17.746   4.019   5.157 -0.2516  0.3522 -0.1500
24737W        W41584   5.201   6.498  11.404  0.0596 -0.0096 -0.3865
24738W        W41585  13.626   6.329  15.413 -0.0739  0.1465 -0.1140
24739W        W41586  10.284   3.012  11.562  0.0457 -0.1166 -0.2777
24740W        W41587   1.717   3.354   5.021 -0.4408 -0.0075 -0.2264
24741W        W41588   4.405   6.802  14.307  0.1224  0.0906 -0.0848
24742W        W41589   3.666  17.275  15.402  0.0998 -0.1628 -0.2700
24743W        W41590   5.451  10.234   1.404  0.0265  0.3925 -0.1367
24744W        W41591   3.233  16.426   4.477 -0.5384  0.1565 -0.0461
24745W        W41592  11.032   9.455  15.359  0.0613 -0.2822  0.1184
24746W        W41593  13.426  17.822  12.938  0.1441 -0.0083  0.0673
24747W        W41594  15.493   0.886   2.589 -0.0553  0.2335 -0.3229
24748W        W41595  17.346  17.667   1.614  0.2327 -0.1811  0.1043
24749W        W41596   1.622   6.835  11.515  0.0266 -0.1678 -0.1886
24750W        W41597  10.785   2.912  13.487 -0.4465  0.1687 -0.0456
24751W        W41598  12.997   3.745  12.325 -0.0653  0.3185  0.1613
24752W        W41599  10.082  11.916   1.709  0.0756 -0.0983 -0.2650
24753W        W41600   8.534   1.551   3.090  0.1349 -0.0064  0.1180
24754W        W41601   9.482  13.292  15.481  0.1407 -0.0485 -0.1605
24755W        W41602  15.399  18.610   3.959  0.1018  0.0367  0.5474
24756W        W41603   6.252  15.451   4.236  0.2183  0.0672  0.1622
24757W        W41604   9.231  11.938   3.682  0.0548  0.3384  0.0526
24758W        W41605   8.174  14.173   3.836 -0.2511  0.4476  0.1144
24759W        W41606  12.688  18.165   2.570 -0.2128  0.1056 -0.4146
24760W        W41607  15.753  15.032   3.219 -0.1184  0.0231  0.0608
24761W        W41608  16.879   5.821  12.590  0.3486 -0.0541  0.2278
24762W        W41609   8.122  12.850   1.047 -0.0080 -0.2839  0.3012
24763W        W41610   6.654   7.999  11.130 -0.1484 -0.0914 -0.0442
24764W        W41611   7.689  11.848  15.100 -0.1519 -0.4095 -0.0347
24765W        W41612  16.543  15.593   5.621 -0.2296  0.0752 -0.0033
24766W        W41613  13.238   3.173  13.734 -0.0218  0.2748  0.0775
24767W        W41614   5.214   1.456   0.880  0.1571 -0.0561  0.2261
24768W        W41615   5.573   4.270  11.456 -0.0172  0.0276  0.0942
24769W        W41616  10.571   1.341   2.371 -0.1502 -0.2666  0.3223
24770W        W41617  10.495  13.322  11.096 -0.1088 -0.2908 -0.1049
24771W        W41618   2.396   3.681  11.350 -0.3370  0.0752  0.0992
24772W        W41619   1.911  17.311   0.993 -0.4668  0.0030 -0.0424
24773W        W41620   8.353  17.536   4.982  0.1157 -0.0482  0.3291
24774W        W41621  18.165  11.874  12.942  0.1170 -0.0082 -0.0387
24775W        W41622  14.988  17.407   3.007 -0.0986 -0.1389  0.1050
24776W        W41623  10.808   1.693   5.081  0.3217 -0.0367  0.1040
24777W        W41624  15.874   7.013   3.936 -0.0336  0.2465 -0.0032
24778W        W41625   5.201   9.863   3.163 -0.2431 -0.0564  0.0972
24779W        W41626  17.575  13.972  15.572  0.1590  0.3022  0.3837
24780W        W41627   3.297   4.861  14.340  0.0583 -0.0798  0.2409
24781W        W41628   6.968  14.944   1.822 -0.1633 -0.2904 -0.1485
24782W        W41629   9.831   3.544   4.645 -0.2285  0.3076  0.1960
24783W        W41630   3.104  16.787   1.320 -0.0460 -0.4463 -0.0081
24784W        W41631  16.806  16.676  14.965 -0.0032 -0.1789 -0.1481
24785W        W41632   9.724  10.808   2.428  0.0008  0.0394  0.0784
24786W        W41633   1.379   2.112  14.056  0.1118  0.0993 -0.1280
24787W        W41634   9.086   0.865   1.715 -0.0518 -0.0442 -0.0056
24788W        W41635  18.269   4.408   0.463 -0.1553  0.0443  0.1675
24789W        W41636  14.035   3.233  13.649 -0.1632  0.2940 -0.2635
24790W        W41637  16.834   2.067   2.421  0.0160  0.0873 -0.1021
24791W        W41638  13.849  14.369  10.054  0.3335  0.0280 -0.5261
24792W        W41639  15.484   3.910   2.161  0.1919 -0.3083  0.1546
24793W        W41640  17.543   9.372  10.385 -0.1361 -0.0469 -0.4204
24794W        W41641  11.903  17.635  15.624  0.2206 -0.0059 -0.3746
24795W        W41642   8.062   8.263   4.443 -0.0886 -0.1420  0.0144
24796W        W41643   3.826   4.971   4.580 -0.1597  0.0637 -0.1334
24797W        W41644  14.372  13.586  12.729 -0.2929 -0.2387 -0.0482
24798W        W41645   7.810  14.275   3.363 -0.0728  0.0525  0.0684
24799W        W41646   8.336  17.511   2.434 -0.2391  0.3891 -0.2988
24800W        W41647  10.591   3.322  13.172 -0.2098  0.0047 -0.1967
24801W        W41648  10.878   2.652   0.499  0.0783 -0.0306 -0.2712
24802W        W41649  15.192   7.978  12.026  0.1457  0.2464 -0.1092
24803W        W41650  15.240  14.377  12.858 -0.2361 -0.0954 -0.1117
24804W        W41651  13.932  17.902   4.016 -0.4198 -0.1309  0.0892
24805W        W41652   2.374   8.244   2.260 -0.1132 -0.3533  0.3464
24806W        W41653   8.836   8.256  15.243  0.0679 -0.2597 -0.2093
24807W        W41654  10.057  15.844  13.519  0.3539 -0.0999  0.1572
24808W        W41655   4.695  13.733  11.176 -0.3234 -0.3058  0.3508
24809W        W41656   3.654   0.169   1.438 -0.2079  0.1385  0.0461
24810W        W41657  12.644   5.541   2.342  0.3757 -0.0362 -0.1767
24811W        W41658   7.033   4.691  13.612 -0.2196  0.1345  0.2896
24812W        W41659   4.641   9.401   4.980  0.1473 -0.2049 -0.0372
24813W        W41660  13.888   2.666  12.904  0.1074 -0.0632  0.0787
24814W        W41661   4.428  18.461   0.694 -0.4706  0.2167 -0.0077
24815W        W41662   6.314  16.541  12.758  0.1685 -0.1717  0.0526
24816W        W41663   9.425   7.284   3.519  0.3696  0.2973  0.1737
24817W        W41664  15.867   0.073  11.670 -0.0878  0.2353  0.1140
24818W        W41665   9.288   9.689  12.761  0.2661 -0.0609 -0.2725
24819W        W41666  14.305   6.682   5.406 -0.0551  0.0534 -0.1192
24820W        W41667  11.740   6.258  10.813  0.1059 -0.2076 -0.0750
24821W        W41668  11.765   0.930  14.799 -0.0860  0.1575 -0.0665
24822W        W41669  14.999   4.907   1.909 -0.1772  0.1521  0.1028
24823W        W41670  14.323   2.318   2.657  0.0849 -0.3714 -0.0293
24824W        W41671  10.713   9.758  15.042  0.4390  0.1785  0.2598
24825W        W41672   9.479   9.911  15.638 -0.3039 -0.0751 -0.4795
24826W        W41673  16.795  16.082  14.040  0.0412  0.1401  0.1707
24827W        W41674   3.114   9.812   3.139 -0.1765  0.2300 -0.0976
24828W        W41675   3.408  13.709  11.386 -0.0434  0.2798  0.0643
24829W        W41676   4.212   3.930  12.313 -0.0631 -0.0086  0.1352
24830W        W41677   8.710   4.761   2.602 -0.0850 -0.3328 -0.2159
24831W        W41678   3.477  18.002   0.553 -0.5221 -0.2496 -0.0601
24832W        W41679   9.971  15.898  10.750  0.0798  0.2547 -0.2775
24833W        W41680   2.604   9.750   3.331 -0.1676 -0.2318  0.4487
24834W        W41681   9.592  11.670   0.552 -0.0620  0.2720 -0.1953
24835W        W41682   8.016   9.121   3.821 -0.0340  0.1666 -0.0133
24836W        W41683  11.057  17.168   2.851 -0.0077 -0.0895 -0.0555
24837W        W41684  14.371   9.175  15.773  0.1160  0.0742  0.1033
24838W        W41685   7.891  17.536   1.016  0.1035  0.0846 -0.2805
24839W        W41686  14.109  16.201  11.899 -0.2818 -0.0092  0.2797
24840W        W41687   9.428   1.363   0.343  0.3618 -0.2082  0.3032
24841W        W41688  15.294   0.423  15.705 -0.2560 -0.1107  0.1869
24842W        W41689   7.751   9.528   0.279 -0.2630  0.1232 -0.2144
24843W        W41690  12.944   6.970  12.039  0.0919 -0.5103 -0.0227
24844W        W41691   1.091  14.009   5.357 -0.0803  0.1244 -0.1707
24845W        W41692   2.633   7.855   1.186  0.0549  0.0340 -0.0287
24846W        W41693  18.545  18.251  15.775  0.0218  0.3416 -0.0947
24847W        W41694   7.342   6.021  11.423  0.2760 -0.0050 -0.1660
24848W        W41695  14.742   3.975   2.901  0.2164  0.0577  0.1991
24849W        W41696  17.504  11.986   1.127 -0.1748 -0.5149 -0.0970
24850W        W41697   7.660  18.049   0.243 -0.0862  0.0489 -0.0684
24851W        W41698   2.486   1.635  15.479 -0.0080 -0.2206 -0.1128
24852W        W41699   3.271   4.342  14.564 -0.2693  0.1017 -0.1544
24853W        W41700   9.784   6.254  12.147 -0.1481  0.2352  0.2032
24854W        W41701  18.263  13.893   0.854  0.0265  0.0749  0.0059
24855W        W41702   3.989  14.844   3.516  0.1655  0.1914  0.1077
24856W        W41703  12.147   5.000   3.421 -0.0954 -0.0656 -0.0035
24857W        W41704   4.910   5.792  14.885 -0.4240  0.0244 -0.0502
24858W        W41705   3.485  17.443  12.143  0.4174  0.0360  0.0584
24859W        W41706   4.343  12.535  11.598 -0.0425  0.1604  0.1529
24860W        W41707  14.912   0.878   3.467 -0.1837  0.0030  0.2061
24861W        W41708  11.206   0.355   4.477 -0.2107 -0.0119 -0.0721
24862W        W41709   8.766   4.034   1.713 -0.0196  0.3890  0.3574
24863W        W41710  15.300  18.496   4.418 -0.2932 -0.3734  0.1239
24864W        W41711   1.568   4.674  15.487 -0.3614 -0.2708  0.0046
24865W        W41712   8.281   9.931   2.253 -0.1515  0.2433  0.1681
24866W        W41713  10.246   2.835  10.851 -0.2042  0.1228 -0.0446
24867W        W41714   1.813   9.362   3.239  0.3317  0.0842 -0.1839
24868W        W41715   8.942  18.043  11.542 -0.1336 -0.0780 -0.0807
24869W        W41716   8.786  10.280   9.766 -0.3473 -0.1841 -0.1629
24870W        W41717   6.933   9.619   0.889  0.0003  0.1040  0.0929
24871W        W41718   3.975   2.275  13.666 -0.0656  0.2240 -0.2615
24872W        W41719   1.084   4.221  14.478  0.0155  0.0800  0.0712
24873W        W41720   7.347  14.636  13.014  0.0406 -0.0806 -0.1510
24874W        W41721   1.887   4.055   3.565 -0.1974  0.0366 -0.1531
24875W        W41722  14.636   0.229   1.944  0.2080  0.2065  0.0274
24876W        W41723  15.369  12.230  14.654 -0.0733  0.1290  0.2420
24877W        W41724   0.803  10.727  11.409 -0.2752  0.1853  0.0589
24878W        W41725  18.788   0.684  12.029 -0.0082 -0.2086 -0.1856
24879W        W41726  11.614   7.541   0.909 -0.0269 -0.4198  0.1142
24880W        W41727   7.454   1.792  13.987  0.1775  0.1336 -0.0102
24881W        W41728  17.167   3.430   2.426 -0.2105 -0.3400 -0.1426
24882W        W41729  17.174  12.386   4.428 -0.1980  0.1643 -0.1676
24883W        W41730  10.628   1.653  15.697  0.0510 -0.1317 -0.0749
24884W        W41731   1.918  11.338  11.740 -0.0559  0.0640  0.1425
24885W        W41732   0.955  17.715   2.206  0.2967  0.1809  0.2006
24886W        W41733   2.474   9.011   2.772  0.1513  0.0334 -0.1132
24887W        W41734   1.562   6.025  11.693  0.1222 -0.2869 -0.0712
24888W        W41735   2.114  18.634  11.487 -0.0841 -0.0984  0.1615
24889W        W41736  12.028  13.174  11.948 -0.3258  0.1003  0.0127
24890W        W41737  15.552   1.342   2.369  0.0465  0.0622 -0.0040
24891W        W41738   1.482   0.074  14.599 -0.2368  0.0722  0.0405
24892W        W41739  18.211  16.979  13.889  0.2591  0.1546 -0.1742
24893W        W41740  16.807  18.258  13.121  0.0825 -0.2042  0.1817
24894W        W41741   8.794  16.880   3.319 -0.4016 -0.0042  0.2456
24895W        W41742  15.046  17.642  15.110 -0.0141  0.0085  0.1485
24896W        W41743   7.417  14.389  14.915  0.3697  0.1162  0.0520
24897W        W41744  15.683   3.963  12.251 -0.0701 -0.0962  0.0456
24898W        W41745   3.418   6.431  12.720 -0.0048  0.0289  0.1463
24899W        W41746  10.975  15.039  12.764  0.0192 -0.0381  0.1147
24900W        W41747  17.216   0.321  11.374  0.1160  0.0414  0.1786
24901W        W41748  15.453  10.603   1.399 -0.0980  0.1481 -0.0410
24902W        W41749  13.165  13.100   2.215 -0.0965 -0.4042  0.3743
24903W        W41750   1.955  12.677  12.141  0.1921 -0.1646  0.1356
24904W        W41751  13.326   2.301  12.302 -0.5312  0.0813  0.0660
24905W        W41752  17.005   4.923   0.484  0.2079  0.1389  0.2630
24906W        W41753   5.246   6.247   5.255  0.1828  0.0486 -0.0419
24907W        W41754   6.022   0.811  14.020 -0.1082 -0.1324  0.1248
24908W        W41755   9.393   2.427   2.867  0.0426  0.0107 -0.1953
24909W        W41756   8.648  18.175   4.184 -0.1022  0.0847  0.0804
24910W        W41757  14.777  18.008   2.641 -0.0454  0.1421  0.1930
24911W        W41758  16.884   4.584  12.402 -0.3748  0.2590  0.1276
24912W        W41759   6.975   4.945  12.766  0.0836 -0.2223 -0.0522
24913W        W41760   0.687  13.679   3.040 -0.1083 -0.2348 -0.0563
24914W        W41761  12.518   1.823   2.417  0.0127 -0.0806 -0.1287
24915W        W41762  16.383   6.765   2.351  0.2892 -0.0689  0.0930
24916W        W41763  17.806   0.348   4.473 -0.2267 -0.3854  0.0291
24917W        W41764  13.239   2.874   4.970 -0.0817 -0.2791 -0.4624
24918W        W41765   6.323   1.292   4.169  0.0981 -0.1312  0.0154
24919W        W41766  13.352   6.530   2.988 -0.1963 -0.0186 -0.1398
24920W        W41767   7.559  16.655   0.268  0.1842 -0.1488 -0.1116
24921W        W41768  14.167   0.834   1.440  0.0524 -0.0190 -0.0645
24922W        W41769  18.396   8.875  13.535  0.1037 -0.2787  0.0938
24923W        W41770   3.016   1.422   3.387  0.0798  0.1010 -0.2565
24924W        W41771   6.900  15.508  11.284 -0.2119 -0.0926 -0.2470
24925W        W41772   2.604   9.618   0.954 -0.0615 -0.1088  0.1657
24926W        W41773   1.704  12.614  13.540  0.0447 -0.0357  0.1750
24927W        W41774  11.713  11.843  11.773 -0.0112  0.1358  0.3935
24928W        W41775  10.569  11.180  12.090  0.0566 -0.0209 -0.2441
24929W        W41776   3.645   2.718  13.573 -0.5710  0.1581 -0.1616
24930W        W41777   9.419  12.750  14.963 -0.1880  0.0823  0.1035
24931W        W41778  16.901  16.655  12.276  0.2842  0.1301 -0.3434
24932W        W41779   3.360  12.944  13.834 -0.4034  0.2523 -0.2386
24933W        W41780  11.962  10.772  13.153 -0.0022 -0.0299  0.4082
24934W        W41781  13.590  12.934  15.776 -0.0453  0.2944  0.2288
24935W        W41782   8.368   3.723   1.657 -0.1740  0.0656 -0.1797
24936W        W41783   0.739   3.200  12.807  0.0222 -0.2566 -0.0276
24937W        W41784  18.227  17.086   3.889 -0.0888  0.1168  0.0988
24938W        W41785  14.981  12.179   1.180  0.2104 -0.1855 -0.2397
24939W        W41786   9.477  14.305   5.219 -0.2155  0.2912 -0.1171
24940W        W41787   5.120  14.578  10.225  0.2280 -0.1864  0.1228
24941W        W41788  14.150  13.719   1.274 -0.0554  0.3824  0.2704
24942W        W41789   3.143  16.187   2.497 -0.0560  0.1585 -0.0384
24943W        W41790   9.217   4.422   1.148  0.2145 -0.1620 -0.0062
24944W        W41791   5.452   9.906   4.154 -0.3419 -0.0525 -0.0289
24945W        W41792   9.323  16.933   4.361  0.1079 -0.2326 -0.1850
24946W        W41793  15.271  15.974  12.372  0.0729  0.0976 -0.0334
24947W        W41794   6.250   4.282   4.113  0.1362 -0.2421 -0.2726
24948W        W41795   9.449  13.796  13.055  0.3041  0.0904 -0.1356
24949W        W41796   4.651   5.176  14.048 -0.0101 -0.1977 -0.1925
24950W        W41797  10.843   7.942   1.290 -0.2264  0.1159  0.2694
24951W        W41798  14.891   3.769   4.309  0.0500 -0.0753  0.2972
24952W        W41799  11.110   2.518  11.004  0.4007  0.1642  0.0571
24953W        W41800  12.617  11.158  11.270 -0.0075 -0.1474  0.1302
24954W        W41801  17.415  18.202   3.329  0.0427 -0.1659 -0.0631
24955W        W41802   0.122  13.124  13.063  0.0528 -0.0481 -0.0166
24956W        W41803   8.288  16.505  12.144 -0.0602 -0.1982  0.1334
24957W        W41804  17.470   9.959  13.175 -0.2366  0.0084  0.2021
24958W        W41805  10.369   8.963   4.478  0.0532  0.2458 -0.2034
24959W        W41806   4.269   6.642   2.127 -0.0658 -0.1657 -0.3669
24960W        W41807  12.082  15.886  13.068  0.1691 -0.2907  0.0761
24961W        W41808   6.296  10.655   5.450 -0.2073 -0.2107 -0.5045
24962W        W41809   5.642  17.718  11.559 -0.3120  0.2833 -0.3578
24963W        W41810   5.546   7.096  12.080  0.0424 -0.1803 -0.1288
24964W        W41811  11.795  18.181  15.640  0.0778 -0.2023 -0.0167
24965W        W41812   4.492  15.839   0.801 -0.0450 -0.1062 -0.2030
24966W        W41813   7.386  16.213   9.628  0.3457  0.1111  0.0232
24967W        W41814  14.810   5.439   4.371  0.0474  0.1978 -0.4626
24968W        W41815  14.714   6.243  13.888 -0.0435  0.1491  0.1350
24969W        W41816  10.557  13.330   0.566 -0.3492  0.1296  0.1319
24970W        W41817   7.692  13.702  13.429  0.0514  0.1346  0.1792
24971W        W41818  11.683   2.468  12.974 -0.0188 -0.3022  0.4567
24972W        W41819  11.808   9.411   2.799  0.0617 -0.1349 -0.0170
24973W        W41820  17.581   4.721   1.048  0.0206  0.1158 -0.1086
24974W        W41821  11.341  15.372  14.359 -0.1593  0.1006 -0.1274
24975W        W41822  11.759   7.798   2.916 -0.0817 -0.1234  0.1372
24976W        W41823   2.363   5.023   5.050  0.2428  0.1353 -0.0768
24977W        W41824   0.724   8.099  14.481 -0.0298 -0.1424 -0.2213
24978W        W41825  16.710   5.866   0.465 -0.2662  0.1840  0.3253
24979W        W41826   4.211   4.850  15.524 -0.1771  0.3504 -0.0824
24980W        W41827   8.252   8.075   5.629 -0.1205 -0.0315  0.0206
24981W        W41828   5.609  11.414  15.465 -0.0362  0.1428  0.1961
24982W        W41829   2.241   4.773  13.380  0.1030  0.0674 -0.0722
24983W        W41830  10.351   1.900   3.846 -0.5110 -0.0347  0.1700
24984W        W41831  10.556   5.076  11.510 -0.2114 -0.2490 -0.5181
24985W        W41832   9.116   8.780   2.520  0.0270  0.0018  0.0522
24986W        W41833  13.314   1.439  12.747  0.2541 -0.0673  0.3847
24987W        W41834   3.506  13.175  10.335  0.2241  0.1001  0.0893
24988W        W41835   4.174   1.299   4.652 -0.2271 -0.4836  0.0142
24989W        W41836   3.126  10.678   3.071  0.1604 -0.0858 -0.2537
24990W        W41837   8.715   9.346   3.815 -0.0218 -0.2628 -0.0039
24991W        W41838   9.863  14.927   2.163 -0.0496  0.2656  0.2661
24992W        W41839   1.710  14.342   4.966 -0.1969  0.1395  0.1853
24993W        W41840   6.754   3.476  13.340  0.2360  0.2855  0.0251
24994W        W41841   6.006  11.443   2.367  0.1059  0.0477 -0.1584
24995W        W41842  12.414   4.702   3.025  0.1899 -0.0375  0.1311
24996W        W41843  13.766  11.394   5.844 -0.1137 -0.2104  0.0861
24997W        W41844   1.134   5.012   4.871  0.1896  0.1543  0.1746
24998W        W41845  17.566  13.504  10.380 -0.3241  0.1734  0.1173
24999W        W41846  11.105  18.569   1.800 -0.0145  0.0916  0.1240
25000W        W41847  12.924   1.836  15.154  0.1244 -0.2238 -0.0170
25001W        W41848  16.547  16.872  14.529  0.0148  0.3620 -0.1812
25002W        W41849  11.460   4.547  11.298  0.1192  0.3559  0.0677
25003W        W41850  13.497   0.526  14.172 -0.0016 -0.0891 -0.1388
25004W        W41851  17.877  13.602  13.899  0.0628 -0.1836 -0.1827
25005W        W41852  10.132  16.912   0.173 -0.4013 -0.2122  0.3772
25006W        W41853  16.142  18.319  15.647 -0.1015  0.3910 -0.4097
25007W        W41854   1.342   1.023  11.379 -0.2461 -0.0605 -0.0739
25008W        W41855  12.972  17.602  10.792 -0.0392  0.0492 -0.1433
25009W        W41856   4.785  18.142  14.578  0.0338 -0.4105  0.2203
25010W        W41857   3.382   6.638   4.552 -0.1698  0.0498  0.1832
25011W        W41858   0.128  17.990  15.152 -0.4423  0.3240  0.1727
25012W        W41859  12.564  15.548   5.957  0.1263  0.2954  0.0538
25013W        W41860   3.693   2.947  12.650 -0.2839 -0.0326 -0.2208
25014W        W41861  17.192  17.674   1.142 -0.3151  0.3173  0.0003
25015W        W41862   0.269   7.401  12.423 -0.2987  0.1010 -0.0069
25016W        W41863  13.465   3.682   4.895  0.0342 -0.1990 -0.1670
25017W        W41864   9.373   7.181   0.119  0.0068 -0.2345 -0.0583
25018W        W41865   9.260  12.733  10.925 -0.2316  0.2317 -0.0563
25019W        W41866   7.159   6.006   5.078 -0.0449 -0.0718  0.1353
25020W        W41867  17.221  13.071   3.341  0.1376 -0.2240 -0.0351
25021W        W41868   8.311   0.308   1.284 -0.0881 -0.1244 -0.5258
25022W        W41869   7.576   4.782   5.382 -0.4991 -0.5237  0.0548
25023W        W41870  16.023  10.385  11.986 -0.0744 -0.2553  0.1252
25024W        W41871  17.489   4.613  12.290  0.0807 -0.3152  0.1629
25025W        W41872  12.579   0.831  13.195  0.1274  0.2182 -0.0492
25026W        W41873   2.747   1.133   5.192  0.0630 -0.0645  0.0147
25027W        W41874  14.095  13.024  14.372  0.0145  0.0200  0.1439
25028W        W41875   3.966   5.275   5.631 -0.0062  0.0153  0.0010
25029W        W41876   6.798  18.306   1.948 -0.4055  0.0529 -0.2893
25030W        W41877  18.752   0.921  14.261 -0.1068  0.2115 -0.3717
25031W        W41878  10.080   9.802  15.172 -0.3902  0.1250  0.1748
25032W        W41879   7.340   8.943  13.923 -0.3022  0.1609  0.2834
25033W        W41880  15.997   1.342  12.206 -0.0496 -0.2718 -0.3227
25034W        W41881   9.612  17.996  11.396  0.1574  0.0078  0.0266
25035W        W41882  13.956   2.176   4.832  0.4132  0.1437 -0.1263
25036W        W41883  16.334  13.920   1.362  0.0317 -0.0151 -0.1413
25037W        W41884   9.624  12.010  11.224 -0.3106 -0.0410  0.4042
25038W        W41885   7.199  12.695  15.574 -0.1213 -0.0606 -0.4183
25039W        W41886  16.977   3.067   4.339  0.2127 -0.0421  0.1287
25040W        W41887  15.865   3.892   1.682 -0.1506 -0.3032 -0.1809
25041W        W41888  14.902  16.617  11.874  0.2401  0.1886 -0.0347
25042W        W41889  11.094  15.816   4.124 -0.1448 -0.3726  0.0243
25043W        W41890  14.208   6.014  13.123 -0.2353 -0.0791 -0.0576
25044W        W41891   2.483   2.614  15.367  0.0943  0.2290 -0.0229
25045W        W41892  17.295   6.884  14.760  0.1739 -0.0118 -0.1249
25046W        W41893   0.494  17.251   0.239 -0.1053 -0.1781  0.0118
25047W        W41894  10.503  18.509   1.803  0.0666 -0.0395  0.0990
25048W        W41895  10.957  17.713   2.286  0.3038  0.1222 -0.0394
25049W        W41896  16.457   9.867  14.594 -0.3410  0.2961 -0.0160
25050W        W41897   4.477   6.763   4.805  0.0668  0.1425  0.1272
25051W        W41898  10.730   0.722   2.446 -0.0606  0.2600 -0.3127
25052W        W41899   3.546  15.201   4.019  0.0282 -0.1059 -0.0145
25053W        W41900   6.104   9.026   0.137 -0.2110  0.2749  0.3609
25054W        W41901  14.489  18.827  14.062 -0.0170 -0.1470  0.0036
25055W        W41902  17.259   4.803   4.278 -0.3604 -0.1223 -0.1466
25056W        W41903   5.790   1.775  11.873  0.0541  0.2995  0.0644
25057W        W41904  11.456  13.555  13.571  0.2258  0.0912  0.0746
25058W        W41905   2.342   2.336   1.089 -0.0439  0.2401  0.1977
25059W        W41906  11.291  12.648   4.974 -0.4328 -0.2086 -0.2668
25060W        W41907  17.526   8.565   1.627  0.1904  0.0763 -0.3700
25061W        W41908  16.899  16.357   1.336 -0.2148 -0.0430 -0.0546
25062W        W41909  15.246  18.275   1.402 -0.2014 -0.4299 -0.0962
25063W        W41910   8.404  11.692   5.009 -0.0865  0.2247  0.0027
25064W        W41911  17.403  18.237   4.014  0.3725 -0.1744 -0.0705
25065W        W41912   6.321   2.951   3.914 -0.0372  0.1003  0.1853
25066W        W41913   8.341  11.336  13.585  0.2077  0.0527  0.0417
25067W        W41914   3.657   5.003  12.904 -0.2217 -0.1714  0.0461
25068W        W41915   9.656  12.179  13.872  0.0329 -0.0239 -0.3301
25069W        W41916   2.190  11.616   5.236  0.1042  0.1152  0.0542
25070W        W41917   3.355  18.155  14.173  0.2124  0.2356 -0.1921
25071W        W41918  18.418  16.938  15.189 -0.0487  0.1019 -0.2757
25072W        W41919  14.931   1.409  13.569  0.1896  0.1962  0.1652
25073W        W41920  11.567  18.679  15.487 -0.1682  0.1453 -0.0592
25074W        W41921  16.223  17.790   0.030  0.2315  0.0169 -0.0561
25075W        W41922  14.732   1.926   1.230 -0.3756  0.3672  0.6412
25076W        W41923   2.913  11.479   2.916  0.5690 -0.1671 -0.0562
25077W        W41924  11.447  15.440  13.491 -0.2137  0.2012 -0.1387
25078W        W41925  17.956  12.980   1.078 -0.1816  0.4040 -0.1758
25079W        W41926   7.816  18.498   0.365  0.3012  0.0167 -0.0125
25080W        W41927  12.630  13.594  15.369 -0.0026  0.0728  0.1427
25081W        W41928   1.996   8.386   3.093 -0.1146 -0.1912 -0.0955
25082W        W41929  17.956   0.344   2.475  0.3885 -0.1337  0.1438
25083W        W41930   4.427   4.304  13.757 -0.0476 -0.2070  0.0841
25084W        W41931   1.569   3.586  11.819  0.1224  0.2507  0.1414
25085W        W41932   4.778   0.103  13.980  0.1146 -0.0654  0.1935
25086W        W41933  11.850   2.735   0.325 -0.2078  0.2642 -0.0939
25087W        W41934   3.091  17.987  10.793 -0.0274  0.0198 -0.3827
25088W        W41935  13.190  10.723   4.842  0.4156 -0.1124  0.2281
25089W        W41936   0.120  11.524  15.584  0.1124 -0.1335 -0.0679
25090W        W41937   8.763  15.605   3.786 -0.0418 -0.1483  0.1952
25091W        W41938   1.323  18.536   4.030 -0.3162 -0.2278  0.2059
25092W        W41939   3.201   4.865   1.268  0.1380  0.0945  0.3284
25093W        W41940  12.767  14.686  13.373 -0.3170 -0.1938 -0.1203
25094W        W41941  11.838  14.505  11.912  0.1630  0.2719  0.3137
25095W        W41942   2.761   5.314   5.264  0.0692  0.2176 -0.2137
25096W        W41943   7.656   0.168  13.599 -0.3091 -0.0380 -0.0624
25097W        W41944  17.324   6.098   4.617 -0.3528 -0.2233 -0.0377
25098W        W41945   6.414  13.465  12.100 -0.0789 -0.1177  0.1002
25099W        W41946   0.820  10.840   2.875  0.3353 -0.2392  0.1009
25100W        W41947  15.570   4.373   1.509 -0.0280 -0.2801  0.2955
25101W        W41948   2.618   5.656  11.246  0.1212  0.0045 -0.2750
25102W        W41949   9.250   9.161  12.995  0.0406 -0.2237  0.5646
25103W        W41950   4.055  12.844   0.956 -0.1417 -0.0252  0.0650
25104W        W41951  18.450  18.165   4.397  0.3694 -0.0861 -0.0840
25105W        W41952   2.778   0.410  13.272 -0.0816  0.0215  0.0297
25106W        W41953   0.411   3.693  13.254 -0.0831 -0.3859  0.1602
25107W        W41954  15.965  13.312   4.751  0.1199 -0.1410 -0.1484
25108W        W41955  18.165   5.350   2.348  0.0633 -0.0702  0.0520
25109W        W41956  15.656   3.696  14.232 -0.1578 -0.0554  0.1220
25110W        W41957  12.928  15.198  14.164  0.3911  0.0187 -0.1233
25111W        W41958   8.679   7.100   1.274 -0.0517  0.0566  0.1209
25112W        W41959   2.026  18.556   4.088  0.2963  0.1947  0.2990
25113W        W41960  16.065  18.648  13.144  0.0156  0.1915  0.1454
25114W        W41961   4.714  18.111   2.024  0.4323  0.0534 -0.1182
25115W        W41962   4.559  13.481  12.111 -0.6933 -0.0931  0.1759
25116W        W41963   9.438  14.457  12.442 -0.1609  0.0526  0.2872
25117W        W41964   6.545  17.830  11.565  0.2337 -0.1822  0.0271
25118W        W41965   8.874  13.233  14.434  0.0807  0.4050 -0.0105
25119W        W41966  13.184   3.300   4.700 -0.1082  0.2077  0.0483
25120W        W41967  12.456  16.570   5.554 -0.2502 -0.0153 -0.1077
25121W        W41968  11.852   6.321   0.062  0.0745 -0.0131  0.4929
25122W        W41969   8.392   7.615   2.742 -0.1685  0.0782  0.3539
25123W        W41970  12.880   5.372   2.948  0.0557  0.2962  0.0540
25124W        W41971  10.418  14.131   1.273  0.4622 -0.0148 -0.2034
25125W        W41972  11.851   6.334  13.205 -0.2589 -0.0512  0.1823
25126W        W41973  11.610  16.107  15.759 -0.2427  0.0607 -0.1731
25127W        W41974   0.191  14.652   2.392  0.4452  0.0995  0.2873
25128W        W41975   0.771   4.092  13.110  0.0106 -0.1530  0.0079
25129W        W41976   7.636   2.200  14.667 -0.1108 -0.2098  0.1447
25130W        W41977   6.324   0.351   0.703  0.0271  0.0465 -0.0586
25131W        W41978  16.297   5.505  11.848 -0.1240 -0.0406  0.2928
25132W        W41979  16.624   6.675   4.589 -0.1120  0.0956  0.0308
25133W        W41980  11.682  17.558  12.315  0.1425 -0.1603  0.0944
25134W        W41981  15.660  11.039  15.076 -0.1457  0.0564  0.1432
25135W        W41982   6.422   5.336  14.863 -0.2153  0.1781 -0.0612
25136W        W41983  10.232   5.468  14.766  0.1774  0.0602  0.0570
25137W        W41984  16.584  18.305   2.965  0.1603  0.0554  0.1350
25138W        W41985   6.103   1.529   2.010  0.2170  0.1171 -0.0527
25139W        W41986   5.572  18.372   4.613  0.0957  0.0210 -0.2881
25140W        W41987   4.770  11.652  13.148  0.0208 -0.1684 -0.3448
25141W        W41988  12.130   3.813   2.680  0.0398  0.0580 -0.1619
25142W        W41989   4.116  15.589  11.512 -0.1526  0.3089  0.0049
25143W        W41990   6.889  12.655  11.218  0.0827 -0.4444 -0.0445
25144W        W41991   8.816  13.558  10.592  0.1676 -0.0162 -0.0820
25145W        W41992   5.492   9.973   0.929  0.0522  0.3175  0.0047
25146W        W41993   7.947   7.848   5.298  0.3272 -0.1488 -0.4123
25147W        W41994   3.617   6.347  11.234  0.1603  0.0242  0.2931
25148W        W41995  11.180  10.892  14.891  0.0009 -0.0968 -0.1363
25149W        W41996  10.930   6.891  15.540 -0.0297  0.1359 -0.1125
25150W        W41997  15.859  16.718   2.029  0.2935  0.2394 -0.0475
25151W        W41998  15.895  15.232  12.986 -0.1321  0.2019  0.0407
25152W        W41999  12.787   1.452   0.461 -0.2547 -0.4533 -0.3779
25153W        W42000  17.261   5.414   6.526  0.1996  0.0407 -0.1791
25154W        W42001   1.707  18.028  11.255  0.3708  0.1498 -0.0570
25155W        W42002   2.996   1.623  15.530 -0.1339 -0.1203 -0.2039
25156W        W42003  17.265  15.530   4.094 -0.1944  0.0124  0.0492
25157W        W42004  16.768   7.564   2.395 -0.2503 -0.1867  0.1137
25158W        W42005   8.826  14.699  14.444  0.0555 -0.1506 -0.1346
25159W        W42006   2.277   0.612  13.110 -0.0497  0.0972  0.1074
25160W        W42007  17.908  17.232  13.155 -0.2288  0.0589  0.0358
25161W        W42008   8.489  14.717  11.001 -0.1020  0.4449 -0.4509
25162W        W42009  10.982  13.098   4.947 -0.2074  0.2393 -0.0876
25163W        W42010  17.887  10.344  14.522 -0.0104 -0.1944  0.0105
25164W        W42011   6.903   3.542  12.188  0.0419  0.1709 -0.0058
25165W        W42012  12.788  10.192   1.132  0.0064  0.2407  0.2069
25166W        W42013  12.938  10.748  15.133 -0.1321 -0.4124 -0.0587
25167W        W42014   1.622  16.332   0.408  0.0594  0.2248  0.0849
25168W        W42015   2.346   3.762   3.747  0.0982  0.1460  0.3123
25169W        W42016  16.907  15.471  15.534 -0.1249  0.0960 -0.1171
25170W        W42017  13.427  18.462   4.710 -0.3332 -0.0069  0.1900
25171W        W42018   1.236   1.564   4.646  0.2712  0.3814 -0.2178
25172W        W42019  12.300   9.438   0.223  0.0544  0.4002  0.2378
25173W        W42020   8.189   1.753   4.524 -0.0078 -0.0998 -0.1678
25174W        W42021  10.432  15.224   3.103 -0.3241  0.2680  0.0430
25175W        W42022   8.961   2.448   1.178 -0.0241 -0.3234  0.2952
25176W        W42023  16.616   3.901   3.700  0.0373 -0.2461 -0.4412
25177W        W42024   3.175  18.138   4.183  0.0166  0.0324  0.2955
25178W        W42025  11.386  16.157  13.742  0.0583  0.1115  0.3233
25179W        W42026  17.445   8.024  12.188 -0.1876  0.1762  0.2377
25180W        W42027   5.188  11.938  13.991 -0.0233  0.0075 -0.3814
25181W        W42028  17.480  15.635  11.426  0.2407  0.2431 -0.2097
25182W        W42029   9.422  13.055  10.090 -0.0992  0.0180 -0.3615
25183W        W42030   2.640   2.873   4.349  0.0466 -0.0238 -0.0419
25184W        W42031   6.829   2.346   4.415  0.1165  0.0336  0.1474
25185W        W42032  18.452   6.536  11.511 -0.1987  0.1941  0.1416
25186W        W42033   8.313  10.379   3.689  0.0535  0.1206  0.1458
25187W        W42034   3.744   1.278  15.389  0.3437 -0.1255 -0.2391
25188W        W42035  12.631   7.199   1.233 -0.0267 -0.0330  0.2591
25189W        W42036  11.661  17.886  13.357 -0.1848  0.1178 -0.2554
25190W        W42037  10.996  13.954   4.386 -0.3411  0.1229 -0.3857
25191W        W42038  10.246   5.814   4.394  0.0795  0.0513  0.0928
25192W        W42039  13.325   9.519  15.583 -0.0526  0.1180 -0.1848
25193W        W42040  18.809  10.293  15.503 -0.0131  0.3312 -0.1924
25194W        W42041  12.288   7.577   1.323  0.1266  0.2814  0.3244
25195W        W42042   9.270   7.587   1.002  0.0365 -0.2433 -0.2302
25196W        W42043  14.640  13.496   2.785  0.0551  0.2181 -0.1136
25197W        W42044  11.972   3.033  11.725  0.0437  0.1840 -0.3906
25198W        W42045  10.060  15.483  12.998  0.1271  0.0582 -0.1099
25199W        W42046   6.624  17.700  13.591 -0.0005 -0.1769  0.2235
25200W        W42047  18.212  10.680   0.884 -0.0871  0.1724  0.2696
25201W        W42048  17.368  16.068  15.371 -0.3458  0.2627  0.2202
25202W        W42049  14.140  18.472   1.314 -0.0767 -0.1737  0.1453
25203W        W42050  12.939  18.138   0.409 -0.2055  0.1981 -0.2293
25204W        W42051   4.098  12.604   2.872  0.2032  0.0014 -0.0933
25205W        W42052  10.362   5.820   3.392 -0.1338  0.0003  0.1230
25206W        W42053  17.748  14.465  13.661  0.0792  0.1765 -0.1865
25207W        W42054  13.999  12.832   4.905 -0.0361 -0.0867 -0.3084
25208W        W42055  18.259   1.572  12.378  0.3312 -0.0921 -0.0232
25209W        W42056   2.673  18.333  14.829  0.1189  0.2142 -0.0244
25210W        W42057  12.852   6.018  15.636  0.0439 -0.0049 -0.0695
25211W        W42058   4.277   3.816   2.836 -0.2920  0.0494  0.3135
25212W        W42059   3.771   2.421   1.592  0.0668 -0.0003 -0.2274
25213W        W42060  12.725   6.275  15.202  0.0478  0.0433  0.1580
25214W        W42061  16.459   0.867  12.041  0.0824 -0.0763 -0.0030
25215W        W42062   6.834   5.312  14.438  0.2040  0.1650 -0.2907
25216W        W42063  15.473   6.362   2.029  0.0618  0.0204 -0.3357
25217W        W42064  13.800  16.431   3.189  0.0067  0.0614 -0.0656
25218W        W42065  10.924   5.926  15.555 -0.0616 -0.0209 -0.0211
25219W        W42066  17.625   6.606  15.750 -0.3551 -0.0182 -0.3913
25220W        W42067  16.968   4.483  14.034  0.1829  0.0369  0.3002
25221W        W42068   9.722  12.900   0.736  0.1912  0.0701  0.1407
25222W        W42069   7.738  17.659  12.212  0.1618  0.0823 -0.0936
25223W        W42070  18.327  13.983   4.435 -0.1779  0.1892  0.1727
25224W        W42071   2.356   3.654   1.035  0.1554  0.0088 -0.3028
25225W        W42072  10.419   9.657  11.747 -0.0889 -0.0322  0.0605
25226W        W42073  15.072  17.708  12.821 -0.1214 -0.2736  0.0711
25227W        W42074   5.403   1.356   4.196 -0.0266  0.0581 -0.1346
25228W        W42075  11.867   1.063   5.132  0.1677 -0.0654 -0.2486
25229W        W42076  10.797   8.297   3.292 -0.3373  0.0056  0.2357
25230W        W42077  10.545  15.861   4.187  0.1143  0.1177 -0.1909
25231W        W42078  16.677   0.307  14.859 -0.0133 -0.1013 -0.1521
25232W        W42079   9.878  10.207  15.496  0.0468  0.0206  0.2245
25233W        W42080   2.322  15.061  14.357 -0.0012 -0.3349 -0.3298
25234W        W42081   0.062  12.473   2.217 -0.0360  0.0581 -0.0975
25235W        W42082   4.433   5.136   0.093 -0.3133  0.1505 -0.0656
25236W        W42083   7.808  15.141   0.328  0.0047 -0.0936  0.1629
25237W        W42084   4.874  12.022   4.044  0.2838  0.1136  0.2414
25238W        W42085  18.660  17.359   2.050  0.3594 -0.1109  0.0847
25239W        W42086   3.722   1.146   4.976 -0.1907 -0.3312  0.2983
25240W        W42087  13.206  14.230   0.091  0.2384  0.1759 -0.0947
25241W        W42088  11.215  14.366   2.449 -0.0772 -0.0479 -0.0027
25242W        W42089  11.389   1.692  10.940 -0.0988  0.0699  0.1938
25243W        W42090   6.399   6.647  14.355  0.1973 -0.1661 -0.2799
25244W        W42091   6.119  15.823  15.648 -0.2565 -0.0782 -0.0786
25245W        W42092   0.586   7.006  13.317 -0.1931 -0.2241  0.0460
25246W        W42093   8.167  14.253  10.908  0.0945  0.0688 -0.0042
25247W        W42094   6.767   3.913   3.082 -0.0290  0.2583  0.0846
25248W        W42095   5.625  15.569   3.870  0.0002 -0.0295 -0.4447
25249W        W42096  17.009   2.888   6.409 -0.1528 -0.1104  0.0478
25250W        W42097  14.304  13.377  12.185 -0.1927  0.1467 -0.2707
25251W        W42098  12.926   9.079   2.160  0.0746 -0.2724 -0.7060
25252W        W42099   8.121  17.638  14.930 -0.0423  0.2414 -0.0921
25253W        W42100   1.311   0.588   1.124 -0.3787 -0.1421  0.1809
25254W        W42101   6.676  15.550  12.865 -0.0197 -0.2768  0.2055
25255W        W42102   3.023   0.950   1.939 -0.0359  0.3407 -0.2561
25256W        W42103   7.437   7.593   2.908 -0.0826  0.1726 -0.1436
25257W        W42104   1.806   9.075  13.707  0.1564 -0.0016 -0.2380
25258W        W42105  14.019  15.534  13.622 -0.0784  0.0285  0.0565
25259W        W42106   4.969   5.048   0.891  0.2452 -0.0389  0.2200
25260W        W42107  13.614   3.275   0.914  0.3997  0.3095  0.3025
25261W        W42108  10.205  18.209  11.677 -0.2039 -0.1529  0.0437
25262W        W42109   2.607  15.215   4.624  0.2254  0.2807 -0.0797
25263W        W42110   4.547  15.138   3.112 -0.1638 -0.0983 -0.1413
25264W        W42111   4.222   2.185  15.164 -0.1546  0.1422 -0.0195
25265W        W42112  17.563  15.907  14.461  0.3685  0.0584 -0.0169
25266W        W42113  18.017  12.630   3.524  0.0805 -0.1844  0.1151
25267W        W42114   3.268  13.156  15.308  0.0979 -0.2015  0.2774
25268W        W42115   7.271  13.161  11.962 -0.0446 -0.0630 -0.0409
25269W        W42116   3.609  12.354  13.175  0.0275 -0.1048 -0.0760
25270W        W42117   0.063   7.599  15.034 -0.2844 -0.1194 -0.0522
25271W        W42118   9.224  13.866   4.166  0.1994  0.0949  0.0870
25272W        W42119   7.568  10.369  12.993 -0.2738 -0.1670  0.3367
25273W        W42120   5.329   2.737   3.647 -0.0938 -0.0158  0.2621
25274W        W42121  13.785  17.387  13.005 -0.0839  0.4220  0.3499
25275W        W42122  15.594   8.673   1.392 -0.4447  0.3772  0.0056
25276W        W42123   5.731   6.341   2.669  0.1460  0.2723  0.3080
25277W        W42124  14.187  10.008   3.139  0.2115 -0.1772 -0.1098
25278W        W42125  18.844   8.211  11.928 -0.1729 -0.0312  0.0084
25279W        W42126   7.207  12.218   3.570  0.2322  0.0939 -0.1291
25280W        W42127   4.501  14.669   5.041 -0.2607 -0.0422 -0.0062
25281W        W42128  16.811  12.797   4.215  0.0668 -0.3860  0.1627
25282W        W42129   8.675   5.057  13.933 -0.0053 -0.1096 -0.0909
25283W        W42130  17.577   1.855  14.687  0.2540  0.1930  0.4054
25284W        W42131   6.652  12.935  14.884  0.5540  0.0507 -0.1083
25285W        W42132   8.888   3.549  15.602  0.2228 -0.0073 -0.1321
25286W        W42133  18.030  18.277  11.056 -0.0036  0.3666  0.1976
25287W        W42134  14.438  15.237   3.010  0.1809 -0.0303 -0.1332
25288W        W42135   2.687  10.177   4.329 -0.3541  0.3221  0.0651
25289W        W42136  13.110   5.436   5.655  0.0423  0.1739 -0.1445
25290W        W42137   5.666  14.322   0.140  0.0570 -0.2670 -0.0102
25291W        W42138   7.838  10.242   5.006  0.3568 -0.0223  0.1801
25292W        W42139  17.480   3.595  14.320  0.0456 -0.2758  0.1834
25293W        W42140  10.943  13.795  13.239 -0.1557  0.0738 -0.3206
25294W        W42141   1.407   5.325  14.683  0.0035  0.3074  0.0975
25295W        W42142  18.501  11.309   0.484  0.1128  0.0788  0.1062
25296W        W42143   4.480   8.221   4.298 -0.0219  0.0167  0.0359
25297W        W42144  12.633  16.739   4.590  0.2539 -0.2130  0.0399
25298W        W42145   6.143  16.563  13.835 -0.1590 -0.0896  0.1147
25299W        W42146  18.107  14.820  13.710  0.1297  0.0599 -0.1888
25300W        W42147  18.319   6.939  12.750 -0.0322  0.0567 -0.1165
25301W        W42148  12.024   6.955  15.320 -0.1519  0.4339  0.0592
25302W        W42149  11.336  11.271  14.099  0.1620  0.0735  0.3383
25303W        W42150  10.140   4.096  13.524  0.0899  0.1175 -0.0787
25304W        W42151  18.405  16.142   1.403  0.2118 -0.1374 -0.1064
25305W        W42152  14.511   0.413  11.317  0.1968 -0.0214 -0.1382
25306W        W42153   2.463   6.585   5.411 -0.0196 -0.2599  0.3680
25307W        W42154   9.855   8.811  13.554 -0.0500 -0.0544 -0.2252
25308W        W42155   1.245   7.795   0.926 -0.2267 -0.1972  0.0905
25309W        W42156   9.930  16.625   5.561 -0.3221  0.0342  0.0432
25310W        W42157   2.570  16.829   1.646  0.1939 -0.2596 -0.4600
25311W        W42158  13.630   5.401   3.841  0.0094 -0.0914 -0.0544
25312W        W42159   0.184   3.070   1.037  0.2548  0.0112  0.3494
25313W        W42160  18.430  10.410  11.613  0.0460 -0.0449 -0.0401
25314W        W42161  16.264  16.224  15.249  0.1706  0.2122  0.0985
25315W        W42162  15.170  13.536  14.756  0.1557  0.0513  0.1532
25316W        W42163  17.921   2.581  14.885 -0.0962  0.0345 -0.0607
25317W        W42164   5.732   4.472   2.874  0.2890 -0.3642 -0.0369
25318W        W42165  14.792  15.249  13.020 -0.1734  0.2173  0.1464
25319W        W42166   3.084   5.126   3.367 -0.0040 -0.0451  0.1606
25320W        W42167  17.759  12.423   2.567  0.0414 -0.0576 -0.2105
25321W        W42168  12.822   6.727   2.676  0.1036  0.0103  0.0432
25322W        W42169  16.779  16.946   0.822  0.1998 -0.1002  0.0218
25323W        W42170  12.277   6.534   3.166 -0.2044 -0.0969  0.0503
25324W        W42171  14.630   5.680   3.956  0.1495  0.2609 -0.2252
25325W        W42172  17.722   8.658  12.685 -0.1219  0.2012 -0.0026
25326W        W42173   1.866  16.197  11.261  0.1891 -0.0728  0.1007
25327W        W42174  13.642  12.800   2.444  0.2565 -0.0922  0.1414
25328W        W42175   0.043   1.786  13.182 -0.0396 -0.1443  0.2666
25329W        W42176  13.799  11.931   1.075 -0.4197 -0.1778 -0.1820
25330W        W42177   8.287   4.384  12.646  0.1572  0.1869 -0.0950
25331W        W42178   5.467  12.479   1.369  0.3425  0.1229  0.1169
25332W        W42179  16.365   0.080   0.927  0.0513  0.0524  0.1120
25333W        W42180   3.441   1.403   4.592  0.0327 -0.0327 -0.2564
25334W        W42181   7.448  12.256   0.741  0.0004  0.1013  0.0552
25335W        W42182   2.527  12.901  12.222  0.1866 -0.1250 -0.3188
25336W        W42183  15.890  13.751  14.633  0.1655 -0.0550  0.0902
25337W        W42184  13.372   5.495   5.138  0.1723 -0.1898  0.0634
25338W        W42185  15.059   0.695   2.555 -0.0717  0.2703 -0.2736
25339W        W42186  15.589   8.647   6.261 -0.0365  0.1968 -0.0454
25340W        W42187   6.841   5.175  11.321  0.0020 -0.4179  0.2743
25341W        W42188   1.414  10.704   1.480 -0.0599 -0.1048  0.1766
25342W        W42189   2.052  17.482  11.901  0.0426  0.1735 -0.1357
25343W        W42190  16.084  17.126  12.501 -0.0891  0.0561 -0.2351
25344W        W42191  17.292   7.381  12.306  0.0716 -0.1172 -0.2266
25345W        W42192   0.803  12.864  12.380  0.0930  0.1796 -0.3622
25346W        W42193   2.774   8.015   0.691  0.2103  0.3122  0.3539
25347W        W42194   5.684  18.547   3.660  0.3033  0.3713  0.2667
25348W        W42195   3.231   5.974   0.649  0.1165  0.1775 -0.2518
25349W        W42196  13.367   6.200   3.867  0.1440  0.1103  0.2878
25350W        W42197  16.789  15.823   1.491 -0.3527  0.0753  0.1424
25351W        W42198   1.956  12.736  13.035  0.2309  0.1418 -0.1766
25352W        W42199   5.154   8.680  11.957 -0.2301 -0.2894 -0.0659
25353W        W42200  12.986   4.160   0.419  0.2460 -0.0385 -0.1353
25354W        W42201  18.863  15.072   2.059  0.0176  0.1919  0.0100
25355W        W42202  11.000  14.079  14.664  0.0056 -0.0870 -0.1204
25356W        W42203  16.355   0.438  12.529  0.0803  0.0957 -0.1119
25357W        W42204   0.682  13.837   0.247  0.0301  0.0867 -0.1157
25358W        W42205  16.748   0.306   4.111  0.1707  0.4916  0.4369
25359W        W42206  12.510   6.279  10.720  0.1009 -0.1278  0.1146
25360W        W42207   4.944   9.966  11.712  0.1326 -0.1696  0.1855
25361W        W42208  17.798   2.001  13.805  0.2967 -0.1203 -0.2246
25362W        W42209   3.875   9.090   2.060 -0.0444  0.0008 -0.0408
25363W        W42210   7.421  13.300   0.654 -0.0688  0.2711  0.0068
25364W        W42211  13.706  10.472  15.099 -0.1328 -0.1177  0.3542
25365W        W42212   9.711  18.746   2.174 -0.3756  0.0721  0.1708
25366W        W42213   4.369   3.062   5.730 -0.1748 -0.4684 -0.1359
25367W        W42214  16.775  12.200  15.409 -0.4215  0.0443  0.3434
25368W        W42215  12.659  18.308   0.780 -0.1129 -0.0676 -0.0224
25369W        W42216  14.485   5.963  10.962 -0.0262 -0.3087 -0.0279
25370W        W42217   7.586  12.775  14.772 -0.0951  0.2195 -0.0819
25371W        W42218  15.312   7.524   4.731 -0.0535  0.1846  0.2501
25372W        W42219   8.193   1.881   3.330  0.1895 -0.2072 -0.0260
25373W        W42220   2.332   3.570   2.464  0.2736 -0.0232  0.1072
25374W        W42221  10.650  14.889  12.397 -0.2446  0.0428 -0.2280
25375W        W42222  14.523  13.409   1.198 -0.0826  0.0754 -0.7331
25376W        W42223   0.506   7.265  13.849  0.1170  0.0877  0.2130
25377W        W42224   1.613   8.134   3.002  0.1887  0.2430 -0.0548
25378W        W42225  10.999  17.645   2.907  0.0104 -0.2249 -0.2141
25379W        W42226  14.965  15.681   3.481 -0.0223 -0.0732 -0.5397
25380W        W42227   0.010  16.708  11.983  0.3576  0.3360 -0.1612
25381W        W42228   4.046  13.253   0.413 -0.2384 -0.0689  0.3048
25382W        W42229  11.657   4.506   3.700 -0.1696 -0.0829  0.1912
25383W        W42230   8.701   2.034   2.971  0.1076  0.0388 -0.1738
25384W        W42231   7.506  13.120  15.574 -0.0022 -0.3424  0.0483
25385W        W42232   0.767   4.058  15.600 -0.4546 -0.0956  0.2771
25386W        W42233   7.746  16.664  15.127 -0.5084 -0.0347  0.2165
25387W        W42234   3.159   9.280   4.449  0.3250  0.3672  0.1997
25388W        W42235   8.659  10.896   1.357 -0.0133  0.0859  0.0084
25389W        W42236  11.804   5.488   4.904 -0.0055  0.2273 -0.0049
25390W        W42237   6.730  18.675  15.445 -0.0065  0.0624 -0.0028
25391W        W42238   5.983   4.746  12.974  0.0050 -0.0321  0.1847
25392W        W42239  15.678   1.949   3.900  0.1019  0.3202 -0.1268
25393W        W42240  11.193   2.069   5.332  0.0478 -0.0483 -0.0095
25394W        W42241  11.358  12.733  11.417  0.0375  0.2878  0.1832
25395W        W42242   6.167   4.579  14.031  0.0550 -0.0129  0.1567
25396W        W42243   0.872   8.384   1.278 -0.2182 -0.0969 -0.0019
25397W        W42244  18.810  13.952  12.787 -0.2465 -0.0826  0.1386
25398W        W42245   7.340  18.295   4.354 -0.3166  0.1729  0.0102
25399W        W42246  12.519  15.695   4.307  0.0737 -0.0142 -0.1116
25400W        W42247   6.506  15.608   4.919 -0.4849 -0.3966  0.0144
25401W        W42248  11.995   0.470   1.317  0.2633 -0.0843 -0.0046
25402W        W42249   1.384  11.269   4.041 -0.0656  0.0227  0.2223
25403W        W42250   2.302   5.609   2.993 -0.1096 -0.0870  0.0652
25404W        W42251  15.044  13.271  15.661  0.0633 -0.0073 -0.0535
25405W        W42252   3.110   3.654  12.861 -0.1663  0.1161  0.1858
25406W        W42253  16.050   0.807   4.953  0.1371  0.0564  0.1553
25407W        W42254  12.394   9.662  10.909  0.1013 -0.2470  0.1472
25408W        W42255   9.955   7.881   0.381 -0.0840 -0.1196 -0.0294
25409W        W42256  17.556   4.630   2.479 -0.2592  0.3307 -0.0296
25410W        W42257  16.033  16.068   5.036  0.0857  0.1762  0.1206
25411W        W42258   4.616   6.498  15.487 -0.0159 -0.1303  0.1224
25412W        W42259   3.750   3.215   0.504  0.2431  0.3248 -0.1912
25413W        W42260   2.456  15.985  14.901  0.1420  0.3159  0.2437
25414W        W42261  13.894   1.910  12.726  0.0752 -0.0406  0.0673
25415W        W42262   0.176   6.790  13.032  0.0622 -0.3074 -0.1351
25416W        W42263   5.496  16.102  14.886  0.3273  0.4138  0.0534
25417W        W42264  17.101   0.722   6.205  0.2128 -0.1207 -0.0762
25418W        W42265   1.450  16.960   2.841  0.3563 -0.3528  0.2038
25419W        W42266  16.488   1.104   0.070 -0.1008  0.1915  0.0992
25420W        W42267   6.114  18.085  11.763  0.3376  0.1222  0.1150
25421W        W42268  13.767  17.335  13.520 -0.1125 -0.1817 -0.1064
25422W        W42269   1.794  14.862   0.779 -0.2086  0.0795 -0.3644
25423W        W42270   6.643   8.064   2.460  0.1338 -0.0301 -0.1627
25424W        W42271   5.453   7.851  15.208 -0.2708  0.0005  0.0116
25425W        W42272   7.053  12.101   5.173  0.2234  0.0528 -0.0695
25426W        W42273   4.812  14.492   4.486 -0.1167 -0.2855 -0.0426
25427W        W42274  11.824   3.675  12.873  0.0814  0.0820 -0.0396
25428W        W42275  17.193  18.002  11.109 -0.0852 -0.2526  0.0491
25429W        W42276  10.582   6.247  12.567  0.2501  0.1456  0.2820
25430W        W42277   3.521  17.654   2.674  0.0235  0.0636 -0.0520
25431W        W42278  13.713   9.014  14.504 -0.2489 -0.0457  0.3652
25432W        W42279  17.073   9.703   5.649 -0.2972 -0.0396  0.1615
25433W        W42280  17.285   9.675  14.646 -0.1176 -0.1421 -0.1888
25434W        W42281  18.566   2.820   1.964  0.2265 -0.0042  0.0344
25435W        W42282   9.992  18.622   1.267 -0.2801  0.1988 -0.0134
25436W        W42283   3.410  13.668  14.502  0.0431 -0.2840 -0.0541
25437W        W42284   9.860  11.861   2.487 -0.1792 -0.1043 -0.1222
25438W        W42285  11.875   2.062  10.762  0.2051 -0.0336 -0.1476
25439W        W42286   7.209  11.739  15.025 -0.0456  0.0805 -0.1289
25440W        W42287   4.670  13.607   3.927  0.0612  0.1224  0.2888
25441W        W42288   4.759  11.695   0.107  0.0050  0.1573  0.1644
25442W        W42289   7.791   4.630  13.023  0.4834 -0.1187 -0.2707
25443W        W42290   7.147   2.266  14.004  0.0140  0.0802  0.2887
25444W        W42291  10.915   5.329   1.875  0.3111 -0.0477 -0.0198
25445W        W42292  12.531  14.167   3.588  0.0976  0.0574  0.4108
25446W        W42293  15.164   5.988   5.456 -0.2056  0.3386  0.0606
25447W        W42294  13.514   4.109   1.158 -0.1225 -0.2591 -0.1316
25448W        W42295   4.133   8.853  13.244 -0.0447  0.1914 -0.1230
25449W        W42296  13.834  13.624   2.043  0.1244  0.2268  0.0478
25450W        W42297   7.624   7.834   1.892 -0.0287  0.0754  0.0245
25451W        W42298   0.422  16.229   1.896  0.4970 -0.1388  0.0248
25452W        W42299   4.546  12.892   1.911  0.0940  0.0190  0.1129
25453W        W42300   3.106   8.320   2.355  0.0894 -0.1420 -0.0107
25454W        W42301  17.320  14.191   2.813  0.2571  0.2053  0.1253
25455W        W42302   1.158  17.231   2.001 -0.3376  0.1041 -0.0118
25456W        W42303   0.215   9.492  15.323 -0.0117  0.1252  0.0559
25457W        W42304   3.167  13.924   1.888 -0.2546 -0.2986 -0.1365
25458W        W42305  13.612   6.947   0.922  0.2119  0.0229 -0.1388
25459W        W42306   1.701  15.266   2.902 -0.4471  0.0740  0.2031
25460W        W42307  16.314   4.140   1.740 -0.2126 -0.1460 -0.0010
25461W        W42308   4.937  18.181   4.338 -0.0461  0.2550  0.1520
25462W        W42309   3.257   1.479   0.106 -0.2245  0.0539 -0.4274
25463W        W42310   0.450   6.567   5.131  0.2242 -0.1723  0.0264
25464W        W42311   0.928  13.657   3.994 -0.4166  0.0924  0.5378
25465W        W42312  16.256   8.290   6.286  0.2847  0.0221 -0.0768
25466W        W42313  12.535   2.130   2.807  0.2369 -0.1059  0.0090
25467W        W42314   9.495   6.935  15.408 -0.1268  0.3095  0.2267
25468W        W42315   4.830  14.775  13.494  0.1092  0.0491  0.0942
25469W        W42316   7.282  14.334   3.216  0.1386  0.0730  0.1002
25470W        W42317  14.414  17.033   5.462  0.1513  0.0828 -0.0686
25471W        W42318  16.775   0.886  12.809 -0.0116 -0.0664  0.3612
25472W        W42319  17.823   2.803  11.966 -0.1578  0.0352 -0.1111
25473W        W42320  18.093   2.769   1.080  0.1985  0.1464 -0.1300
25474W        W42321  10.762   3.197  11.634 -0.0070 -0.0159 -0.1365
25475W        W42322  16.583  11.533   3.591 -0.0092 -0.1105  0.0911
25476W        W42323  12.950  18.288  14.794  0.0989 -0.4816  0.4570
25477W        W42324  18.859  16.467  14.287  0.0828  0.0627 -0.0594
25478W        W42325  11.152  11.083   4.752  0.0017  0.0964  0.2539
25479W        W42326  14.198  14.370  14.396 -0.2284 -0.2151 -0.2841
25480W        W42327   1.048   2.159   4.769  0.0378  0.0848 -0.0464
25481W        W42328  15.836  16.158   1.383  0.0422  0.0325 -0.2978
25482W        W42329   3.717   0.837  12.874 -0.3036  0.2891  0.2537
25483W        W42330   3.979  18.358   2.401  0.0879 -0.4350  0.3256
25484W        W42331  17.854   9.189   1.297 -0.0786  0.1097 -0.2226
25485W        W42332   5.373  17.602   3.030 -0.0400 -0.1946  0.0010
25486W        W42333  12.351  18.088   4.243  0.2730  0.0729 -0.2431
25487W        W42334   3.451   1.034   0.371  0.3767 -0.1297  0.0061
25488W        W42335  11.060  16.174  11.446 -0.1223  0.1356  0.0611
25489W        W42336  17.418  16.063   4.983  0.0260 -0.0708  0.2421
25490W        W42337  14.755  15.900  13.686 -0.2517  0.0436 -0.2887
25491W        W42338  16.866   0.303  11.039 -0.2467 -0.1487  0.3828
25492W        W42339   7.922  18.072  15.160  0.1973 -0.0893  0.0001
25493W        W42340   4.349   3.489  12.417 -0.0615 -0.0318  0.5703
25494W        W42341   2.874   9.430  12.047 -0.0190  0.1485 -0.2276
25495W        W42342  10.548  15.012  10.135  0.0678 -0.0973  0.4003
25496W        W42343  12.282   1.107  11.716 -0.0369 -0.0194  0.2415
25497W        W42344   8.396   0.647   5.096 -0.0197  0.0167 -0.0039
25498W        W42345  16.712   6.674   3.901 -0.1203 -0.2252  0.1265
25499W        W42346  15.307   3.936   0.651  0.0876 -0.1036 -0.1312
25500W        W42347   1.868  11.906   0.303  0.0403  0.0102  0.0433
25501W        W42348  13.891   8.963  15.066  0.1384  0.1935  0.0901
25502W        W42349   3.042   4.525   0.848  0.0460 -0.0193 -0.3733
25503W        W42350   6.812  15.351   0.222  0.0478  0.2186 -0.0809
25504W        W42351   9.257  15.655  14.395  0.0022  0.1623 -0.2508
25505W        W42352   4.315   0.826  14.193 -0.0911 -0.2136  0.0713
25506W        W42353  14.401   1.995   4.756  0.4134  0.1552 -0.1391
25507W        W42354   5.468  18.182  11.572 -0.0403  0.4515 -0.1253
25508W        W42355   3.611  11.790  12.235  0.4668  0.5116 -0.1477
25509W        W42356   3.363  16.154  10.630 -0.0180 -0.0148 -0.0143
25510W        W42357   0.769   7.864   2.356 -0.1892 -0.0525  0.1791
25511W        W42358   8.428  13.598  12.989  0.1677 -0.0372  0.0701
25512W        W42359   0.280   5.784   3.648  0.0379 -0.2342  0.0601
25513W        W42360   8.850   2.371  11.749  0.0368 -0.4980  0.0384
25514W        W42361   4.609  10.669  11.173  0.0883 -0.1797  0.2398
25515W        W42362  14.291   5.357  11.623 -0.1299 -0.1290  0.0177
25516W        W42363   8.330  10.665  14.744 -0.1282  0.1478 -0.1247
25517W        W42364  10.189  14.180  12.225 -0.1521 -0.0320  0.1191
25518W        W42365   7.424   7.278  15.097 -0.0089  0.2688  0.1619
25519W        W42366   7.499   5.224  14.199 -0.1083 -0.0995  0.0701
25520W        W42367   5.597   1.338   2.907 -0.1768 -0.0257  0.0502
25521W        W42368   8.189   2.333   1.374  0.0597 -0.1816  0.1776
25522W        W42369  10.576  18.005  14.008  0.1416 -0.2578  0.0546
25523W        W42370   2.052  15.587   2.836  0.0017  0.0266  0.2915
25524W        W42371  13.528   7.120  13.261  0.0581  0.1134 -0.0100
25525W        W42372  10.492  14.652   0.563 -0.3004  0.1002 -0.4705
25526W        W42373  18.074  14.490  14.883 -0.1898  0.2726  0.0851
25527W        W42374   4.007   4.283  14.823  0.1588 -0.0449  0.1498
25528W        W42375  14.286  15.846   1.070 -0.1778  0.1120  0.0072
25529W        W42376  15.186  18.038  12.013  0.1825  0.0233  0.1955
25530W        W42377   6.041  16.194  14.841 -0.1527  0.1174  0.2421
25531W        W42378  18.118  11.358   4.301  0.3161 -0.0219 -0.1494
25532W        W42379   3.835  13.140   2.754 -0.1624  0.0079 -0.2175
25533W        W42380  10.390  13.765   4.504  0.0777 -0.0717  0.2970
25534W        W42381  14.698   1.666   3.776  0.2459  0.2338 -0.0754
25535W        W42382   0.719   7.444   4.405 -0.0231  0.0211  0.0954
25536W        W42383  14.700   5.817  12.035 -0.0636  0.1148 -0.1176
25537W        W42384   9.369  14.236   0.703 -0.1181  0.0347  0.1682
25538W        W42385  11.269   0.595  12.388  0.0110  0.1077 -0.2703
25539W        W42386   3.500  12.494  15.055  0.1648  0.1476  0.0048
25540W        W42387  14.439  15.055   4.563  0.1423  0.2215 -0.4045
25541W        W42388  16.732   5.335   0.482 -0.1510 -0.0652 -0.4094
25542W        W42389   5.459   4.094   1.972  0.3462 -0.0429 -0.1959
25543W        W42390   5.194   1.470   2.570  0.2935 -0.1230  0.0154
25544W        W42391  18.481  10.316   2.890  0.1957  0.0900 -0.0252
25545W        W42392   0.266   9.515   2.489 -0.0116  0.2117 -0.1668
25546W        W42393  11.460  18.003   1.160  0.1221 -0.1756 -0.1578
25547W        W42394   4.494  11.310   3.886  0.0436 -0.1041 -0.2997
25548W        W42395  16.197  18.310  12.252  0.0465  0.1617 -0.1248
25549W        W42396   0.120   0.893  10.761  0.3796  0.4145 -0.3474
25550W        W42397   9.526   3.588   5.056  0.1648 -0.0182 -0.1264
25551W        W42398   8.291   8.101  12.347  0.1254  0.0274  0.1736
25552W        W42399   2.559  18.705   3.492 -0.1356  0.0575 -0.0564
25553W        W42400   1.331   1.644  13.847  0.1425  0.0525  0.0914
25554W        W42401   3.852  18.034   1.414 -0.1342 -0.2804  0.0553
25555W        W42402  15.706  18.033  15.779 -0.0502 -0.1527  0.1366
25556W        W42403  18.010  11.187  14.667 -0.1449  0.0380 -0.1728
25557W        W42404  18.022   2.405   2.941 -0.1675 -0.1731 -0.0468
25558W        W42405   0.472  12.064   4.663 -0.2020 -0.1437 -0.0845
25559W        W42406  13.096  10.156   4.709  0.0509 -0.3742  0.3180
25560W        W42407   3.998   6.994   5.751  0.5826 -0.0436  0.0674
25561W        W42408   6.297  16.544  11.590 -0.1148  0.1403 -0.2304
25562W        W42409  11.023   2.432  10.423 -0.0912  0.1689 -0.0262
25563W        W42410   9.007   9.294   0.781  0.3050  0.0099  0.0034
25564W        W42411  10.887   4.867   3.085  0.1231  0.1566  0.0294
25565W        W42412   6.858  15.066  14.300 -0.4656  0.1460  0.0731
25566W        W42413  13.671   8.222   3.231  0.1676  0.0264  0.0138
25567W        W42414  17.035   7.026  12.064  0.1683 -0.3234  0.0999
25568W        W42415   3.342   8.458  13.529 -0.2688  0.1425 -0.0357
25569W        W42416  14.865   0.949  15.125  0.0865  0.1012  0.2945
25570W        W42417   6.907  14.380  12.510  0.1035  0.1534 -0.1274
25571W        W42418   9.560   7.057  12.774  0.2558 -0.2630 -0.3408
25572W        W42419  13.515   7.477  10.669  0.1411 -0.0519 -0.4097
25573W        W42420   2.997  10.361  14.969  0.2542 -0.1931 -0.0558
25574W        W42421  17.284   4.375   2.815 -0.2701  0.0698 -0.2432
25575W        W42422   0.137   2.191   0.051  0.1959 -0.0224 -0.2660
25576W        W42423   5.994   4.978   3.024 -0.4394 -0.0003  0.0023
25577W        W42424   2.709  13.069   1.950  0.0761 -0.1904 -0.0124
25578W        W42425  15.804   1.749   0.081 -0.1029  0.0634 -0.0388
25579W        W42426   4.077   3.826  14.471  0.0858 -0.1861 -0.0432
25580W        W42427  11.875  13.616  11.799  0.0123 -0.0488 -0.0708
25581W        W42428   6.519  14.459   2.583  0.0290  0.0911  0.1036
25582W        W42429   8.199   9.263   1.056 -0.1748 -0.2328  0.1546
25583W        W42430   8.339  12.392  10.911 -0.0019  0.0256  0.2790
25584W        W42431  15.869  17.374   0.751 -0.0548  0.0362 -0.1123
25585W        W42432   1.717  11.366   0.427  0.1642 -0.2012  0.1481
25586W        W42433   2.305  12.306   4.883 -0.0195 -0.0310  0.0847
25587W        W42434   9.191  12.029   0.408  0.0541  0.3640  0.2233
25588W        W42435  14.654   4.652  13.597 -0.0956  0.1716 -0.6423
25589W        W42436  16.278   7.410   1.683 -0.2247 -0.0625 -0.0021
25590W        W42437  15.037  12.514   4.143  0.3127 -0.0347  0.0329
25591W        W42438  16.651   5.252   1.120 -0.0103 -0.4070 -0.0516
25592W        W42439  11.458  11.070   2.310 -0.1785 -0.1102  0.1079
25593W        W42440   5.865   6.408   1.498 -0.0122 -0.0066  0.2672
25594W        W42441  15.664   4.339  15.102 -0.0234  0.1343  0.0378
25595W        W42442  14.832  11.577   5.145  0.3017 -0.2281  0.1733
25596W        W42443   0.634   6.634   4.544  0.0759 -0.2651  0.3177
25597W        W42444  11.712   7.396   3.771 -0.4297 -0.2517  0.3074
25598W        W42445   6.824  12.031  11.871  0.3902  0.3431  0.3081
25599W        W42446  18.004   9.666   4.761 -0.2791 -0.0478 -0.1449
25600W        W42447   8.062  17.629   0.594 -0.0999  0.1565 -0.1812
25601W        W42448   0.902   0.116   2.753  0.2735 -0.0386 -0.1074
25602W        W42449  10.809  16.345   5.531  0.2941 -0.0442 -0.0506
25603W        W42450   2.057  13.535  13.876 -0.2561 -0.1329  0.0557
25604W        W42451  12.867   6.675  11.534 -0.1483 -0.1297 -0.3601
25605W        W42452   0.419  10.024   2.726  0.0222  0.0398  0.0543
25606W        W42453  18.698  11.229   1.548  0.1496 -0.3954 -0.0603
25607W        W42454   0.558   3.882   3.606 -0.3052 -0.0629  0.0062
25608W        W42455  16.933   4.903  14.920 -0.2088 -0.0941  0.0308
25609W        W42456  16.491  14.355   4.561  0.0764  0.0140  0.2531
25610W        W42457  15.543  11.101   5.234  0.2908  0.1047  0.2243
25611W        W42458   2.049  11.736  11.454 -0.0403  0.1907  0.0129
25612W        W42459  14.759   6.747   1.411 -0.4610 -0.1082 -0.4010
25613W        W42460   9.122  13.470  11.390  0.1974  0.0214 -0.3079
25614W        W42461   9.618   4.139   4.613  0.2440  0.3645  0.0255
25615W        W42462   6.487   0.670  13.133 -0.2053  0.0322 -0.1823
25616W        W42463   2.924  10.302   1.912  0.0261 -0.1243  0.4347
25617W        W42464   4.870  15.678  13.796  0.0837  0.0953 -0.0113
25618W        W42465  15.242   8.462  11.817  0.0500  0.4813  0.2691
25619W        W42466   0.023  14.239  11.567 -0.0954 -0.0270  0.0505
25620W        W42467  13.814  11.432   1.176 -0.0917  0.1282  0.1175
25621W        W42468   4.847  17.298   4.514 -0.1027 -0.0832  0.1899
25622W        W42469   4.926   0.843  11.179 -0.2477 -0.2198 -0.0233
25623W        W42470   2.314   9.829   4.414 -0.0534 -0.0954 -0.2438
25624W        W42471   4.886   4.301  14.688  0.4961  0.1780 -0.1651
25625W        W42472   5.835  15.483  11.205 -0.2804 -0.0060 -0.2833
25626W        W42473  11.038  14.253  11.792 -0.0807 -0.0148 -0.1966
25627W        W42474   4.332   7.976   1.395  0.0623 -0.1790  0.1242
25628W        W42475   2.797   7.264  11.768  0.0069 -0.0238  0.3028
25629W        W42476   0.557   4.036  12.636  0.1082  0.1126  0.1963
25630W        W42477   6.213   6.453   5.478  0.2247  0.2499 -0.2274
25631W        W42478   6.798  16.003  14.508  0.1066  0.0124  0.0453
25632W        W42479   1.787   4.853  11.682 -0.0676 -0.0601  0.0372
25633W        W42480   7.289  10.713  15.728  0.0897 -0.0463  0.3560
25634W        W42481   7.213  11.632  12.405  0.1715  0.0628 -0.0148
25635W        W42482   9.228  10.963  12.009 -0.0807  0.4374 -0.1248
25636W        W42483  13.943   6.380   5.296 -0.0661  0.2903  0.2043
25637W        W42484  11.789  13.310   0.988 -0.1050 -0.3405  0.1092
25638W        W42485   3.861   1.768  15.047  0.2307 -0.2776  0.0873
25639W        W42486   3.086   6.137   1.841 -0.1529  0.0482  0.0940
25640W        W42487  14.305  15.802  14.014  0.0648 -0.2581  0.1135
25641W        W42488   2.883  10.253  14.484 -0.0712  0.2357  0.1285
25642W        W42489   9.790   5.565   1.240 -0.1405  0.4788  0.2181
25643W        W42490  15.775  13.890  14.167 -0.0162  0.0401  0.0550
25644W        W42491  12.561   4.634   3.577  0.0262 -0.1379 -0.2747
25645W        W42492   0.960   8.792   3.207  0.0593  0.1009 -0.0677
25646W        W42493   3.355  18.103  15.732 -0.0605 -0.0269  0.0139
25647W        W42494  15.198  11.898  12.297  0.0054  0.1992 -0.1605
25648W        W42495  17.384   3.108  14.331  0.1302  0.0145 -0.3823
25649W        W42496   9.620  10.861   5.331 -0.1097  0.0596 -0.0679
25650W        W42497  18.488  14.606  12.154 -0.3263 -0.0145  0.1137
25651W        W42498   7.763   8.567   0.667 -0.0596  0.0360 -0.0161
25652W        W42499   9.113   6.003  11.150  0.2875  0.0002 -0.0410
25653W        W42500   2.730  14.174   1.668  0.1041  0.0385  0.0585
25654W        W42501  12.888  14.781   5.679  0.1283  0.1454  0.1768
25655W        W42502   6.534   1.329  15.626  0.2174  0.1602  0.1826
25656W        W42503  15.316  18.670   2.606  0.0424 -0.1189 -0.0050
25657W        W42504   1.167   5.306   1.948  0.1638  0.3165  0.1774
25658W        W42505   6.988   5.386   4.601 -0.0001  0.1226  0.1157
25659W        W42506  14.361  11.029  13.187  0.7591  0.3572 -0.1034
25660W        W42507   1.484  13.033  13.416  0.0276 -0.3424  0.2189
25661W        W42508   6.471  13.803   1.859 -0.0802  0.0177  0.0126
25662W        W42509  11.521  17.831   2.425  0.0307 -0.0186 -0.1194
25663W        W42510  15.085  12.633   2.717  0.0654 -0.2781 -0.2200
25664W        W42511  14.413  12.864  12.272  0.2956  0.2467 -0.1970
25665W        W42512   3.302   5.328   5.117  0.2265 -0.0857  0.3006
25666W        W42513   6.730  11.525   0.633  0.2798  0.2233  0.2367
25667W        W42514   8.101  14.575  11.945  0.1491  0.0961  0.2291
25668W        W42515  15.950  17.746   4.148  0.0517 -0.0864  0.2007
25669W        W42516   6.582  16.961   9.886  0.0981 -0.1452  0.2627
25670W        W42517  17.715   5.658   5.569 -0.2907 -0.2427  0.1073
25671W        W42518   1.032  17.034  13.064 -0.0028  0.1339 -0.0288
25672W        W42519   0.315  12.816   1.804  0.2032  0.1595 -0.3710
25673W        W42520   4.525  17.116   0.088  0.1986  0.3596 -0.1625
25674W        W42521   5.144   6.456  11.927 -0.2370 -0.2224  0.1508
25675W        W42522   2.201  15.307   0.915  0.1111  0.2301 -0.1057
25676W        W42523  14.226   6.673   3.276 -0.0266  0.0870  0.0189
25677W        W42524   0.303  12.934   0.618 -0.2180  0.1576  0.2863
25678W        W42525   5.904  13.550  10.699  0.2598 -0.2593  0.0082
25679W        W42526   8.528   1.510  12.692  0.3119  0.1026  0.0614
25680W        W42527   1.959   3.713   4.101  0.1063  0.1749 -0.0414
25681W        W42528   2.382  16.887   3.732  0.0328  0.2375  0.0952
25682W        W42529   1.556   9.026  11.123 -0.0190  0.0476  0.0423
25683W        W42530  18.123   8.841  14.926 -0.0161  0.2354 -0.1619
25684W        W42531   8.568  10.626  13.663  0.2561  0.5056  0.1009
25685W        W42532   2.838   4.924  11.155 -0.0402 -0.1670 -0.1151
25686W        W42533   9.967   5.876   2.367 -0.3753 -0.2584 -0.0217
25687W        W42534   1.855  17.069  15.312 -0.0133 -0.2063  0.3110
25688W        W42535   0.021   1.856  15.470 -0.2107  0.2365  0.0737
25689W        W42536  14.797  10.603  12.503  0.2501  0.2729  0.1161
25690W        W42537  10.808  15.403   2.342 -0.0154 -0.0661  0.4056
25691W        W42538  14.763   7.901  11.166  0.2368  0.2017 -0.0496
25692W        W42539   4.366   6.547  11.474 -0.1320 -0.2567  0.0306
25693W        W42540  12.605   3.250  13.649  0.1059  0.3871  0.0736
25694W        W42541  17.008   4.727  15.681 -0.0096  0.2258 -0.0783
25695W        W42542  18.340  16.910  11.475  0.0612  0.3399 -0.1901
25696W        W42543   2.219   3.101   3.362 -0.2798  0.3155 -0.2195
25697W        W42544   2.318   0.322  14.278 -0.3612 -0.0939  0.5324
25698W        W42545   7.964   7.189   1.110  0.1695  0.4001  0.1010
25699W        W42546  10.878  10.907   0.605  0.2396 -0.1394 -0.0861
25700W        W42547   5.712   5.050   1.008  0.3346  0.0479 -0.1033
25701W        W42548  17.833  12.596   0.295  0.1273 -0.4526  0.0796
25702W        W42549  16.632   8.541  12.478  0.0397  0.2866  0.1499
25703W        W42550   6.663  16.360   3.829 -0.2660 -0.1764 -0.1111
25704W        W42551   4.581   1.387  15.758 -0.1521  0.1993 -0.0448
25705W        W42552  16.215   7.385  13.692  0.1667  0.0601  0.0002
25706W        W42553  17.107   1.263   2.499  0.0227  0.1492  0.0398
25707W        W42554   1.638  13.302   5.649  0.1384  0.0655  0.0268
25708W        W42555  18.131  12.123   1.900 -0.4382  0.1957  0.2367
25709W        W42556   2.421  15.700   2.453 -0.5236 -0.1608  0.0546
25710W        W42557   1.591  10.266   5.301 -0.0638 -0.3320 -0.4628
25711W        W42558  18.045   5.196   5.308 -0.1017 -0.1264 -0.1755
25712W        W42559  15.369  16.683   1.641 -0.0146 -0.2415  0.1191
25713W        W42560  17.150   1.085   1.952 -0.1820 -0.1848 -0.1327
25714W        W42561   9.413  17.137  10.971  0.0628 -0.2652 -0.0448
25715W        W42562   8.135   7.871   4.749 -0.0643 -0.0069 -0.1368
25716W        W42563   3.240   9.399   0.634 -0.0347 -0.1389 -0.3125
25717W        W42564   2.051  14.473  12.989  0.1573  0.0855 -0.4016
25718W        W42565   3.399  17.175  10.854 -0.0567 -0.1225 -0.0176
25719W        W42566   8.922  10.959   2.226  0.1594  0.0080  0.1357
25720W        W42567   1.868   5.277  10.422  0.1528 -0.1676  0.0804
25721W        W42568   4.034   5.275  15.183 -0.2032 -0.2895  0.1635
25722W        W42569  13.108   1.224   2.418 -0.1219  0.1149  0.1200
25723W        W42570  18.373   9.144   3.925 -0.0368  0.1928 -0.2095
25724W        W42571  14.492  17.155  12.375 -0.0735  0.0031 -0.1702
25725W        W42572  13.291   0.662  12.070 -0.1692  0.2088  0.2533
25726W        W42573  13.237  11.856  13.869  0.1047  0.0209  0.2659
25727W        W42574  17.108  10.630   2.865  0.1303 -0.4228 -0.5506
25728W        W42575   7.857   9.987  10.926 -0.0880 -0.1679  0.0149
25729W        W42576  14.217  17.053  11.999 -0.2293  0.0928  0.3354
25730W        W42577   2.683   4.061   3.008 -0.1515 -0.2453  0.1198
25731W        W42578  11.266  15.206   2.236 -0.3661  0.0685 -0.1080
25732W        W42579   9.520  18.378   4.609 -0.0748  0.3823 -0.3360
25733W        W42580   7.033  12.081  10.986  0.1626 -0.0649 -0.0659
25734W        W42581  18.708  12.557  12.900  0.1702 -0.0345  0.1179
25735W        W42582   4.643  11.126   2.361 -0.1362 -0.0028 -0.0202
25736W        W42583   5.937  17.661   2.352  0.0363  0.1386  0.2148
25737W        W42584   6.599  15.046  13.194  0.0923 -0.0896  0.0434
25738W        W42585   2.148  18.760  14.091 -0.4847 -0.3767 -0.0542
25739W        W42586  10.010   9.041   3.902 -0.5070 -0.3397  0.3571
25740W        W42587  18.824   1.183   5.145 -0.1198  0.0549 -0.3863
25741W        W42588  10.574   7.741  10.811 -0.1401 -0.0208 -0.1786
25742W        W42589  12.163   4.148  11.183 -0.1131  0.0144  0.0463
25743W        W42590  14.089  14.158   3.290  0.0418 -0.2367 -0.0634
25744W        W42591   1.849  12.742   0.291  0.3609 -0.3000 -0.0336
25745W        W42592  15.741   1.945  14.949 -0.2620  0.2789 -0.1860
25746W        W42593  10.276  14.529   1.851 -0.0133 -0.1438 -0.1087
25747W        W42594   2.055   3.854  15.389  0.0280  0.1763 -0.0018
25748W        W42595   5.178   8.936   4.362  0.2240 -0.2046  0.0384
25749W        W42596   0.023   5.537   1.581 -0.0566 -0.1114 -0.0384
25750W        W42597   0.807  12.201  15.316  0.1397 -0.0952 -0.2917
25751W        W42598  10.508  13.809  10.908 -0.0420 -0.1785 -0.0627
25752W        W42599  15.552   0.758   5.119 -0.4878  0.1330 -0.3524
25753W        W42600   4.765  10.188   4.603  0.2487  0.1402 -0.1123
25754W        W42601  15.221   1.220   1.706  0.1121  0.2298 -0.2966
25755W        W42602  14.002  17.998   0.531  0.1980  0.0331 -0.1035
25756W        W42603   3.151  18.273  14.768 -0.2170 -0.0637  0.0398
25757W        W42604  10.083   0.699   0.610  0.0347  0.1588  0.1033
25758W        W42605  12.477   1.930  15.464 -0.0402 -0.1045  0.3815
25759W        W42606  17.129   8.979   1.941  0.1177  0.1504 -0.3104
25760W        W42607   2.994   6.869  11.464  0.1511  0.1360  0.2044
25761W        W42608  14.651  12.972  14.317  0.0134 -0.2658 -0.2536
25762W        W42609  12.350   9.836   1.231 -0.2332 -0.1075 -0.1045
25763W        W42610   2.078  10.102  12.214  0.0082  0.0220  0.1856
25764W        W42611   3.459   6.489   5.041 -0.1165 -0.1292 -0.1143
25765W        W42612   3.400   6.716  13.854 -0.1485 -0.3248  0.0059
25766W        W42613   6.373  14.724  11.647  0.0648  0.0099 -0.2224
25767W        W42614   4.883  14.229  13.419 -0.0710  0.0243 -0.4643
25768W        W42615   0.323  17.828   0.917  0.3086  0.3178  0.2494
25769W        W42616  11.380   3.075   3.186  0.2626  0.2302  0.1304
25770W        W42617  12.085  15.153   4.684  0.2197 -0.0562  0.2691
25771W        W42618  11.591   2.138   2.949  0.0728 -0.0915 -0.1263
25772W        W42619   8.905   5.927  13.215 -0.1084 -0.1566  0.2757
25773W        W42620   5.368   3.308   4.807 -0.4009 -0.3308 -0.4456
25774W        W42621   6.796  16.522  12.850  0.2247 -0.1660  0.3392
25775W        W42622   4.223   7.748  12.690  0.0650  0.0852 -0.0673
25776W        W42623   8.557   1.125  14.524 -0.0428  0.0507 -0.1426
25777W        W42624   6.970  15.170  12.914  0.1184 -0.0685 -0.0176
25778W        W42625   6.911   1.165   3.207  0.2602  0.1356  0.0193
25779W        W42626  15.010   1.661   5.160 -0.0971  0.3357  0.2174
25780W        W42627  12.780  13.176   0.752  0.1455 -0.2513 -0.0323
25781W        W42628   8.813  17.570  13.957  0.3818 -0.1950 -0.0034
25782W        W42629   6.651  14.058  15.492 -0.3333 -0.0859 -0.4775
25783W        W42630   7.798   8.669  10.930 -0.4668 -0.0629  0.0692
25784W        W42631   6.073   9.376   3.169 -0.2549 -0.0914 -0.0128
25785W        W42632  17.590   3.475   1.236 -0.0913  0.1034 -0.0868
25786W        W42633   0.283  12.003  13.437 -0.2174 -0.1291 -0.0283
25787W        W42634  10.642  13.570   2.300  0.0265 -0.0077  0.0763
25788W        W42635  15.820   6.780  14.624 -0.2921 -0.0481 -0.2274
25789W        W42636  13.080   6.665  12.449 -0.1921 -0.0578 -0.0739
25790W        W42637  15.612  18.112  12.213 -0.1324  0.1241 -0.3558
25791W        W42638  10.050  13.528  13.874  0.3694  0.4376  0.2602
25792W        W42639   2.203  15.407  15.617  0.1017  0.1131 -0.0354
25793W        W42640  10.688  13.305  15.718 -0.3720 -0.1084  0.1711
25794W        W42641   9.587   9.274  11.683  0.0680 -0.1042 -0.0185
25795W        W42642  12.164  11.813  12.149  0.0526 -0.5479  0.2120
25796W        W42643  14.743   2.289  14.365  0.0530 -0.0633  0.4201
25797W        W42644   0.096   3.372   5.037 -0.1852 -0.1515  0.2615
25798W        W42645  14.373   7.305  14.955  0.2258  0.1137 -0.0475
25799W        W42646  13.624   0.289  14.602 -0.0700  0.2149 -0.3095
25800W        W42647   5.843   1.889  12.325  0.1110  0.0686 -0.0915
25801W        W42648  10.520   4.085   0.479  0.3028  0.0690  0.0121
25802W        W42649  16.488   2.199   6.048 -0.2017 -0.1558  0.1323
25803W        W42650  11.396  10.179   3.739 -0.0457 -0.1067  0.3393
25804W        W42651   9.967   5.030  14.470 -0.4951 -0.2227  0.0569
25805W        W42652  18.833   1.641  10.319  0.0250  0.1867  0.3610
25806W        W42653  11.238  15.655   0.590  0.0770  0.2390 -0.1853
25807W        W42654  15.958   3.100  14.507 -0.0033  0.1368 -0.3566
25808W        W42655  14.267   6.040  12.133 -0.1818 -0.1743  0.1659
25809W        W42656   4.371  18.209  15.230 -0.1721  0.0692  0.0744
25810W        W42657  10.460  16.928  15.509  0.1331 -0.0096  0.2947
25811W        W42658  11.234   1.432  11.364  0.0127 -0.0547 -0.1110
25812W        W42659   2.908  16.620  13.775 -0.3783 -0.1096 -0.1171
25813W        W42660  14.759   5.984   3.578  0.3489  0.3435 -0.0998
25814W        W42661  13.516  15.466   4.352 -0.1491 -0.1915  0.0310
25815W        W42662   7.555  15.622  14.261 -0.2374  0.5998  0.1143
25816W        W42663   8.720   3.837   3.519  0.2187  0.1377 -0.2687
25817W        W42664   7.815  11.351   4.856  0.0821  0.1098 -0.0415
25818W        W42665   0.560   6.078  11.719  0.4097  0.2078 -0.1912
25819W        W42666   0.561   5.087   0.932 -0.0012 -0.2027  0.1180
25820W        W42667   1.032   5.750  10.653  0.3182 -0.2368  0.1021
25821W        W42668   1.058   4.564  12.973  0.0042  0.1783 -0.1199
25822W        W42669   2.313  14.841   1.048 -0.0777  0.0410 -0.2355
25823W        W42670   8.205   7.795   1.818 -0.3185  0.3914 -0.1605
25824W        W42671  10.414  18.454   4.075 -0.1022 -0.0400 -0.1058
25825W        W42672  10.796  13.014  13.692  0.0241  0.2102 -0.1578
25826W        W42673   0.574  12.916  13.216  0.2217 -0.0492  0.0257
25827W        W42674   3.299  16.945  13.374  0.0047 -0.2687  0.2132
25828W        W42675  17.941  18.813  12.373 -0.0935 -0.3405  0.1492
25829W        W42676  11.842  12.571  14.522  0.0178  0.1210 -0.0116
25830W        W42677   6.650   1.177  13.058  0.1052  0.0879 -0.1407
25831W        W42678   2.443   9.068   4.615  0.2293  0.1590  0.2457
25832W        W42679   9.064   4.201   4.282 -0.1082  0.0429 -0.0638
25833W        W42680  10.272  15.104   1.273  0.1179  0.0751 -0.1522
25834W        W42681  15.955  16.947   4.838  0.1837 -0.2035  0.0226
25835W        W42682   1.529   8.948   2.389 -0.3170 -0.2647 -0.1415
25836W        W42683   8.897   2.153   2.203  0.2203  0.2374 -0.1389
25837W        W42684   0.663  13.318  12.167 -0.3455  0.1591  0.1449
25838W        W42685  12.002   3.319  14.891 -0.1400 -0.0876  0.1317
25839W        W42686   2.181   7.560   0.169  0.4065 -0.3158 -0.0275
25840W        W42687   3.759  15.489   1.194 -0.0554 -0.0688 -0.0602
25841W        W42688   6.461  10.802  14.020 -0.4211 -0.1280  0.2695
25842W        W42689   6.991  18.522   4.783 -0.0424  0.0449  0.1125
25843W        W42690   1.006  13.062   1.221 -0.0964  0.0870 -0.0630
25844W        W42691  15.494   6.264  13.010 -0.1817 -0.3478  0.1783
25845W        W42692   1.857  14.159   3.644  0.2129 -0.2617  0.0377
25846W        W42693   0.167  11.550  13.921 -0.1437 -0.0193  0.0306
25847W        W42694   3.787  17.761   1.846 -0.0183  0.2164  0.1322
25848W        W42695  14.834  17.837   3.890  0.1225 -0.1703  0.2411
25849W        W42696   2.472  16.069   4.701 -0.0749  0.0912  0.1910
25850W        W42697  11.609   3.426  11.217  0.1532 -0.0412  0.0179
25851W        W42698   8.883   7.820  12.856 -0.0765  0.0594 -0.0275
25852W        W42699   6.744  13.830  15.050 -0.2346 -0.4149 -0.0508
25853W        W42700   0.513   3.529   0.240  0.0937  0.4505 -0.2972
25854W        W42701  11.798  13.879  15.588 -0.0398 -0.0051 -0.0319
25855W        W42702  11.774  11.889   1.560 -0.0708  0.1939  0.1507
25856W        W42703  16.786   9.042   5.245 -0.1881  0.1672  0.0932
25857W        W42704   7.169   3.930   4.309  0.2633  0.0246  0.2612
25858W        W42705  11.451  17.099  15.716 -0.0229  0.3720  0.0235
25859W        W42706   0.836   0.527   4.218 -0.0702 -0.0299  0.0581
25860W        W42707   4.703   5.676   2.906 -0.2473 -0.0278  0.1339
25861W        W42708  17.958  13.946  11.277  0.1168 -0.0638 -0.1639
25862W        W42709  12.647   9.300   0.657  0.0145  0.0988 -0.1423
25863W        W42710  16.594  18.757  13.201 -0.0621 -0.2414  0.3112
25864W        W42711  18.671   1.178   2.793 -0.0124  0.3066 -0.2047
25865W        W42712  12.818  11.530  15.600  0.4146  0.0462  0.1812
25866W        W42713  15.274  18.352   2.004  0.1406  0.0985  0.1253
25867W        W42714   4.793  13.005  12.121  0.2414 -0.0071  0.2177
25868W        W42715  10.140   2.679  13.859 -0.1267 -0.1301 -0.1379
25869W        W42716   8.484   6.428   2.934 -0.0930 -0.3865 -0.2562
25870W        W42717   4.580  17.788   4.441  0.1141  0.0456  0.0435
25871W        W42718   1.111  15.927   5.565  0.2757  0.0086  0.4959
25872W        W42719   5.532   0.134  12.844  0.0248 -0.1476 -0.0052
25873W        W42720   3.220   7.663  11.586 -0.4503  0.0660  0.2381
25874W        W42721   9.496  15.943  11.215 -0.1917 -0.1234  0.2600
25875W        W42722   8.628   8.278  12.898 -0.0118 -0.0844 -0.0623
25876W        W42723   2.297  17.655  10.352  0.5123  0.1635  0.1801
25877W        W42724  12.683   7.678  13.634 -0.3525  0.1320  0.0363
25878W        W42725  16.431   8.614  14.406  0.1265 -0.0140 -0.2834
25879W        W42726   3.713  16.062  11.403 -0.1684 -0.0591 -0.0367
25880W        W42727  16.705  12.128   5.208 -0.1416 -0.0003  0.1732
25881W        W42728   4.430   0.787  15.747  0.4393 -0.0660 -0.0794
25882W        W42729  17.922   9.687   0.972  0.3815 -0.0010  0.2259
25883W        W42730  15.265  10.128  13.542  0.0226  0.1827 -0.2278
25884W        W42731   7.604   5.708  11.721  0.0083  0.0053 -0.4598
25885W        W42732  16.641   6.970   1.548  0.2678  0.3827  0.3190
25886W        W42733   1.375   3.961  14.899 -0.0356  0.0191  0.1706
25887W        W42734   0.517  15.978  13.826  0.0995 -0.0424 -0.1274
25888W        W42735   3.283   2.377   1.590  0.3571 -0.2262  0.1870
25889W        W42736   9.203   7.124  12.393  0.1797 -0.0309 -0.3322
25890W        W42737   6.102   7.145  14.322  0.1004  0.2469 -0.2163
25891W        W42738   2.488   5.904  14.812  0.0396 -0.0302 -0.0544
25892W        W42739   1.538   5.954   1.690  0.2232 -0.4741 -0.0217
25893W        W42740  12.411   2.588   2.673  0.1046 -0.0996  0.2395
25894W        W42741   1.200   0.477   1.650  0.1064 -0.1628 -0.2417
25895W        W42742  14.907   2.602   0.851  0.0413  0.0727  0.0530
25896W        W42743  13.651   2.541  11.259 -0.1188 -0.0149  0.1259
25897W        W42744   8.760   6.264   4.021 -0.0988 -0.1631 -0.2335
25898W        W42745   2.097  10.875   4.601  0.3967  0.0442  0.0016
25899W        W42746   7.858  12.599   1.456 -0.1534  0.2102 -0.0661
25900W        W42747   0.814  15.145   0.706 -0.1942  0.1383 -0.1966
25901W        W42748   5.888   7.299  15.611 -0.1949  0.1618  0.2634
25902W        W42749  15.577  14.055   4.738 -0.0555 -0.0273 -0.2696
25903W        W42750   0.019   6.633  11.885 -0.1560  0.1398 -0.2724
25904W        W42751  17.448   2.754   4.276 -0.0257  0.2469  0.0261
25905W        W42752   9.133  14.701  11.083  0.0548 -0.1487 -0.0707
25906W        W42753   8.590   9.019   0.809  0.0009  0.2984  0.0909
25907W        W42754  18.859   9.579  11.694 -0.0421 -0.0099 -0.0720
25908W        W42755   8.847   7.808   0.761  0.2121 -0.0585  0.2087
25909W        W42756   4.131  11.869  14.128  0.2204  0.3950 -0.5196
25910W        W42757  15.429   5.838   2.285  0.1061  0.3155 -0.0632
25911W        W42758   0.858  11.862   3.324  0.2676 -0.3500 -0.0311
25912W        W42759  11.569   6.151   0.983 -0.3588 -0.0364 -0.1457
25913W        W42760  15.424  12.042   0.497  0.0124  0.3217 -0.3852
25914W        W42761   5.174  10.448   5.651 -0.2564 -0.1034  0.1106
25915W        W42762   6.787  13.122  13.219 -0.1397  0.2519 -0.1265
25916W        W42763   1.926   7.015  14.045 -0.1424 -0.0991  0.1104
25917W        W42764  17.369   5.430  14.179  0.0125 -0.0221  0.0956
25918W        W42765  17.942   1.535  11.556  0.0713 -0.1136 -0.0821
25919W        W42766  13.344   6.476   1.218  0.0781 -0.2018 -0.0247
25920W        W42767  16.756   3.520   4.092  0.0145  0.0639  0.2279
25921W        W42768   0.057   2.407  11.592  0.2414  0.1700 -0.0049
25922W        W42769  10.124  10.977  13.385 -0.1589  0.1935  0.0888
25923W        W42770   0.774  14.871   4.364 -0.2150 -0.2169  0.0521
25924W        W42771   6.152  10.632   0.839  0.0630  0.1202  0.1733
25925W        W42772  10.551   5.709   4.791 -0.0623  0.1155  0.0321
25926W        W42773  12.286  10.792  11.755 -0.2895  0.0010 -0.1209
25927W        W42774  12.090   2.389   3.128  0.0862 -0.1240 -0.1207
25928W        W42775   8.471   3.346   3.681  0.0564  0.3379  0.0351
25929W        W42776   8.451   9.531  13.593  0.2776  0.0202 -0.0793
25930W        W42777   5.744   1.976   0.424 -0.3414  0.2289  0.3958
25931W        W42778   6.607   2.590   1.294 -0.0952  0.0008  0.0054
25932W        W42779  11.305   1.420   0.181 -0.0634 -0.2005  0.0597
25933W        W42780   9.433  13.090  14.616  0.0082  0.1506  0.2122
25934W        W42781   8.670  10.041  11.044 -0.2129  0.0890  0.1138
25935W        W42782   2.353   1.285  15.229  0.1501 -0.1038  0.1656
25936W        W42783   9.700  13.769   0.831  0.0889 -0.1188  0.1199
25937W        W42784   9.068   1.912   5.239  0.0634 -0.0683  0.0121
25938W        W42785  15.102   0.897  15.625 -0.1725  0.0340 -0.1967
25939W        W42786  15.809  17.547   0.240 -0.0255 -0.0155  0.0242
25940W        W42787   0.865   0.388  14.397  0.2585 -0.0430 -0.1897
25941W        W42788   0.920   1.876  12.543 -0.1831  0.2920  0.1719
25942W        W42789  18.721  16.409  11.568  0.0878  0.0441 -0.1211
25943W        W42790  14.789  10.918   2.986  0.1378  0.0540 -0.0574
25944W        W42791   5.326   2.447  11.652  0.0959  0.0297  0.3528
25945W        W42792   8.666   2.766   4.808 -0.0328 -0.1336 -0.1847
25946W        W42793  18.313  10.545  14.744 -0.1092 -0.0379  0.1358
25947W        W42794  10.427  13.088   2.387  0.2038  0.3419  0.0700
25948W        W42795  13.564   2.476   2.586  0.1122 -0.0682  0.0985
25949W        W42796  17.680  18.720  13.258 -0.2545 -0.1461  0.0678
25950W        W42797   2.057   3.197  12.691  0.0731  0.0508 -0.0886
25951W        W42798   4.840   6.695  13.754  0.0406 -0.1915 -0.0396
25952W        W42799  11.383   0.269  14.407 -0.0545 -0.1532  0.0273
25953W        W42800   8.373  11.339   3.998  0.1579 -0.0876  0.0127
25954W        W42801  14.401  16.216  10.801  0.2305  0.1336 -0.0939
25955W        W42802   4.755  15.851  14.526 -0.0449  0.0055 -0.2020
25956W        W42803   9.700   3.420   4.154  0.2836  0.0160  0.2622
25957W        W42804   7.856  12.336  14.331 -0.0832  0.2794 -0.1786
25958W        W42805  13.683  12.301   3.781  0.0235 -0.0008  0.2725
25959W        W42806   7.945  14.835  13.145 -0.3229 -0.0359  0.0213
25960W        W42807   1.935   0.720  15.066 -0.1875  0.4237 -0.1681
25961W        W42808  10.683  18.514  14.693 -0.2546  0.2705  0.2803
25962W        W42809   6.660   0.887  13.558  0.0029 -0.0318 -0.1331
25963W        W42810  17.431   2.458   3.899  0.3660 -0.1712 -0.1816
25964W        W42811   8.401   0.150   4.863  0.4915 -0.1854 -0.2998
25965W        W42812   1.415  14.261   3.782 -0.0076  0.0799 -0.1098
25966W        W42813   3.034   2.378   4.530 -0.1584 -0.2144 -0.0877
25967W        W42814   2.945   3.102   5.694  0.1239  0.0879  0.0241
25968W        W42815   7.482   3.964   5.753  0.0976  0.0908  0.0191
25969W        W42816   7.868   3.442  12.583 -0.1397 -0.2581 -0.2007
25970W        W42817  14.970   0.005   2.262 -0.1427  0.2372 -0.1508
25971W        W42818   9.050  18.501   4.035 -0.0994  0.0138 -0.0955
25972W        W42819  13.489   8.980  15.544 -0.0865  0.0871  0.2484
25973W        W42820   9.892   2.046   4.627  0.0673 -0.0709 -0.0295
25974W        W42821   0.790  12.597  12.902 -0.0890 -0.1361 -0.0292
25975W        W42822   7.155   5.034   5.576  0.2092 -0.0952  0.1141
25976W        W42823  13.319   0.187  13.707  0.1537 -0.3196 -0.0930
25977W        W42824  17.494  12.514   4.052  0.2056 -0.1452 -0.0459
25978W        W42825  13.452  15.541   1.372 -0.1985 -0.1075 -0.0893
25979W        W42826   0.413   3.543   0.866 -0.0863 -0.0465 -0.1652
25980W        W42827   2.290  15.917  13.230  0.1581  0.4619  0.1533
25981W        W42828   9.252   4.233   4.997 -0.2143  0.2858 -0.1408
25982W        W42829  11.168   6.293   1.491  0.0932  0.0614 -0.0040
25983W        W42830   4.813  10.115  14.007 -0.0024  0.0780 -0.0009
25984W        W42831   1.885   6.268  13.270  0.1384  0.1310  0.0708
25985W        W42832   7.250   8.594  15.019  0.1647 -0.1789  0.0479
25986W        W42833   0.348  13.386  15.047 -0.3084  0.2586  0.0448
25987W        W42834   5.853  16.173  10.714  0.0815 -0.1382 -0.0140
25988W        W42835  18.150   2.168  14.580  0.2043 -0.3130 -0.1142
25989W        W42836   9.311   0.938   0.129 -0.1427 -0.2594 -0.1032
25990W        W42837  10.384   0.813  12.576  0.3905  0.2466 -0.1177
25991W        W42838  12.670   6.973  12.441  0.1988 -0.1091 -0.3681
25992W        W42839   9.041   7.341  14.717  0.0719 -0.0053  0.0673
25993W        W42840   0.506   3.558   5.293  0.1842  0.1835 -0.4866
25994W        W42841  15.856  17.637  15.529 -0.0530  0.0612  0.2273
25995W        W42842  10.104  13.789  11.853  0.2348  0.0036  0.2429
25996W        W42843   9.939   3.524  12.799  0.1012 -0.0370  0.0284
25997W        W42844   5.795   1.590   4.361  0.0481  0.1597  0.0645
25998W        W42845  15.646   1.372  14.074  0.1966  0.2314  0.4560
25999W        W42846  10.838   5.817   2.105 -0.1119 -0.1037 -0.0715
26000W        W42847   7.777  18.469   2.257  0.1143 -0.2547  0.1572
26001W        W42848  10.124  18.611  14.675  0.1336 -0.0707 -0.0553
26002W        W42849  13.776   9.050   3.727  0.1470  0.0569 -0.1043
26003W        W42850  14.442   0.488   5.284  0.2113 -0.2289  0.1745
26004W        W42851  10.811  17.976   3.224 -0.0551  0.2467 -0.0987
26005W        W42852   8.145  18.437   4.091  0.0278 -0.2765  0.1945
26006W        W42853   0.822  14.383   4.587  0.1141 -0.1100 -0.2786
26007W        W42854   9.526   3.421  13.877 -0.2292  0.1899 -0.2594
26008W        W42855   1.585   6.892   1.468  0.1994  0.1588  0.5332
26009W        W42856   0.978   1.010   4.394  0.0472 -0.2752  0.1806
26010W        W42857  15.165   5.241   2.958 -0.2009 -0.1898  0.1083
26011W        W42858  17.428   1.225   3.584 -0.2989  0.0074  0.1090
26012W        W42859   5.783  12.768   1.699  0.1973  0.1483 -0.2003
26013W        W42860  17.886   2.490  13.645  0.0781 -0.3031  0.2750
26014W        W42861   0.033  13.499  15.605  0.1365 -0.1222  0.0781
26015W        W42862  14.835  12.333  14.915  0.2971 -0.0675  0.1524
26016W        W42863   2.047  18.247  14.201 -0.0203  0.4190 -0.1257
26017W        W42864   5.718  15.857  12.678  0.1608  0.0011  0.0404
26018W        W42865   8.547   8.193  13.767  0.2366 -0.0797  0.3382
26019W        W42866   6.265  16.004   1.820  0.3497 -0.0358 -0.3058
26020W        W42867   5.807  12.607  10.947  0.0018 -0.0526 -0.0954
26021W        W42868   6.740  17.362  14.530  0.0373 -0.1021  0.1363
26022W        W42869  16.386  15.151   2.576  0.0991 -0.0255  0.1686
26023W        W42870  17.859   4.030  14.482 -0.0609  0.0506 -0.2764
26024W        W42871   0.156   7.007   0.352 -0.0408  0.5197 -0.0206
26025W        W42872   4.282   1.595  15.261 -0.2308 -0.0125 -0.0719
26026W        W42873  13.771   4.797   5.695  0.0096 -0.0725  0.0226
26027W        W42874  10.792  18.152   1.035 -0.0007  0.1182  0.0351
26028W        W42875   4.181   9.529   4.275 -0.1533 -0.2112 -0.0360
26029W        W42876   7.887   8.821  12.568 -0.0645  0.1731  0.1956
26030W        W42877  13.586  12.399   1.903  0.4145 -0.3479 -0.1258
26031W        W42878  15.436  10.947   5.840  0.0932  0.1160  0.1873
26032W        W42879  17.488  12.101   4.846 -0.4176 -0.2391  0.3130
26033W        W42880   4.947   9.680  14.958  0.2027 -0.5283  0.1015
26034W        W42881   0.814   6.214  15.729 -0.0632  0.1383  0.0743
26035W        W42882  16.576  17.985   3.827 -0.0926  0.0490 -0.3805
26036W        W42883   2.652  15.666   4.392  0.1236 -0.2499 -0.1573
26037W        W42884   2.715   0.950   0.834  0.3515  0.0371 -0.1160
26038W        W42885   3.751   0.164   5.436 -0.0777 -0.0200 -0.0101
26039W        W42886   5.664   6.448  14.806  0.1807  0.0111  0.3395
26040W        W42887   4.541   4.344   3.635  0.1653 -0.1534 -0.1066
26041W        W42888  11.158  15.495   1.390  0.0658  0.1490 -0.0585
26042W        W42889   6.363   7.057  13.633 -0.0547 -0.2799  0.2264
26043W        W42890   6.692  17.785   4.752 -0.0484 -0.1435 -0.0959
26044W        W42891  12.606   6.613  14.615 -0.0903  0.2403  0.2480
26045W        W42892   9.753   6.028  13.576 -0.1951  0.1984 -0.0052
26046W        W42893   9.697  16.997  14.035  0.1828  0.5260 -0.1899
26047W        W42894   0.016   8.457   1.116 -0.0855  0.0416  0.0081
26048W        W42895  11.275  15.314  13.017 -0.1311  0.1033 -0.1714
26049W        W42896   6.675  18.544   4.397  0.2244 -0.1260  0.2429
26050W        W42897   6.970   1.991   5.218  0.1664  0.0563  0.1878
26051W        W42898   6.253   8.395  15.157  0.2729 -0.2333 -0.1966
26052W        W42899   5.310  16.617   3.328 -0.2769 -0.1766 -0.0753
26053W        W42900   7.403  12.365   3.979 -0.0900  0.0606 -0.2795
26054W        W42901  10.012  18.776  11.614  0.0097 -0.0032  0.2635
26055W        W42902   6.073   1.365  13.990  0.1661  0.2995  0.2514
26056W        W42903  17.582   2.606  13.997 -0.2993  0.0001 -0.0695
26057W        W42904   2.101   9.596   3.553  0.0691 -0.0152  0.0558
26058W        W42905   1.865  10.445  12.644 -0.2107  0.0565 -0.0320
26059W        W42906  11.664   2.824  15.098  0.3220 -0.3335 -0.0153
26060W        W42907  17.686   6.345  14.396  0.0182  0.2012 -0.1886
26061W        W42908  10.012  16.762  11.819  0.0696  0.3129  0.2193
26062W        W42909   6.276   8.218   2.747 -0.2174 -0.0969  0.2293
26063W        W42910  12.587   3.250   1.919  0.1335  0.0787  0.0509
26064W        W42911  17.532  13.146   1.683 -0.0303  0.1096 -0.1165
26065W        W42912  16.108   0.600   1.782  0.0737  0.1925  0.1491
26066W        W42913  10.506   7.417  11.177  0.1484  0.2006 -0.1311
26067W        W42914  18.075   5.339  11.926 -0.0814  0.0409  0.0771
26068W        W42915  15.488   4.131   4.101 -0.0542 -0.0702  0.2069
26069W        W42916   7.809   4.908  14.514  0.1267  0.1171 -0.0548
26070W        W42917  16.386  17.545  15.169 -0.0741 -0.1154 -0.0479
26071W        W42918  15.460  14.202  15.471 -0.2404  0.1639  0.4579
26072W        W42919   7.826  11.191  11.471  0.0291 -0.0802 -0.0275
26073W        W42920   3.916  10.066   3.596 -0.2269  0.0675  0.1534
26074W        W42921   6.878   2.863   0.967  0.0586 -0.1141  0.0048
26075W        W42922   3.938   8.950   0.163  0.1991  0.0539  0.1349
26076W        W42923  12.553   7.023  15.569  0.0600 -0.0690  0.1929
26077W        W42924   7.012  14.886   5.354  0.0032 -0.0348 -0.0522
26078W        W42925  13.920  11.287  14.771  0.1049 -0.0157  0.0459
26079W        W42926  16.904  16.337   4.929  0.0106 -0.0079 -0.1667
26080W        W42927   0.714  13.519  10.815 -0.0988 -0.1090  0.0946
26081W        W42928   1.694  17.032  11.884 -0.2153 -0.0011  0.0200
26082W        W42929   8.600  10.632   0.774  0.3132 -0.1176 -0.3493
26083W        W42930  14.818  11.370  15.201 -0.1523  0.0891  0.3186
26084W        W42931  10.986   5.527  10.970 -0.0572 -0.0644  0.0514
26085W        W42932   5.194   7.158  14.865 -0.0089 -0.0574 -0.0549
26086W        W42933  10.386  14.686   4.941  0.2063 -0.0015 -0.1449
26087W        W42934  16.773  16.340   2.279 -0.4363  0.1026  0.1311
26088W        W42935  16.726  12.437  14.584  0.1150  0.0950  0.0709
26089W        W42936  18.836  17.782  15.593  0.1228 -0.3163  0.3299
26090W        W42937  14.645   3.342   1.355 -0.0168  0.0910 -0.2968
26091W        W42938   8.403   9.188   2.958 -0.0507 -0.2118  0.1792
26092W        W42939   7.632   2.848   2.875 -0.0109  0.0501 -0.1362
26093W        W42940  13.965   3.913   4.885  0.1987  0.0803  0.0162
26094W        W42941   9.561  14.307   2.408  0.0451  0.1325 -0.0701
26095W        W42942   8.605   1.651  14.298  0.1265  0.2974  0.1698
26096W        W42943  16.687   3.683   2.425 -0.0286 -0.2072  0.1985
26097W        W42944   1.631   1.794   0.913 -0.3858  0.2816 -0.2397
26098W        W42945  13.367   6.706   4.621 -0.0093 -0.0892  0.0560
26099W        W42946   6.771  10.482  15.293 -0.2516 -0.0353 -0.1435
26100W        W42947  16.032   9.743   1.519  0.2068  0.3950 -0.0095
26101W        W42948  11.593   6.768  13.329 -0.0992  0.1577 -0.1564
26102W        W42949   4.891   5.171  13.199 -0.1101 -0.3669 -0.4906
26103W        W42950  15.799  15.984   2.816  0.1103 -0.0051 -0.1274
26104W        W42951  14.292   4.223  11.696  0.1236 -0.3578 -0.0924
26105W        W42952   9.103  11.371   1.242  0.0399 -0.1629 -0.0091
26106W        W42953   0.413   4.984  15.669  0.0824 -0.1645 -0.1777
26107W        W42954   0.003  16.214  10.937 -0.0041  0.3544  0.1796
26108W        W42955   2.738  13.734  15.561  0.0924  0.2381  0.2254
26109W        W42956   1.353   7.302  11.419  0.0970  0.0071  0.2104
26110W        W42957   5.645  16.075   3.122 -0.2303  0.1778  0.4106
26111W        W42958   9.650  17.476  11.300  0.0811 -0.0572  0.2988
26112W        W42959   6.031  16.183   2.286 -0.0357  0.0134 -0.1464
26113W        W42960   0.782   8.503   4.633  0.1490 -0.4448  0.2901
26114W        W42961  16.853   5.983  15.774  0.0321 -0.4525  0.1761
26115W        W42962  15.071   4.397  12.598 -0.0546 -0.0370 -0.1916
26116W        W42963   3.814   3.032  14.944 -0.0561  0.0616 -0.0346
26117W        W42964  16.647  12.073   1.480  0.0112  0.2905  0.2096
26118W        W42965   0.087   2.260  12.059  0.2146  0.1025  0.1169
26119W        W42966   2.686   4.981   1.380 -0.1977  0.2166 -0.3113
26120W        W42967   5.758  18.361  12.457  0.3966 -0.4219  0.2889
26121W        W42968  11.607  15.609   0.252  0.2452  0.1466  0.1186
26122W        W42969   2.465   9.842   3.921  0.1976  0.3041  0.0173
26123W        W42970  13.272  15.394  15.387  0.1313 -0.0255  0.0784
26124W        W42971   1.426  15.680   0.885  0.0600 -0.2551 -0.0061
26125W        W42972   3.283   8.351  11.460  0.5104 -0.0547  0.0139
26126W        W42973   0.475   3.557  14.327 -0.2271  0.2393  0.1409
26127W        W42974   8.940   9.583  10.293  0.1940 -0.5102 -0.1499
26128W        W42975  17.042   7.850   1.412 -0.0993 -0.2303 -0.3457
26129W        W42976  12.492  17.876   0.420  0.1523 -0.0184  0.0193
26130W        W42977   7.500   6.561   4.709  0.3123 -0.2910 -0.2340
26131W        W42978  11.927  15.820  13.553  0.1384 -0.2311 -0.0231
26132W        W42979  14.970   4.295  13.910  0.3006 -0.0960  0.1113
26133W        W42980  15.952  18.370  13.593  0.0442  0.1817  0.1078
26134W        W42981   1.709   7.940  11.827 -0.1910  0.0348  0.0735
26135W        W42982   5.810  12.315  15.153 -0.0561  0.2163  0.0309
26136W        W42983  16.162   9.245   1.644  0.0384 -0.1956  0.1163
26137W        W42984   4.557   4.319  12.314  0.1280  0.3562  0.5130
26138W        W42985  17.601  11.312  11.657 -0.2144 -0.1368  0.0694
26139W        W42986   6.584   9.091   0.077  0.0459  0.1374  0.1780
26140W        W42987  13.359  18.088   1.906  0.2971 -0.0827 -0.1568
26141W        W42988  13.487   0.129  15.636  0.1238  0.2418  0.1768
26142W        W42989   2.311  15.308   2.120  0.1994 -0.2665 -0.0149
26143W        W42990   1.929   0.351   3.427  0.0036 -0.0396 -0.1135
26144W        W42991  17.089   3.261  13.372 -0.2232  0.3362 -0.2583
26145W        W42992   6.007  11.074  13.254 -0.0247 -0.1430 -0.0507
26146W        W42993   6.019  10.623  15.760 -0.0277  0.1108 -0.2884
26147W        W42994   7.896  12.503   4.051  0.0558 -0.1981  0.4165
26148W        W42995  17.936   4.572   1.459  0.2344  0.1899 -0.2862
26149W        W42996  18.374  11.482  13.133 -0.1016  0.2081 -0.0194
26150W        W42997   6.883  15.362   5.152 -0.1808 -0.0358  0.1552
26151W        W42998  17.003  14.757  15.165  0.1342  0.0398 -0.2798
26152W        W42999   5.514   7.336  15.214 -0.0995  0.2325 -0.0418
26153W        W43000   6.708  11.712  14.346 -0.1711 -0.3084  0.2201
26154W        W43001  16.450  13.446   4.564 -0.1132  0.0179  0.1537
26155W        W43002   3.205   0.213   0.533 -0.0510 -0.1506 -0.3571
26156W        W43003  13.503   2.814   1.805 -0.0435 -0.0398 -0.1114
26157W        W43004   5.318   6.841   0.430 -0.1901 -0.0152  0.0633
26158W        W43005  15.983   7.315  14.613 -0.1509 -0.1338 -0.2876
26159W        W43006  17.162  17.615  13.773  0.0260  0.1825  0.0636
26160W        W43007  12.920   0.597  11.134 -0.0146 -0.0803  0.0720
26161W        W43008   3.414  14.188  11.617 -0.0955  0.2607  0.1909
26162W        W43009  16.867   3.499  14.419  0.4106 -0.4252 -0.1513
26163W        W43010   0.627   9.060  12.168 -0.0725  0.3829  0.1285
26164W        W43011  11.042   5.409   2.383  0.1124 -0.0456  0.1496
26165W        W43012   5.831   8.021   0.557 -0.3726 -0.0709 -0.0034
26166W        W43013   8.269  12.417   1.231  0.0558  0.1409  0.0978
26167W        W43014  12.614  13.551   0.487 -0.0093 -0.4001  0.0482
26168W        W43015   2.339   5.077   3.265  0.1090 -0.1819 -0.1416
26169W        W43016   4.800  16.188  13.567  0.0962  0.0673 -0.0935
26170W        W43017   6.302  13.949  13.435 -0.3502 -0.1421  0.1630
26171W        W43018   6.489  13.983   4.258 -0.1098  0.2244  0.0065
26172W        W43019  15.996  12.536   3.140  0.1597 -0.1943 -0.2811
26173W        W43020   9.004   5.852   1.194  0.0653  0.0779 -0.2078
26174W        W43021   8.076  10.700   4.056  0.2479 -0.1255  0.0201
26175W        W43022  10.389  10.856   4.235 -0.0914 -0.1063 -0.0991
26176W        W43023  16.757   9.168  13.507 -0.1234  0.1351  0.2580
26177W        W43024   9.117  10.341   0.494  0.1181 -0.0304  0.1199
26178W        W43025   6.996   3.514   1.630  0.0145  0.0738 -0.5119
26179W        W43026  12.158  10.986  12.732  0.0086  0.1384  0.3132
26180W        W43027   9.664   3.774   3.756  0.5624  0.0239  0.0903
26181W        W43028   2.698   5.555  12.668 -0.0252 -0.0948  0.0953
26182W        W43029   6.289   0.546  14.400 -0.1510 -0.0579  0.0710
26183W        W43030   6.502  14.706  12.387 -0.2363  0.2362 -0.0044
26184W        W43031  13.011   9.566   5.521  0.0912  0.0228  0.2581
26185W        W43032  14.108   8.322   3.475 -0.2378 -0.0712  0.1398
26186W        W43033  18.363   3.695   2.511  0.2331  0.1121 -0.1802
26187W        W43034  13.552  15.371   1.819 -0.1765  0.0561  0.0545
26188W        W43035  15.897   9.611  12.228 -0.0028 -0.0916  0.4973
26189W        W43036   9.112   8.157  12.034  0.0802  0.2359 -0.1406
26190W        W43037  17.246   6.110  13.260 -0.0119 -0.0438  0.1271
26191W        W43038  15.489   5.130   3.889 -0.1594 -0.2581  0.0870
26192W        W43039   3.038  12.982  12.372 -0.2294  0.2984  0.1809
26193W        W43040   8.418  14.296  11.602  0.3462 -0.0690  0.0138
26194W        W43041   5.257   0.553  15.254  0.1102 -0.0414 -0.4918
26195W        W43042   8.741  13.447   0.195  0.0174 -0.2890  0.1402
26196W        W43043  14.287   7.550   5.085  0.0984 -0.2036 -0.0290
26197W        W43044  17.924  16.450   4.502  0.2257 -0.1389 -0.0000
26198W        W43045   0.502   2.303  11.762 -0.1612 -0.2452 -0.1571
26199W        W43046  18.707   0.642   3.628  0.2287 -0.0534  0.0780
26200W        W43047   9.746  14.561   3.361 -0.0817 -0.0246 -0.0480
26201W        W43048   0.272  14.590   3.410  0.2496  0.0489  0.0714
26202W        W43049   4.152   9.691  11.630 -0.1138 -0.1143  0.0545
26203W        W43050   9.586   4.052   0.429  0.2849 -0.2053 -0.3087
26204W        W43051  11.160   9.028  12.730  0.0587  0.1918 -0.0024
26205W        W43052  11.815   5.316  13.493  0.3684 -0.0049  0.1036
26206W        W43053   8.398   6.955  13.224  0.0471  0.1638 -0.0574
26207W        W43054   5.743   1.434  12.866  0.3850  0.1362  0.3319
26208W        W43055  17.831  12.531  11.516 -0.1297  0.1176 -0.1155
26209W        W43056   6.977   0.814   0.099  0.2583 -0.1764  0.0711
26210W        W43057   3.475  11.268  12.885  0.2234  0.0865 -0.0052
26211W        W43058   1.134   8.620   5.446  0.3167  0.0967 -0.1147
26212W        W43059  15.767   9.021   2.284 -0.1461  0.2111  0.0606
26213W        W43060   2.613  12.481   0.868  0.2877  0.0167 -0.2289
26214W        W43061   4.049  13.100  14.662 -0.3494 -0.2172  0.0645
26215W        W43062   3.707  13.220   0.805  0.0410 -0.0565  0.2161
26216W        W43063   8.021   0.130  10.477 -0.2995 -0.3078 -0.0916
26217W        W43064  15.717  11.702   2.358 -0.1076  0.2168 -0.0498
26218W        W43065   9.215  13.533  13.755  0.1800 -0.0460 -0.3476
26219W        W43066   2.808   7.050   2.585 -0.1066 -0.3570  0.3478
26220W        W43067   7.234   1.930   1.108 -0.0001  0.0801  0.0423
26221W        W43068  12.176  12.753   2.512 -0.1056  0.0037 -0.0319
26222W        W43069  13.947  14.916  14.973 -0.1720 -0.2039 -0.0665
26223W        W43070  16.510  11.612   1.208  0.1718  0.0881  0.1254
26224W        W43071  12.818  14.619  15.441 -0.0251  0.0567  0.0657
26225W        W43072  13.506  11.828  10.862  0.0295 -0.0582  0.3153
26226W        W43073   3.629  14.827  14.681 -0.2320 -0.0326  0.0617
26227W        W43074  18.648  12.490  13.509 -0.2182 -0.2704 -0.1127
26228W        W43075   4.967  14.919  15.648 -0.3784  0.4499 -0.0598
26229W        W43076   7.479  10.088   3.666  0.1252 -0.0408 -0.0645
26230W        W43077   9.273  15.229   1.660  0.0246  0.0553 -0.0601
26231W        W43078   7.168  12.800  13.524  0.0296 -0.1054 -0.2856
26232W        W43079  14.630   3.475   1.947  0.2638  0.0186  0.1660
26233W        W43080   3.287  15.087   5.669 -0.0566 -0.2571  0.3295
26234W        W43081  15.500   3.819  15.248  0.0416  0.1982 -0.0820
26235W        W43082  13.849  10.784  14.437 -0.1175 -0.2879 -0.0414
26236W        W43083  10.042   2.924   2.420  0.2957 -0.2213 -0.3977
26237W        W43084  15.543   3.838  13.199  0.0213 -0.0976 -0.0420
26238W        W43085  13.414  17.535  11.790  0.1563 -0.0969 -0.0980
26239W        W43086  14.829  17.297  12.952  0.1550 -0.1126 -0.0060
26240W        W43087   0.330  13.253  11.077  0.0077 -0.1629  0.0370
26241W        W43088   5.291   1.538  12.103  0.1890 -0.0416 -0.0885
26242W        W43089   5.417   3.920   5.564  0.3020 -0.3165  0.1305
26243W        W43090   8.996  13.985  10.437 -0.1004  0.0487 -0.2673
26244W        W43091   7.090   0.549  12.669  0.3221  0.0029  0.2287
26245W        W43092   7.413   3.535  12.474 -0.0765  0.0422 -0.0584
26246W        W43093  11.855   6.585  12.446 -0.0607  0.0704 -0.1214
26247W        W43094  11.861   0.430   2.876 -0.1295  0.1870  0.0433
26248W        W43095  10.127  11.027   5.184  0.2385 -0.0550  0.1446
26249W        W43096  16.785   9.114   6.298 -0.1868  0.0001  0.1525
26250W        W43097  16.476   2.692  11.022  0.1471  0.0268 -0.0754
26251W        W43098   3.227   3.312  11.375  0.3003 -0.2623 -0.0707
26252W        W43099   4.018  11.385   4.103 -0.2257  0.0439 -0.1978
26253W        W43100   2.433  15.579   4.922  0.2104  0.1926  0.0209
26254W        W43101  13.429   1.851  14.428 -0.1398  0.5282 -0.2389
26255W        W43102  15.749   4.158  15.575  0.2291  0.0033  0.5071
26256W        W43103   1.193   2.127  15.117 -0.2355  0.2034  0.2720
26257W        W43104  10.456  10.519  11.794  0.0571  0.0750  0.0876
26258W        W43105   3.788  10.011   2.206 -0.0727 -0.0790 -0.1938
26259W        W43106  12.745  16.165  11.921  0.2144 -0.0539 -0.2004
26260W        W43107   0.873  13.936  15.556 -0.2192  0.2514 -0.3198
26261W        W43108   4.963   2.919  13.075  0.0898 -0.0205  0.1606
26262W        W43109   2.227  15.633  12.647 -0.0721  0.1240 -0.1417
26263W        W43110  14.273   8.009   0.273 -0.1626 -0.0290 -0.0733
26264W        W43111   3.733  16.149   3.697 -0.1400  0.3459  0.1052
26265W        W43112  10.807   0.652   3.677 -0.0014  0.0745 -0.0491
26266W        W43113   9.121  18.214   1.070  0.0156 -0.0843 -0.1766
26267W        W43114   9.625   3.884  15.670  0.1913  0.2810  0.2717
26268W        W43115  16.243  13.395   2.588  0.0861  0.3041  0.2603
26269W        W43116   2.671   1.889   0.586 -0.1393 -0.0048 -0.0080
26270W        W43117  10.320   8.320   1.843 -0.1640  0.1880 -0.2134
26271W        W43118  13.138   9.754   2.850 -0.1271 -0.0857 -0.0049
26272W        W43119  14.534  13.679   0.467  0.0278 -0.1207 -0.2054
26273W        W43120   1.571  12.788  15.608  0.4249 -0.0510 -0.0261
26274W        W43121   1.680   5.737  13.415  0.1954 -0.0772  0.3809
26275W        W43122  17.041  11.800   1.230  0.2316  0.3127 -0.1726
26276W        W43123  11.669   3.560   1.966  0.3816 -0.0259  0.1058
26277W        W43124   7.080  12.593  14.912 -0.0526  0.0946  0.1301
26278W        W43125   2.374   7.070   0.408  0.0027 -0.0654 -0.2040
26279W        W43126  14.893   8.732  11.666  0.0826  0.0187  0.1411
26280W        W43127   7.921   2.653   1.960 -0.0921 -0.1815  0.1636
26281W        W43128  15.601   3.297  13.297  0.1856 -0.2636 -0.1413
26282W        W43129   7.848  16.112  13.557 -0.0107 -0.0079 -0.3602
26283W        W43130   2.952  15.689   2.439 -0.1648  0.1998  0.1691
26284W        W43131   4.440   1.248  11.314  0.2138  0.1666 -0.0520
26285W        W43132  17.071   6.713   1.771 -0.1516 -0.1060  0.3554
26286W        W43133   5.671   2.445   2.581 -0.2176 -0.3027 -0.3042
26287W        W43134   4.656  13.383   2.118 -0.0735  0.1255  0.0641
26288W        W43135  10.435   8.601   4.111 -0.0107 -0.1759  0.0254
26289W        W43136  18.059   7.982   1.992  0.0305  0.1762  0.1623
26290W        W43137  13.138  16.943  14.183  0.2931 -0.0467 -0.0194
26291W        W43138  14.797  18.356   2.205 -0.1768 -0.0567 -0.3906
26292W        W43139   8.070  15.068   2.139 -0.2164  0.4629  0.0460
26293W        W43140   3.034  18.131   0.774  0.0816 -0.0351  0.0918
26294W        W43141   8.737   5.195   0.445  0.1269 -0.0679  0.5001
26295W        W43142  12.312  11.681   3.409 -0.5180 -0.1651  0.1153
26296W        W43143   7.074   7.420  14.739 -0.1105 -0.3371  0.1112
26297W        W43144   0.949   1.672   5.070 -0.2508 -0.0676  0.1299
26298W        W43145  11.876   2.074  14.397  0.0426 -0.0881 -0.0249
26299W        W43146   7.554   6.492   1.166 -0.0580 -0.4417  0.0401
26300W        W43147  12.416   3.798   0.304  0.1591 -0.2117 -0.1134
26301W        W43148   8.037   7.374  14.906 -0.1773 -0.0868 -0.2027
26302W        W43149   5.917  15.345   0.105  0.2325  0.0471  0.1613
26303W        W43150  16.795   0.128  15.302  0.2449  0.1021  0.0386
26304W        W43151   1.245  17.033   1.555 -0.0928 -0.1183 -0.0775
26305W        W43152  10.849   5.543   3.228 -0.0006 -0.0773 -0.2490
26306W        W43153  14.512   6.736  14.166 -0.0263  0.0255 -0.1556
26307W        W43154   3.925   5.571   2.310 -0.0189 -0.0418 -0.1377
26308W        W43155   5.356   9.186   4.808  0.1613 -0.1882 -0.0507
26309W        W43156  17.495   8.229   3.649 -0.0062 -0.1869  0.0206
26310W        W43157   9.375  16.475  14.031 -0.2188  0.0475  0.0887
26311W        W43158   9.010   8.821   1.060  0.4160 -0.0811  0.3112
26312W        W43159  16.794   5.296  15.237  0.2970 -0.1317  0.0064
26313W        W43160  12.063   5.050  13.053 -0.3045  0.2950  0.0120
26314W        W43161  14.390   2.411  13.120  0.2731 -0.3756 -0.1022
26315W        W43162   9.478   4.543   0.717 -0.3636 -0.1172  0.0044
26316W        W43163  13.709  13.601   1.558  0.0182 -0.1107 -0.2767
26317W        W43164   5.166   5.203   1.300 -0.0717  0.1084 -0.1056
26318W        W43165   4.154  14.822   5.623  0.1706 -0.3458  0.0491
26319W        W43166   3.205   5.340   1.254  0.1710 -0.5672  0.0184
26320W        W43167  11.053   3.424   3.197  0.0317 -0.2473  0.2948
26321W        W43168  15.168   7.226  12.897 -0.4779 -0.1008 -0.0808
26322W        W43169   4.870   9.545   3.576  0.5859 -0.3122  0.3517
26323W        W43170  15.656  11.667   0.264 -0.1869  0.2354 -0.0483
26324W        W43171  15.856  11.705  15.564 -0.0103 -0.1209 -0.0616
26325W        W43172  11.047   6.080   1.037 -0.0406 -0.2736  0.1148
26326W        W43173  10.116  16.279  11.778 -0.1628  0.0458 -0.1350
26327W        W43174  12.526   1.277   2.503  0.0940  0.0820 -0.3016
26328W        W43175   8.320   0.508  13.767  0.1471  0.0891  0.3330
26329W        W43176   3.602  15.692   3.887 -0.1300 -0.1492 -0.1289
26330W        W43177   6.938   6.595  15.279 -0.1348 -0.0062 -0.5530
26331W        W43178   1.883   8.809   3.370 -0.0580 -0.4592  0.1299
26332W        W43179  10.764   1.260   0.315 -0.2176  0.0636  0.3697
26333W        W43180   8.617   3.741   0.693 -0.2897 -0.2441  0.0369
26334W        W43181   4.428  12.059   1.493 -0.3603  0.2378  0.0153
26335W        W43182   0.494  14.248   0.016 -0.3333  0.0358 -0.0575
26336W        W43183   8.737  12.293   4.546 -0.1626  0.1899  0.0144
26337W        W43184  10.301  14.843  13.975  0.2078 -0.3537 -0.0609
26338W        W43185  11.236  18.309  14.601 -0.0072  0.2033 -0.0374
26339W        W43186  12.597   4.351  11.059 -0.1066 -0.1749  0.4394
26340W        W43187   8.665  10.324  13.086 -0.1750 -0.0384 -0.1160
26341W        W43188   9.023   0.894  11.432  0.2464  0.0741 -0.2606
26342W        W43189   0.313   4.231  13.893 -0.1121  0.2943  0.1305
26343W        W43190  11.664  11.283   4.930 -0.0423 -0.0371  0.1001
26344W        W43191  17.928  13.029   0.568 -0.0637 -0.4668 -0.0495
26345W        W43192   9.750  12.981  14.198  0.0344  0.1824  0.3891
26346W        W43193  17.901   7.695  11.931  0.1669 -0.5620  0.4179
26347W        W43194   6.537   9.012  13.519 -0.0121  0.1442 -0.1166
26348W        W43195   4.929  18.538   0.706 -0.0252  0.1177 -0.0289
26349W        W43196   8.593  18.422   1.926 -0.3085  0.1243 -0.1709
26350W        W43197  17.716   3.991  13.995  0.1828 -0.1479 -0.2701
26351W        W43198  13.349  10.623  11.376 -0.1901  0.0436 -0.1120
26352W        W43199   1.452   3.682   2.147  0.0112  0.4627  0.3385
26353W        W43200   7.908  13.126   3.057  0.0612 -0.1283 -0.1245
26354W        W43201  14.746   7.426   4.901 -0.0993  0.0053 -0.0472
26355W        W43202  10.203  18.281   3.294  0.2424 -0.3236 -0.1335
26356W        W43203   2.689   3.782  13.050  0.3635  0.1456  0.1314
26357W        W43204  12.420   5.481  14.749  0.2476 -0.0470 -0.1190
26358W        W43205   0.992  17.790   0.210 -0.0317  0.2714 -0.2478
26359W        W43206   9.011  15.551   1.986  0.1292  0.0338  0.3166
26360W        W43207  18.342  14.177   4.921  0.2027  0.0887 -0.1434
26361W        W43208   1.613   0.315   1.373  0.0578 -0.0241 -0.1749
26362W        W43209   7.893  12.874   3.516 -0.0539  0.2919 -0.1813
26363W        W43210  15.080  10.484   4.231  0.1657 -0.3712  0.1789
26364W        W43211  16.089   3.449   4.133  0.0077 -0.3268  0.0789
26365W        W43212  14.349  11.129   2.235 -0.1488 -0.0182  0.2693
26366W        W43213  13.102  17.753   1.204 -0.2989  0.2455  0.2458
26367W        W43214  12.118  16.541  12.496 -0.2364 -0.0330 -0.1853
26368W        W43215   9.265  18.733   0.185  0.1169 -0.1335  0.1212
26369W        W43216  13.746  18.566   2.608  0.3961  0.0615 -0.2030
26370W        W43217   1.787   4.569  13.729  0.0226  0.0766  0.4863
26371W        W43218   1.083  16.428   0.423 -0.0739 -0.0920 -0.0217
26372W        W43219  10.595  13.756   0.767 -0.2881 -0.1121 -0.1293
26373W        W43220   0.107   2.361  13.911 -0.1214 -0.1493 -0.0063
26374W        W43221  16.198   8.803   6.207  0.1022  0.2529 -0.0893
26375W        W43222   0.962  10.071  14.796 -0.1427 -0.0266  0.3554
26376W        W43223   4.526   4.870   2.339  0.2559 -0.2253  0.1348
26377W        W43224   5.988  11.990   1.898  0.1730  0.2547 -0.0196
26378W        W43225   8.403  12.297  14.050  0.2462 -0.0443 -0.0479
26379W        W43226   7.157  10.301  11.448 -0.2084  0.1217 -0.1335
26380W        W43227  16.716   1.038   2.216 -0.1175 -0.0553 -0.1669
26381W        W43228  13.350  12.126  15.657 -0.2512 -0.1425 -0.1332
26382W        W43229   3.445   8.520   3.855  0.2403  0.1687  0.2561
26383W        W43230  18.278  15.182   4.561  0.0874 -0.0883 -0.0490
26384W        W43231   8.004  13.095  14.653 -0.0098 -0.0521  0.0601
26385W        W43232  13.118   5.842   4.828  0.3343 -0.1759  0.0956
26386W        W43233  15.052  16.791   0.429 -0.3019 -0.0266  0.2744
26387W        W43234  18.425   7.014   0.566  0.0037  0.2226  0.2512
26388W        W43235   9.696   2.435   5.692  0.1690 -0.0169  0.1339
26389W        W43236   8.254  17.962   0.230  0.0152 -0.3743  0.0309
26390W        W43237   0.750   4.972  12.672 -0.0268  0.2138  0.0652
26391W        W43238  15.295  13.447   3.807  0.0484 -0.0840 -0.0828
26392W        W43239  18.041   2.202   4.603 -0.1615  0.2970 -0.2263
26393W        W43240   8.063   9.830  13.633  0.0263  0.0233 -0.3074
26394W        W43241  13.631   1.072   0.190  0.1749  0.1007  0.0214
26395W        W43242   1.096  16.712   3.143  0.0416 -0.3215  0.1238
26396W        W43243  14.814   4.619   0.468 -0.1041 -0.1716 -0.0820
26397W        W43244   9.863  18.421  11.228  0.1861  0.1235  0.0604
26398W        W43245  11.436   9.612   3.157  0.2136 -0.3951 -0.1661
26399W        W43246  11.412   2.137   1.434 -0.1387  0.2984 -0.0538
26400W        W43247   8.292   8.796  11.013 -0.0753 -0.0713 -0.2726
26401W        W43248   9.462  17.799  14.566 -0.2752 -0.1452  0.0819
26402W        W43249  15.409  13.883   3.419 -0.0458  0.0331  0.1985
26403W        W43250   6.689   5.178   5.686 -0.0084  0.1537 -0.2297
26404W        W43251  12.158   8.714   5.199 -0.0864 -0.1595 -0.0510
26405W        W43252   1.399   4.566  14.268  0.0009 -0.2536 -0.2436
26406W        W43253  13.317   8.148  15.029 -0.1063 -0.0282 -0.0226
26407W        W43254  15.158   0.770   4.805  0.0439 -0.0998  0.0034
26408W        W43255  15.437  16.670   0.070 -0.0629  0.0873 -0.1348
26409W        W43256  12.874   6.357   0.355  0.1211 -0.1231 -0.0751
26410W        W43257   5.033   4.365  12.331  0.0284  0.0367 -0.2306
26411W        W43258   1.105  17.553  11.964  0.0956  0.2563 -0.0045
26412W        W43259  18.834   2.111  14.963  0.1337 -0.1909 -0.0160
26413W        W43260   9.835  12.169   2.996  0.2446  0.1104  0.1593
26414W        W43261   0.006  17.353  14.292 -0.1620  0.0447 -0.1036
26415W        W43262  14.137   2.847  14.848  0.0323 -0.3023 -0.0394
26416W        W43263  16.243   4.798   4.288  0.0357  0.0838  0.2296
26417W        W43264   6.587   5.366  13.405 -0.0466 -0.1812  0.2253
26418W        W43265   7.994   4.486   4.549 -0.1722 -0.2380  0.2385
26419W        W43266  14.946  18.059  10.575 -0.2915  0.1383 -0.0575
26420W        W43267  16.075   3.386  14.125  0.2145  0.0007  0.0244
26421W        W43268  13.637   4.308   4.813  0.2486  0.0999 -0.0128
26422W        W43269   7.251  11.769   5.500  0.0716 -0.0734  0.4131
26423W        W43270  14.333  12.024   2.314 -0.0081 -0.4700  0.0310
26424W        W43271   6.680  15.174   5.538 -0.0597  0.0904  0.2383
26425W        W43272  13.402   2.570  13.134 -0.0304 -0.4105 -0.0167
26426W        W43273  11.380  16.848  14.705 -0.0541 -0.1264 -0.1871
26427W        W43274   9.860   7.499  12.551  0.0661 -0.3869 -0.4497
26428W        W43275  18.410  16.394  14.078  0.2867 -0.0114  0.3938
26429W        W43276  16.447  10.390  12.274  0.1344  0.2868 -0.1909
26430W        W43277   2.560   6.711  14.337  0.3318  0.0892  0.0250
26431W        W43278  13.483   8.095   2.253 -0.1814 -0.0436  0.1069
26432W        W43279  18.074   3.391  13.161 -0.1404  0.2524 -0.0288
26433W        W43280   4.109   7.176   2.814 -0.1062  0.1196  0.3003
26434W        W43281  18.303   4.625   4.043  0.1127 -0.0341 -0.0290
26435W        W43282   8.857  15.522  12.623 -0.1216 -0.1006  0.0358
26436W        W43283  14.353   5.046  11.074 -0.0561 -0.0965 -0.1701
26437W        W43284  11.745  14.921  11.629 -0.1888  0.1268  0.2389
26438W        W43285   9.732   0.302   2.395  0.0885  0.1156  0.1204
26439W        W43286  11.392   6.660  12.364  0.2190 -0.0697 -0.2628
26440W        W43287   7.478   9.062   5.630 -0.0705  0.1838  0.1100
26441W        W43288  16.072   7.403  12.270  0.1112  0.2504 -0.1326
26442W        W43289  13.591   7.747   3.196  0.3803  0.0378 -0.1099
26443W        W43290  17.875  13.581   0.967  0.0366  0.0759  0.1419
26444W        W43291   2.230   1.928  12.239  0.3346  0.1921 -0.2601
26445W        W43292   9.959  10.840   3.416 -0.0583 -0.0647  0.1869
26446W        W43293   6.534   3.556   0.976 -0.0485 -0.0892 -0.0298
26447W        W43294   4.497  11.054   4.685  0.4522  0.2021 -0.0976
26448W        W43295  13.501  16.874   3.094 -0.2173 -0.0368  0.0772
26449W        W43296   4.669  18.530  11.715  0.0367  0.0641  0.1136
26450W        W43297  13.562   5.783   0.376  0.2883  0.2510  0.1254
26451W        W43298  15.049  12.763  13.941  0.0297 -0.0216  0.1192
26452W        W43299   9.746  15.330  12.114  0.2323 -0.0464  0.1152
26453W        W43300  10.127   5.040  13.652  0.0569  0.1622  0.1441
26454W        W43301   7.345   2.361  12.013  0.3108 -0.0461  0.2151
26455W        W43302   9.418  11.530  13.232  0.0494  0.3269 -0.3014
26456W        W43303   1.941  15.663  13.610 -0.0659 -0.1610  0.2047
26457W        W43304   4.972  16.771  12.288  0.1922 -0.0608  0.1555
26458W        W43305  17.310   6.024  12.744 -0.1891 -0.3491  0.2125
26459W        W43306  13.019  15.233   1.933 -0.0674  0.3517 -0.0438
26460W        W43307   6.786  11.765   4.252  0.0981 -0.2682 -0.1714
26461W        W43308  13.905  15.692   1.558 -0.1424  0.5141  0.2222
26462W        W43309   9.296   5.225   2.092 -0.2362  0.0053 -0.1419
26463W        W43310   6.605   1.291   1.320  0.1510  0.1614 -0.0241
26464W        W43311  12.630   6.789  15.137  0.1319 -0.1970 -0.1276
26465W        W43312   0.507  14.113  11.237  0.2936 -0.1912 -0.0362
26466W        W43313  16.982  18.513  14.710  0.0957 -0.2453  0.1315
26467W        W43314  16.622  14.740   2.322  0.1916 -0.1338 -0.1972
26468W        W43315   8.945  11.366   4.715  0.0850 -0.5498  0.1621
26469W        W43316   6.058  18.689   0.485 -0.1713 -0.0260  0.0940
26470W        W43317  14.557  10.126   2.539 -0.0624  0.0067  0.0758
26471W        W43318  15.048   2.236  11.964 -0.2402 -0.2760  0.1473
26472W        W43319   2.768   5.327   1.056  0.1022 -0.2206 -0.4743
26473W        W43320   9.379   4.739   4.388 -0.1214  0.0430 -0.0453
26474W        W43321  14.575   7.972   4.861 -0.0237  0.1623 -0.4179
26475W        W43322  16.338   2.216   2.064  0.3076  0.0589 -0.1493
26476W        W43323   4.440   0.569   3.612  0.0631 -0.0864 -0.0891
26477W        W43324   5.119   9.013  13.387 -0.0469 -0.2018 -0.2309
26478W        W43325   0.842   9.438   3.169  0.1132 -0.0572  0.0058
26479W        W43326  14.009  10.079   0.960  0.0831  0.1909  0.1495
26480W        W43327   7.331   3.302  13.275 -0.0813  0.2350 -0.0424
26481W        W43328   1.617   7.713   2.673  0.0543  0.2871 -0.2697
26482W        W43329   4.602   2.195  13.176  0.3521 -0.2026 -0.3746
26483W        W43330  10.515  10.217  12.224 -0.2890 -0.1632  0.1863
26484W        W43331  15.291   5.513   5.276  0.1092 -0.1610 -0.1761
26485W        W43332  14.158   8.298  15.643 -0.0586  0.0660 -0.0491
26486W        W43333  13.232   4.562  11.941 -0.1409 -0.1050 -0.0083
26487W        W43334   5.639  10.745  14.917  0.1523  0.2239  0.1339
26488W        W43335  17.703   0.918   3.278  0.2179  0.2383 -0.1142
26489W        W43336   6.192   7.004   1.471  0.0521  0.1868  0.0073
26490W        W43337   2.723   4.043   3.785 -0.0944 -0.0514  0.0515
26491W        W43338  16.252   1.472   1.588  0.0344  0.0877 -0.1372
26492W        W43339  12.831  18.414  11.662 -0.1583  0.3843 -0.3860
26493W        W43340   8.743   7.122   4.595 -0.1897 -0.0747  0.2786
26494W        W43341   6.688   5.712  14.195 -0.2665 -0.2578  0.3863
26495W        W43342  12.089  17.667   1.758 -0.0562 -0.0504 -0.1759
26496W        W43343   5.943   2.018  14.577  0.3753  0.0483 -0.0731
26497W        W43344  13.227   2.006   2.798  0.0230 -0.2702  0.2522
26498W        W43345   8.252  15.815   1.026  0.1266 -0.3620 -0.1760
26499W        W43346  16.345  10.746   4.769  0.2907  0.2993 -0.1193
26500W        W43347   2.190   5.392  15.460 -0.0143 -0.3787 -0.2514
26501W        W43348  15.562   6.889  12.773 -0.2437 -0.0303  0.1896
26502W        W43349  18.077  17.143  12.507 -0.0691  0.0498 -0.2754
26503W        W43350   9.733  10.194   0.682  0.0477 -0.1483 -0.1750
26504W        W43351   6.428  18.707   3.075 -0.2847  0.1763 -0.1159
26505W        W43352  16.505  13.045   4.806 -0.0167 -0.0282  0.2644
26506W        W43353   0.800   1.457   4.316  0.2250  0.2011 -0.1112
26507W        W43354   9.374   0.809  10.760 -0.0806  0.4409  0.6177
26508W        W43355  10.639  15.282   3.558 -0.3030 -0.2098 -0.3233
26509W        W43356   4.704  16.259  12.123 -0.0902  0.0979 -0.0867
26510W        W43357   8.821  17.964  12.106 -0.0196  0.1507  0.1500
26511W        W43358  18.429  15.467  11.295 -0.0663 -0.2350  0.2677
26512W        W43359   6.423   7.968   1.017 -0.1511 -0.0094 -0.0277
26513W        W43360   3.575  12.909  14.632  0.0487 -0.0821 -0.0189
26514W        W43361   2.538  16.881   2.849  0.0353  0.1991  0.1376
26515W        W43362   4.375  12.575   1.531  0.1176  0.0180  0.0621
26516W        W43363  13.117   8.071   3.016 -0.2380 -0.0812  0.0733
26517W        W43364   4.984   2.744  14.436  0.1324 -0.0280 -0.1101
26518W        W43365  11.773  15.506   1.285  0.3997  0.0485  0.0590
26519W        W43366  11.607   2.884   4.495 -0.0405 -0.0206  0.0913
26520W        W43367  16.401  14.609   5.509  0.0551  0.2187 -0.2850
26521W        W43368   7.363   6.490  14.238 -0.0710 -0.0455 -0.4543
26522W        W43369  13.803  13.356   0.195  0.2204 -0.4968 -0.0039
26523W        W43370  13.673  10.676   2.423  0.1175  0.0510  0.1355
26524W        W43371  18.669  14.575   5.094  0.1381 -0.2948 -0.1413
26525W        W43372  17.148  14.365  12.577 -0.0995 -0.1728  0.0982
26526W        W43373  14.543  17.301  11.268 -0.2317 -0.1547  0.1029
26527W        W43374   9.015   1.233   2.114  0.1630 -0.0109  0.0084
26528W        W43375   0.724   1.353   1.405  0.1365 -0.0400  0.0869
26529W        W43376  14.520  16.091  12.849 -0.0510 -0.0521 -0.0527
26530W        W43377   1.760   7.753   0.816  0.0123  0.2519  0.0779
26531W        W43378  12.139   3.401   5.487  0.0509  0.2743  0.2426
26532W        W43379   1.862  10.905  14.071  0.1692 -0.1423  0.1243
26533W        W43380  15.002   7.644  15.395 -0.3271  0.1308  0.0038
26534W        W43381  15.244  10.110  11.415  0.0769 -0.1450  0.2358
26535W        W43382  15.190   0.687   0.720 -0.2071  0.1260  0.0381
26536W        W43383  13.439  12.798  13.389 -0.1666 -0.0286 -0.1669
26537W        W43384  14.651  13.565  15.620  0.0766 -0.2955  0.1008
26538W        W43385  18.548  12.941  13.247 -0.1682  0.5750 -0.1774
26539W        W43386  11.563   4.579   4.322 -0.1146  0.2050  0.1026
26540W        W43387  14.026   6.870  12.332  0.2923  0.2289 -0.2080
26541W        W43388   2.645  12.090   3.221 -0.1701 -0.1438  0.0563
26542W        W43389  11.697   6.957   4.193  0.2919 -0.1782  0.0762
26543W        W43390   1.045   4.125   3.853  0.1109  0.2613 -0.0028
26544W        W43391   5.878   2.610  13.479  0.0910 -0.1049  0.0540
26545W        W43392  18.331  17.428   1.605  0.4368  0.1114  0.1558
26546W        W43393  10.147   1.572   9.636 -0.2095  0.0152 -0.0354
26547W        W43394  15.538  10.390   0.479  0.3414 -0.1986  0.0444
26548W        W43395   5.256   6.769  12.317 -0.1151 -0.0692 -0.0309
26549W        W43396  17.312  17.231  11.813  0.1682  0.3364 -0.0718
26550W        W43397  10.138  14.120  15.159  0.2168 -0.0006 -0.2914
26551W        W43398   4.954   7.253   0.164  0.0978 -0.0639 -0.1093
26552W        W43399   3.525  13.347  14.823 -0.1932 -0.2270  0.0627
26553W        W43400  10.177  17.465   2.869 -0.0413 -0.1227  0.2514
26554W        W43401   6.262  12.355   3.156 -0.3674 -0.0265  0.2647
26555W        W43402  14.970   8.013   2.026  0.0604  0.1318  0.2505
26556W        W43403   2.721   1.175  15.611  0.2036 -0.3305  0.0607
26557W        W43404  10.212   8.543  14.490  0.0077  0.0963  0.1035
26558W        W43405  10.967  16.939   2.375  0.4064  0.0572 -0.1786
26559W        W43406   8.258   9.672  10.954  0.1781 -0.1138  0.0254
26560W        W43407   6.231  13.118  12.939  0.0181  0.1813  0.2224
26561W        W43408  14.915   7.314   0.026 -0.0141 -0.1378  0.2929
26562W        W43409   7.337   4.835   3.178  0.2320 -0.0321 -0.1947
26563W        W43410  14.982  15.622  12.095 -0.2289  0.0867  0.0655
26564W        W43411   1.831   0.393   2.751 -0.0556 -0.0730 -0.2542
26565W        W43412  11.927   0.611   0.331  0.0732 -0.0406  0.3744
26566W        W43413   6.369  16.685  15.103  0.1411  0.3125  0.0027
26567W        W43414   6.064   8.980   3.552  0.0659 -0.1085  0.3132
26568W        W43415   0.040  17.960   4.671 -0.1467 -0.0411 -0.0224
26569W        W43416  14.219   0.028   5.302  0.0760 -0.0118 -0.1548
26570W        W43417   4.919  17.254  11.166  0.0224  0.0278 -0.1559
26571W        W43418   6.878   3.323  14.191  0.1908  0.0751 -0.0787
26572W        W43419  15.369  11.510  15.612  0.3592 -0.1995  0.0138
26573W        W43420  13.481  12.656  11.478  0.2020 -0.0294  0.3312
26574W        W43421   2.523  15.061  11.009  0.1374  0.2193 -0.1932
26575W        W43422   8.536   3.500  13.078  0.1395 -0.0392 -0.3002
26576W        W43423   2.803   1.865  13.059  0.0900 -0.3319  0.2724
26577W        W43424   9.488   4.156  14.583  0.1548  0.0228 -0.0157
26578W        W43425   5.838   7.621  14.363 -0.2725  0.1527 -0.2767
26579W        W43426  13.613  16.785   4.656  0.1796  0.3614  0.1031
26580W        W43427  15.695   7.009  15.065 -0.0418  0.1581 -0.0092
26581W        W43428   1.472  17.902   4.513 -0.0111  0.1094 -0.1003
26582W        W43429   1.000  16.756  11.302 -0.0130 -0.2214  0.1864
26583W        W43430  16.421   3.553  11.610  0.0663  0.0313  0.0062
26584W        W43431   2.438   0.075  10.438  0.0501  0.1320 -0.1787
26585W        W43432   4.140  16.929  12.714  0.1610  0.0997  0.1105
26586W        W43433   3.914  15.742   3.308  0.0059  0.3489 -0.1199
26587W        W43434  13.437   6.020  14.401  0.3406  0.1247  0.1545
26588W        W43435  18.298   5.258  13.367  0.0813  0.0732  0.2161
26589W        W43436   3.385   9.174   2.402  0.0872  0.2117  0.3616
26590W        W43437   8.677   3.004  12.936 -0.0124  0.3861  0.0428
26591W        W43438   8.094  15.286  13.456 -0.2780 -0.0725  0.3658
26592W        W43439  14.169   4.260   4.503  0.0664  0.2257 -0.0955
26593W        W43440   2.672   9.865   1.534 -0.2688 -0.0875  0.1081
26594W        W43441   7.560  12.862  12.901  0.2499  0.2366 -0.0626
26595W        W43442   1.251   1.556  12.750 -0.1528  0.2151  0.3004
26596W        W43443   8.187   8.577   2.559  0.0832  0.0014 -0.0081
26597W        W43444   5.572   2.641  12.826  0.0307  0.1373 -0.0173
26598W        W43445   1.194  10.474  14.239  0.3803  0.1387 -0.1260
26599W        W43446   5.979  13.123  11.034 -0.2924 -0.1605 -0.1180
26600W        W43447  14.405  15.001  12.728  0.1884 -0.1780 -0.0906
26601W        W43448  11.840  10.706  14.486  0.0414  0.0999 -0.0900
26602W        W43449  12.956  15.560  12.494 -0.3849  0.2068 -0.1226
26603W        W43450   8.921   1.861  11.595  0.0100 -0.1666 -0.1024
26604W        W43451  16.183  10.847   3.595 -0.1849 -0.0560  0.0271
26605W        W43452   3.776  10.415   5.014 -0.2051  0.0659  0.2041
26606W        W43453   9.571  18.757  11.437  0.0946  0.2196 -0.0747
26607W        W43454  14.122  17.315   0.333  0.0304  0.0568  0.3174
26608W        W43455  12.108   6.699  14.394  0.1170  0.1071 -0.0112
26609W        W43456   2.593  17.287  14.854  0.0503 -0.0260  0.0240
26610W        W43457   4.635   6.885  12.649 -0.0440 -0.2015 -0.2591
26611W        W43458  13.392  11.488  14.969  0.0121 -0.1270 -0.1647
26612W        W43459  18.258   2.899   6.200 -0.3306 -0.1043 -0.3088
26613W        W43460   1.320   2.912   2.650  0.1751  0.0533 -0.0348
26614W        W43461  15.855  16.707  11.991  0.0464  0.0586  0.1345
26615W        W43462  12.548  16.086  13.209  0.0161  0.0616  0.3171
26616W        W43463   6.393   7.278  15.583  0.3624  0.1595  0.2531
26617W        W43464  11.654  17.562   2.014 -0.1421 -0.0430 -0.1216
26618W        W43465  18.409  13.723  13.798  0.1981 -0.0963  0.1365
26619W        W43466  14.513  18.795  11.161 -0.1575  0.1740 -0.1698
26620W        W43467  11.502  14.488   2.902 -0.1899 -0.0846  0.1726
26621W        W43468   4.951  16.121  14.088 -0.0396  0.1295  0.3407
26622W        W43469   2.599   6.705   0.718  0.0478  0.1698 -0.1404
26623W        W43470   7.291  15.653  15.135 -0.5461  0.0867  0.2173
26624W        W43471   0.283   3.188  12.969 -0.0579  0.4044 -0.0908
26625W        W43472   0.940   4.077   3.048 -0.1181  0.0442 -0.2234
26626W        W43473  14.044  11.470   4.573  0.1732  0.1777  0.2391
26627W        W43474  13.415  13.074  11.858 -0.1981 -0.0403 -0.2015
26628W        W43475  12.551   2.365   0.955  0.1864 -0.0027 -0.1728
26629W        W43476   1.741   7.240  12.346 -0.1198  0.1052  0.2231
26630W        W43477  12.200  14.594   3.689  0.2278 -0.2250  0.0629
26631W        W43478  12.933   4.195   2.213 -0.1105  0.0311  0.1337
26632W        W43479   7.404   5.581  12.890  0.0314 -0.0601 -0.2430
26633W        W43480   8.574   4.401   4.479  0.0793 -0.2791  0.0886
26634W        W43481   8.429   2.269  15.295 -0.4830 -0.0428 -0.0806
26635W        W43482  18.101   1.188  13.637  0.1915  0.4258 -0.1025
26636W        W43483   8.384  16.631  11.137 -0.1667 -0.3378 -0.1256
26637W        W43484   1.914   6.055   3.081 -0.3242  0.0246  0.0289
26638W        W43485   6.697  14.771  13.602  0.1789 -0.0233  0.3523
26639W        W43486  17.546  10.902   0.499  0.1359 -0.0532 -0.1181
26640W        W43487   5.744   7.832  12.880  0.5383 -0.1993 -0.1980
26641W        W43488   4.562  17.724  13.832 -0.2214 -0.0530  0.0235
26642W        W43489  14.374   6.300   2.909  0.2727  0.0320  0.1905
26643W        W43490  14.541   6.527   1.862  0.0760 -0.5346 -0.1645
26644W        W43491   3.403   5.746  11.242  0.0956 -0.0241 -0.2318
26645W        W43492  16.138   8.755   1.082  0.1460 -0.3529 -0.2343
26646W        W43493  18.473   3.684  13.986  0.0578  0.2357 -0.0044
26647W        W43494   8.335  17.407   9.672 -0.4098 -0.0498  0.2184
26648W        W43495  10.537  10.528   2.765  0.1423 -0.0915 -0.1394
26649W        W43496  10.674   1.023  15.011  0.1447  0.5311  0.0428
26650W        W43497  16.502   1.292   1.190  0.1683 -0.0312 -0.1480
26651W        W43498   7.520   7.480   0.558 -0.0272  0.2127  0.0677
26652W        W43499  15.671  11.967  13.939 -0.0108  0.2488 -0.0123
26653W        W43500  11.988  17.160  12.405  0.1218 -0.2470  0.0009
26654W        W43501  17.698   0.354  11.961  0.2073 -0.1217 -0.0969
26655W        W43502   3.508   1.080  10.951 -0.2577 -0.0202 -0.0904
26656W        W43503  10.574  15.698   1.964 -0.1244  0.0894  0.0276
26657W        W43504  14.482  17.708   4.168  0.0800  0.2262  0.0445
26658W        W43505  17.618   3.522   0.244  0.0785 -0.1920 -0.0627
26659W        W43506   9.697  14.210   2.896 -0.0993 -0.0846  0.2033
26660W        W43507   8.684   6.691   4.281 -0.4363 -0.1090 -0.1530
26661W        W43508  18.182  11.906   2.368 -0.2437 -0.2984 -0.0416
26662W        W43509   6.739   8.543   2.227 -0.1043 -0.2875  0.0621
26663W        W43510   9.387   0.487   3.387  0.0979 -0.2085 -0.2565
26664W        W43511  13.247   5.667  12.077  0.0571 -0.0680 -0.2337
26665W        W43512  11.249  13.958   9.573  0.1469  0.0306  0.1353
26666W        W43513   1.770  17.927  11.956 -0.0515 -0.1269 -0.3891
26667W        W43514  18.521   3.988   4.566  0.0384 -0.2930 -0.0850
26668W        W43515  11.114  11.946   2.247 -0.2149  0.2287 -0.2624
26669W        W43516   0.211  12.313  13.077 -0.0759  0.1853  0.2699
26670W        W43517   9.226   1.914  14.959  0.0550  0.1462 -0.0734
26671W        W43518  18.591   8.390  13.831 -0.0042 -0.3398 -0.0927
26672W        W43519   9.445   3.238  15.049  0.2388 -0.3637  0.0057
26673W        W43520  10.408   5.300   5.108  0.0196 -0.1817  0.0707
26674W        W43521  16.349   5.039  14.948  0.1318 -0.3726 -0.2367
26675W        W43522   8.411   2.413   1.976  0.0770 -0.2560 -0.1471
26676W        W43523   8.513   1.999   2.456  0.0287  0.0574  0.1344
26677W        W43524  11.720  15.296  14.672  0.2419  0.3001 -0.1235
26678W        W43525   4.851  10.690   2.540 -0.3286 -0.1531 -0.0484
26679W        W43526  13.362  15.374   0.867 -0.1489 -0.3364  0.1129
26680W        W43527   3.859   4.860  12.479 -0.1012 -0.1783 -0.0652
26681W        W43528  11.819  11.985   2.980  0.1360 -0.1536 -0.3130
26682W        W43529  15.359  16.696  12.294  0.1597 -0.0738  0.0481
26683W        W43530   9.807   0.697   3.214 -0.0912 -0.3098 -0.0948
26684W        W43531   7.597  16.444  14.672 -0.0397  0.1244 -0.3777
26685W        W43532  10.683   8.221   3.868  0.0769  0.1327  0.2537
26686W        W43533   2.178   4.910   4.544 -0.0990 -0.2160 -0.1634
26687W        W43534   2.329  16.679  11.711 -0.0793 -0.2142  0.2276
26688W        W43535  12.302  15.175   2.808 -0.0387 -0.0789 -0.3964
26689W        W43536   3.644  13.680  14.017  0.0156 -0.2741  0.0993
26690W        W43537  17.019  14.794  14.518 -0.1536  0.0100 -0.2191
26691W        W43538   5.851  13.398   2.326 -0.0892 -0.0300  0.0047
26692W        W43539  12.727  15.345  11.161 -0.2993 -0.3589 -0.1047
26693W        W43540   0.527  12.396  14.814  0.3063 -0.0500 -0.0179
26694W        W43541  13.678   0.993  14.017  0.0835 -0.5942  0.1188
26695W        W43542  13.147  18.735  13.328  0.1085  0.1518 -0.0041
26696W        W43543  15.051  18.852  15.622  0.0278 -0.0898 -0.0208
26697W        W43544  17.087   7.985   0.526 -0.0125 -0.1169  0.3625
26698W        W43545  15.832   3.820  11.439  0.2002  0.2064  0.1734
26699W        W43546   2.492   9.081  14.914  0.2781  0.1051  0.0464
26700W        W43547  16.374  16.049   0.503  0.0857  0.0955 -0.1171
26701W        W43548   8.421   1.116  15.364  0.1585  0.2367  0.2080
26702W        W43549  12.769   2.433   0.405 -0.2283  0.0395 -0.0781
26703W        W43550   0.482   4.355   2.623 -0.0722  0.0395 -0.2494
26704W        W43551  14.280   5.258   0.530  0.1697  0.1546 -0.1998
26705W        W43552  18.862  12.386  11.799  0.0069 -0.2487 -0.0335
26706W        W43553   9.384  17.324   3.540  0.1202  0.0364 -0.0765
26707W        W43554   7.754  14.977  11.867  0.0349 -0.0885  0.1154
26708W        W43555   8.127   5.860   0.601 -0.2924  0.0593 -0.1762
26709W        W43556   2.590  14.943   3.032  0.1652  0.0562  0.3041
26710W        W43557   9.097  17.787   0.313 -0.0708 -0.3764 -0.4149
26711W        W43558   0.795   5.858   0.838  0.4018 -0.2163 -0.2465
26712W        W43559   4.775  15.066   1.300  0.0588 -0.0636  0.0232
26713W        W43560   5.838   0.416  11.199 -0.0340  0.2346  0.0223
26714W        W43561   6.384   7.612   4.834 -0.1831  0.0187 -0.1142
26715W        W43562  10.842   7.304  12.089 -0.0503  0.4245 -0.0449
26716W        W43563   3.471  16.534   0.938 -0.0801  0.1787  0.3226
26717W        W43564  17.572   0.999   0.303  0.1367  0.2082  0.4125
26718W        W43565  14.068   2.371  10.654  0.1382 -0.0696 -0.3294
26719W        W43566  13.311   0.270  11.584  0.2929  0.0001  0.1085
26720W        W43567   2.606   1.099   2.628 -0.1821  0.1603  0.1251
26721W        W43568  14.605  15.232   1.504 -0.3645  0.1544  0.0429
26722W        W43569   8.321   5.172   0.219 -0.0632  0.0608 -0.4205
26723W        W43570   5.232  13.810  11.095  0.1566  0.1060 -0.3558
26724W        W43571  18.773   2.054  11.302 -0.2517  0.0957  0.0615
26725W        W43572   7.424   0.035   0.390  0.2372 -0.0018 -0.2012
26726W        W43573   2.399  11.583  14.651  0.2130  0.1611 -0.2960
26727W        W43574   5.140  11.115   2.225 -0.2670 -0.1858 -0.0194
26728W        W43575  11.174   6.257   4.477  0.0300  0.0801 -0.1443
26729W        W43576   3.374   6.636  13.251  0.2338  0.0356 -0.2549
26730W        W43577   1.853   0.915   1.924 -0.0769 -0.0710 -0.2375
26731W        W43578   2.548  18.457  11.644 -0.3514  0.1574  0.1541
26732W        W43579  11.475   5.104   4.238 -0.2505 -0.0582 -0.0012
26733W        W43580   0.182   0.627   1.720 -0.1648  0.3908  0.0833
26734W        W43581  15.974   7.406   4.226 -0.1787  0.0311 -0.3761
26735W        W43582   9.683   7.159  11.211  0.3057  0.1477  0.0174
26736W        W43583   7.221  14.992  10.772 -0.0629  0.3733  0.0828
26737W        W43584   6.220  14.419   2.027 -0.1475  0.0645 -0.2970
26738W        W43585   5.428  11.042  10.939 -0.0248  0.0479 -0.0688
26739W        W43586  16.239   8.689  14.874  0.1204 -0.0490  0.3673
26740W        W43587   0.042   9.944  14.151  0.1805 -0.0011  0.1498
26741W        W43588   6.001   9.311  12.584 -0.3484  0.1387  0.1142
26742W        W43589  16.415   0.840  11.425  0.1511  0.0685  0.3326
26743W        W43590  15.549  18.636   1.172 -0.2050 -0.1423  0.2044
26744W        W43591   7.579  17.257  10.422 -0.1715 -0.0181 -0.0929
26745W        W43592  14.152   1.218   4.786  0.0438 -0.1770 -0.1942
26746W        W43593   1.868  15.015   1.282 -0.3031  0.3079 -0.2025
26747W        W43594   4.350   0.591   2.936 -0.0578 -0.2609 -0.0951
26748W        W43595   5.591  13.088   3.628  0.3169 -0.2523  0.2466
26749W        W43596  16.352   3.310   3.184 -0.0795  0.3136 -0.0690
26750W        W43597  17.572  18.106   2.392 -0.1875  0.0299  0.3961
26751W        W43598   8.339   1.339  14.945  0.3664  0.0912 -0.0139
26752W        W43599  16.255   1.052   1.925  0.1360 -0.1234  0.2634
26753W        W43600  14.867  13.209   3.099 -0.2353 -0.1518 -0.0410
26754W        W43601  18.480  11.662   0.953  0.0420  0.1877 -0.1909
26755W        W43602  13.791  15.678   1.063 -0.0671 -0.0129  0.2179
26756W        W43603  12.293  15.531  11.392  0.0291  0.6035 -0.0820
26757W        W43604  13.050   4.847   2.819 -0.1753  0.0444  0.3162
26758W        W43605   9.032   1.953   4.542 -0.2685  0.1491  0.0231
26759W        W43606  14.057  17.155  11.510  0.2682  0.0141 -0.0517
26760W        W43607   7.525   1.860   3.785  0.0980 -0.1080 -0.0598
26761W        W43608  15.233  12.425  13.067 -0.1245  0.0322  0.0792
26762W        W43609   6.749   2.614   0.591  0.1886 -0.3603 -0.1561
26763W        W43610  17.226   1.654  13.629  0.0595  0.1895 -0.0461
26764W        W43611   2.198  10.039   3.088  0.2040  0.1876 -0.2983
26765W        W43612   0.133  13.023   5.314 -0.1876 -0.3315  0.1394
26766W        W43613   8.661   6.018   1.763 -0.0343 -0.0378  0.1074
26767W        W43614   7.021  10.214  10.826  0.0274 -0.1688 -0.0018
26768W        W43615  12.853  10.490  14.127 -0.4082 -0.1765  0.0120
26769W        W43616   3.482  14.784   1.711  0.0603 -0.0216  0.2544
26770W        W43617  15.143  18.207   3.605 -0.3255  0.0468 -0.2337
26771W        W43618  14.330   6.227   4.623  0.3014  0.0852  0.0313
26772W        W43619   8.262  12.958  11.571  0.0907  0.0782  0.1136
26773W        W43620  13.346   1.500   2.832  0.1714 -0.1720  0.0291
26774W        W43621   1.796  12.287   4.772 -0.1078  0.0777  0.0517
26775W        W43622   4.966   0.298   1.794  0.0045  0.0059 -0.1427
26776W        W43623   3.510  10.962  11.261  0.0638 -0.0978  0.0760
26777W        W43624   3.721   3.627   4.430  0.2699  0.0173  0.0593
26778W        W43625  15.209   9.629  11.592 -0.0313 -0.1054 -0.1045
26779W        W43626  12.805  17.469  11.774 -0.3216 -0.1978 -0.1685
26780W        W43627  17.673   6.262  13.077  0.0839  0.1122  0.1889
26781W        W43628  13.186  12.584   3.585  0.4913  0.0522 -0.3996
26782W        W43629  18.852  10.454   3.232 -0.2325 -0.0376 -0.1377
26783W        W43630   7.160   5.001  12.231  0.1107 -0.1617 -0.1726
26784W        W43631   8.904   7.351   3.292 -0.0551  0.3218 -0.0747
26785W        W43632  13.636   0.297   4.321 -0.1325  0.0764  0.2187
26786W        W43633   9.662  17.382   0.555  0.0316  0.0422 -0.1036
26787W        W43634  13.204   7.885   3.984  0.0397 -0.2763 -0.1178
26788W        W43635   6.751  12.878  10.780  0.0128 -0.3183 -0.0792
26789W        W43636   7.413   9.660   4.231 -0.0596 -0.1386 -0.0956
26790W        W43637   7.797   9.256   0.762 -0.4035 -0.2651  0.1290
26791W        W43638  10.495  18.077   0.641  0.2475 -0.1740  0.0674
26792W        W43639   5.395   6.138  15.656 -0.2152  0.4566  0.1192
26793W        W43640  18.461  18.626  12.523  0.0631  0.1010  0.0675
26794W        W43641  11.495  18.819   1.607 -0.0055  0.0773 -0.1603
26795W        W43642  14.834   4.589   1.035 -0.0251 -0.1858  0.0695
26796W        W43643  12.591   5.255   4.278 -0.2197  0.2450 -0.2797
26797W        W43644   2.447  12.793  10.890  0.0723 -0.1494  0.0932
26798W        W43645   5.529   5.314   3.228 -0.1369  0.2035  0.1709
26799W        W43646   5.143   1.485   3.701  0.1391  0.0062  0.1447
26800W        W43647  16.822  11.902  12.090  0.1083 -0.5926  0.1222
26801W        W43648  17.751   4.424   0.515  0.0032 -0.1275  0.1227
26802W        W43649  11.842   9.771   1.045 -0.2887 -0.2112  0.1449
26803W        W43650   6.833   9.560  15.743  0.0733  0.1131 -0.0655
26804W        W43651   3.892  14.308   2.400  0.2294  0.5124 -0.1315
26805W        W43652  16.682   6.339   0.378  0.2804  0.0709  0.1387
26806W        W43653  16.878   1.094   4.496  0.1939  0.3601 -0.2746
26807W        W43654   4.009  17.093   4.186  0.1722  0.1643  0.1208
26808W        W43655   0.885   6.890  14.124 -0.0250  0.0093  0.0897
26809W        W43656  17.978   4.799   0.154 -0.5157 -0.3764 -0.2646
26810W        W43657  15.095  16.166   2.360 -0.1250 -0.3695  0.0916
26811W        W43658   0.197  10.700   5.018 -0.0523 -0.0912  0.1366
26812W        W43659   7.191   0.737   2.021 -0.1232 -0.0205  0.1406
26813W        W43660   3.913   2.048   4.035  0.0922 -0.0685  0.4039
26814W        W43661  14.887   0.632  14.319  0.1294 -0.1714  0.2697
26815W        W43662  12.291  11.195   4.273  0.3017  0.3478 -0.1368
26816W        W43663   0.384   2.955  12.451  0.1489  0.1242 -0.2025
26817W        W43664  10.191  16.925  10.490 -0.5145  0.2756 -0.4758
26818W        W43665   2.378   3.709   4.656 -0.1167  0.0215 -0.0132
26819W        W43666   6.045  11.069  14.874  0.0573  0.3846  0.0974
26820W        W43667  15.083  12.928  13.021 -0.0077 -0.0849 -0.2125
26821W        W43668   7.481  14.257  11.231 -0.0026  0.1194 -0.1544
26822W        W43669   8.028   3.958   1.191  0.3725  0.1266  0.1336
26823W        W43670   5.364   6.923   4.751  0.2638  0.1527 -0.0558
26824W        W43671   9.430  15.810  13.530 -0.0601  0.0819 -0.4383
26825W        W43672   6.150  18.510   4.502 -0.0696  0.0545  0.0638
26826W        W43673   9.883   2.477  15.467 -0.1249  0.3900  0.3391
26827W        W43674   3.026   8.810   1.634 -0.0900 -0.1920  0.2400
26828W        W43675  17.885  15.222   3.675 -0.0085 -0.1898  0.1714
26829W        W43676   6.773   8.900  11.048  0.2324  0.0882 -0.0958
26830W        W43677   6.970  10.513  11.838 -0.2962  0.1425  0.0817
26831W        W43678   1.828   3.037   2.462 -0.0853  0.0260  0.2586
26832W        W43679   6.500   7.868   1.497  0.0331  0.4250  0.1036
26833W        W43680   0.804  15.086   3.903 -0.1055  0.2216 -0.0654
26834W        W43681   4.455   5.965  14.708  0.1940  0.0387  0.0115
26835W        W43682   2.468   2.565   0.135 -0.1164 -0.4060  0.1140
26836W        W43683   8.745  14.421  10.621 -0.2035 -0.0614 -0.0115
26837W        W43684  12.563   8.451   5.497  0.0618 -0.1552  0.4826
26838W        W43685  15.592  17.940  14.846 -0.3093 -0.0289 -0.1158
26839W        W43686   0.967  14.940  15.358  0.0594 -0.0293 -0.1200
26840W        W43687  11.138   6.858  14.653  0.3919  0.1790  0.0025
26841W        W43688  14.205  13.979  14.788  0.0830  0.3638  0.0321
26842W        W43689  10.535  17.218   0.132 -0.0853  0.1844  0.0789
26843W        W43690   3.108   7.139   3.001 -0.3509  0.0520  0.0820
26844W        W43691   5.714   9.031  15.588  0.1678  0.0086 -0.4323
26845W        W43692  17.150  17.158   5.147  0.1328 -0.1810 -0.2905
26846W        W43693  14.639   0.238   4.375 -0.1593  0.1137  0.0904
26847W        W43694  17.877   2.623   0.576 -0.0852 -0.0298 -0.2662
26848W        W43695  10.090   3.861   2.296 -0.1975  0.1131 -0.0837
26849W        W43696   1.710   0.255  11.993 -0.1202 -0.2374  0.5662
26850W        W43697   2.119  14.049  13.305  0.2329  0.0154  0.0825
26851W        W43698  12.092  15.816   2.064  0.0941  0.1113  0.1571
26852W        W43699  10.274   6.201   0.428  0.0184  0.0535 -0.1440
26853W        W43700  14.013   9.640   1.324  0.0533  0.0919  0.0186
26854W        W43701  15.971   4.526  14.211  0.2007  0.1664  0.1147
26855W        W43702   9.538   1.077   1.981  0.1944 -0.1531 -0.0416
26856W        W43703   6.142   8.844  11.010  0.2173 -0.1126  0.0812
26857W        W43704   1.951   3.490   0.383 -0.2379  0.0028  0.1507
26858W        W43705  18.854   2.654  12.360  0.1259 -0.4042 -0.0250
26859W        W43706   2.457  12.506   2.051  0.1977  0.1400 -0.1124
26860W        W43707   5.198   2.264   3.832 -0.1061 -0.1711 -0.0347
26861W        W43708  17.055  16.788  11.823  0.0763 -0.1396 -0.1404
26862W        W43709   0.540  16.636  15.141  0.3952  0.2188  0.1933
26863W        W43710   7.371  16.002  13.363  0.0944  0.1019  0.0570
26864W        W43711  12.729   4.475   2.637  0.1627 -0.3220 -0.1633
26865W        W43712  17.472   9.214  13.605  0.1228  0.2220  0.1089
26866W        W43713   4.067  17.398   1.715 -0.0923  0.2893  0.0574
26867W        W43714  18.116   5.289  14.995  0.3854 -0.0752  0.0503
26868W        W43715  13.330  12.622  12.910 -0.2488 -0.1434  0.2592
26869W        W43716  17.910  14.038   2.797 -0.2625  0.0359 -0.0581
26870W        W43717  15.364  16.609   2.262 -0.1617  0.3393  0.1438
26871W        W43718   1.798  12.080  11.116 -0.2133  0.2182 -0.2837
26872W        W43719  17.619  17.789  14.444  0.1416  0.0879  0.0195
26873W        W43720   1.525   2.227   1.728  0.0930  0.2714 -0.3900
26874W        W43721  10.224   8.014   4.814  0.2639 -0.0095  0.0395
26875W        W43722   6.086  16.175  12.481  0.2504 -0.1906 -0.0240
26876W        W43723   7.325  12.204  14.856 -0.2059  0.2541  0.2475
26877W        W43724  18.643   5.859  11.433 -0.0730  0.3212 -0.4816
26878W        W43725   0.735   9.823   0.738 -0.1340  0.1708 -0.2800
26879W        W43726  11.803  11.233  14.270  0.0222 -0.2087 -0.2349
26880W        W43727   3.585   0.033  13.519 -0.0908 -0.1136 -0.0513
26881W        W43728   9.785   1.146  13.740 -0.0324 -0.0010  0.0607
26882W        W43729   3.233   4.576   5.345  0.0705 -0.0033  0.2747
26883W        W43730   4.131   5.350  14.677 -0.1549 -0.0619  0.0774
26884W        W43731   3.994  15.613   1.658 -0.1114 -0.0436 -0.2078
26885W        W43732   0.641   1.447  15.178 -0.1918  0.2101 -0.2780
26886W        W43733  13.655   9.235  11.533  0.2719  0.0404  0.0943
26887W        W43734  10.807   2.720  11.446  0.0878  0.0685 -0.2826
26888W        W43735  17.555  12.562   1.246  0.1875 -0.0327 -0.2492
26889W        W43736   8.727   6.404   0.111  0.0597  0.2077 -0.1983
26890W        W43737  18.454  17.659  10.924 -0.1063 -0.1921 -0.2287
26891W        W43738  18.063   5.126  13.819  0.1658 -0.1422  0.0708
26892W        W43739  12.012   9.498  15.536 -0.2546 -0.0024 -0.1605
26893W        W43740  17.696   4.616  13.154 -0.0597  0.6785  0.2547
26894W        W43741  10.473   4.383   0.055  0.1057  0.0308 -0.2214
26895W        W43742  14.163   9.651   5.206  0.0352 -0.1911 -0.4312
26896W        W43743  11.754  10.159  12.258  0.1170 -0.0640  0.0394
26897W        W43744   3.521   8.825  12.428  0.1057 -0.1642  0.2955
26898W        W43745   2.678   0.434   4.359  0.1803  0.0282 -0.0159
26899W        W43746  12.191  13.168  11.506  0.0078  0.0874  0.1409
26900W        W43747   4.744   0.939   2.636  0.0661 -0.1830  0.0325
26901W        W43748   1.280  11.598   3.201  0.1236 -0.0928  0.0031
26902W        W43749  15.625   2.679   5.342 -0.1260 -0.1276  0.0112
26903W        W43750   8.155  17.274  12.165  0.1786 -0.0127  0.0590
26904W        W43751  10.818  17.305  15.487 -0.0280  0.1379  0.1455
26905W        W43752  15.805   6.484  12.644 -0.4001 -0.3559  0.1574
26906W        W43753   0.608  15.008  13.139  0.1391  0.0235 -0.0446
26907W        W43754  18.034   8.256   5.209 -0.4647 -0.3793 -0.0172
26908W        W43755   5.080   7.275  12.332 -0.2404  0.0165 -0.2989
26909W        W43756   8.403  11.080  15.051 -0.2208  0.0268 -0.2508
26910W        W43757  12.031   6.459   2.539 -0.1732 -0.1102 -0.0670
26911W        W43758  16.020  18.151  14.055 -0.1825  0.0400 -0.2073
26912W        W43759   7.388  13.715   1.909  0.2552  0.2491 -0.3120
26913W        W43760  13.970  14.647   0.435  0.0721 -0.1906  0.0448
26914W        W43761   2.420   3.126   4.905 -0.0333  0.0667  0.0521
26915W        W43762   2.423   2.774   0.574  0.0847 -0.0103  0.1722
26916W        W43763   2.820   2.779   4.913 -0.0886  0.2088 -0.2399
26917W        W43764   8.319  11.056   0.909  0.0577  0.2340 -0.0292
26918W        W43765  14.510  13.085   2.514 -0.1465 -0.2891 -0.0108
26919W        W43766   9.173   4.787  10.997  0.0542 -0.1081  0.1652
26920W        W43767   1.077  15.531  14.367  0.2308  0.0651 -0.0703
26921W        W43768  16.851   6.241   4.717 -0.1355 -0.0765 -0.1780
26922W        W43769  13.120  18.200   1.025  0.1586 -0.3836 -0.2346
26923W        W43770   7.561  14.181  13.225  0.1532 -0.0500  0.0917
26924W        W43771   9.658  11.664   2.966 -0.1492  0.0159 -0.1344
26925W        W43772  18.260  11.454   0.043 -0.0803  0.1194  0.0360
26926W        W43773   8.989   4.418   9.984 -0.2137 -0.1193 -0.4567
26927W        W43774  14.780   4.598  15.008  0.0317  0.0781 -0.3414
26928W        W43775  18.402  12.117   1.369 -0.1236  0.6033 -0.0628
26929W        W43776  11.452  14.764   2.027 -0.2226  0.3140 -0.0899
26930W        W43777   4.640   9.897   5.086 -0.1526 -0.0921 -0.1061
26931W        W43778   7.251   2.104   4.742 -0.0948  0.2124  0.0161
26932W        W43779   1.933   5.542   5.242 -0.2951  0.2419  0.1197
26933W        W43780  10.879   2.099  15.258 -0.0135 -0.1365  0.1089
26934W        W43781   9.492   5.003  14.204  0.2041 -0.2673  0.1201
26935W        W43782   6.612   3.188   5.899  0.3811  0.0242  0.0623
26936W        W43783   9.222  12.072  15.663  0.0729  0.3482  0.0113
26937W        W43784   0.666  16.116  13.131  0.0846  0.1155 -0.2100
26938W        W43785  10.764  14.685  11.750  0.1724 -0.2644 -0.3455
26939W        W43786  18.625  11.944  12.566 -0.0321  0.4835  0.1824
26940W        W43787   4.085   0.321   0.673 -0.3184  0.3095 -0.2405
26941W        W43788  13.889  17.617   4.987  0.4186 -0.1596 -0.3986
26942W        W43789   3.094   3.424  13.338  0.2311  0.1495  0.0325
26943W        W43790  14.155  18.355   0.825  0.2701  0.0905 -0.1031
26944W        W43791  10.637   4.047  14.422  0.1454  0.1870  0.1019
26945W        W43792   1.169  10.601   5.657  0.0789  0.3270  0.1053
26946W        W43793   2.535   0.649   0.320 -0.1173 -0.1416 -0.2243
26947W        W43794  10.165  11.782   0.225  0.0801 -0.4561 -0.1759
26948W        W43795  10.120   3.450   5.216 -0.0899  0.0685  0.2276
26949W        W43796  11.482  17.928  11.861 -0.1244 -0.2378  0.1816
26950W        W43797   9.746   1.321  15.140 -0.3988  0.0713  0.2852
26951W        W43798  11.892   7.866   3.698  0.0537 -0.1006 -0.2769
26952W        W43799   2.395  17.015   0.785 -0.0380  0.0167 -0.0726
26953W        W43800   0.193   3.940   4.968  0.0712  0.2841 -0.1754
26954W        W43801  16.332   5.756   2.032  0.0322 -0.0849 -0.1370
26955W        W43802   9.443  18.450   3.704 -0.2359  0.1983 -0.1071
26956W        W43803   6.538   2.678  15.396 -0.0937 -0.3762  0.1284
26957W        W43804   9.935   4.610  15.237  0.2909  0.2919  0.1595
26958W        W43805   7.213  16.761  14.896 -0.1190  0.0397 -0.1559
26959W        W43806   2.410  15.970   4.040  0.0832  0.0493  0.0064
26960W        W43807  10.493   5.374   3.540  0.1409 -0.0021 -0.1389
26961W        W43808  18.318  12.236   3.370  0.1050 -0.2160  0.1170
26962W        W43809   4.429  10.339   2.823 -0.0743 -0.0463 -0.1445
26963W        W43810   6.118  12.683   1.061 -0.5727 -0.1570 -0.1373
26964W        W43811  15.409   5.690   3.728 -0.2711  0.2147  0.1054
26965W        W43812   4.514  11.789  11.269 -0.1957  0.1844 -0.0987
26966W        W43813   3.188   4.172  13.017 -0.1419  0.0880  0.2010
26967W        W43814   8.198   3.529   0.902  0.1985 -0.0340  0.1094
26968W        W43815  17.272  17.557  14.791 -0.1227 -0.1510 -0.0679
26969W        W43816   2.859  12.928  15.518 -0.0826  0.0563 -0.0710
26970W        W43817  14.319   4.620  14.767 -0.0577 -0.0284  0.0095
26971W        W43818  11.067   3.188  14.078 -0.0196  0.1342  0.0873
26972W        W43819  12.993  17.424   3.837  0.0359 -0.0294  0.0810
26973W        W43820   3.141  12.052  14.474  0.0744 -0.3204 -0.0555
26974W        W43821   6.160   9.829   3.483  0.0672  0.0864  0.2264
26975W        W43822  16.788   6.636  13.047  0.2665 -0.2445  0.1763
26976W        W43823   3.679   0.076   3.445  0.0610 -0.0335 -0.1994
26977W        W43824  16.582  15.858   3.080  0.0019  0.0556 -0.3273
26978W        W43825   8.514  10.320  15.611  0.2265 -0.0305 -0.0084
26979W        W43826  11.708   2.427  14.848 -0.2004  0.2695  0.4060
26980W        W43827   4.424  11.191   2.848  0.1153  0.4534 -0.0675
26981W        W43828   1.730   6.643  13.683  0.0530  0.2644  0.1145
26982W        W43829  12.251   8.717  13.560 -0.0652  0.1724 -0.3286
26983W        W43830  17.142   2.007  14.431 -0.0655  0.0656  0.1426
26984W        W43831  13.296   3.871   2.980 -0.0184 -0.1567 -0.1128
26985W        W43832  10.226  15.135  11.150  0.3048 -0.0628  0.0825
26986W        W43833  18.584   5.123  12.119 -0.0079  0.1681 -0.0232
26987W        W43834   2.088  15.177   4.697  0.1390  0.2458  0.0304
26988W        W43835   2.078   9.257  15.135 -0.0394 -0.1899 -0.0187
26989W        W43836   4.212  18.679  11.805  0.1004 -0.2580 -0.1730
26990W        W43837   0.687  17.169   0.735  0.1468  0.1925 -0.0371
26991W        W43838   1.156  17.048  12.230 -0.2128  0.1940 -0.1678
26992W        W43839   3.146   5.249  11.355  0.1439 -0.1108 -0.3845
26993W        W43840  17.053  11.760   2.312  0.1905 -0.1110 -0.2856
26994W        W43841  18.384   0.117   1.007 -0.1542  0.3634  0.5266
26995W        W43842   0.020   1.480   1.883  0.0307 -0.0746  0.1252
26996W        W43843  10.381  18.819  11.295 -0.3943 -0.2763  0.3767
26997W        W43844   6.015   0.659   4.195  0.3905  0.0234 -0.3447
26998W        W43845   5.680   5.054   4.990 -0.1498  0.0609 -0.1160
26999W        W43846  17.105   8.222  12.494 -0.1972 -0.3423  0.3978
27000W        W43847  15.499   4.885   4.681  0.1227  0.1066  0.0640
27001W        W43848   8.917   2.903   1.345 -0.1534 -0.3794  0.0566
27002W        W43849  15.915   9.179  13.526 -0.1457  0.1243 -0.0001
27003W        W43850  18.816   1.402  14.575  0.0603 -0.2038  0.1195
27004W        W43851   3.073  11.427   3.788 -0.3258 -0.2418 -0.1213
27005W        W43852  16.918   2.070   5.802  0.0200  0.1248  0.0257
27006W        W43853   1.411   8.528   5.000  0.0289  0.3293  0.0040
27007W        W43854   1.111   4.849   2.121  0.1416 -0.1394 -0.3516
27008W        W43855   4.339   5.449   4.348 -0.1752  0.0978 -0.0845
27009W        W43856   4.133   7.646   5.108  0.0497 -0.0292 -0.2352
27010W        W43857  13.700   1.460   2.191  0.0200 -0.1220 -0.1823
27011W        W43858   0.023   0.656  13.486 -0.1419 -0.1185 -0.1177
27012W        W43859  17.994  16.504  10.334 -0.2838 -0.1516 -0.0782
27013W        W43860  15.511   2.085  12.469 -0.2876 -0.0317  0.1819
27014W        W43861   8.381  14.736   0.833 -0.0362 -0.3927 -0.3730
27015W        W43862   4.190   8.458  15.619  0.2094 -0.0253  0.1885
27016W        W43863  18.365   3.278  14.315  0.1281  0.1722  0.1581
27017W        W43864   8.185  16.744   3.415  0.2157 -0.1394  0.2702
27018W        W43865  16.861  18.320   4.101  0.1190 -0.2559 -0.1227
27019W        W43866  17.331  12.307  12.893 -0.2216 -0.0223 -0.1462
27020W        W43867   0.383   0.468  11.986 -0.0181 -0.0348  0.2115
27021W        W43868  17.118   8.060  14.620  0.0959 -0.1505 -0.0975
27022W        W43869  17.521  12.815   0.760  0.0325  0.3629  0.1150
27023W        W43870  18.692   5.776  14.772 -0.2323 -0.3838  0.2308
27024W        W43871  15.277   1.219   5.030  0.1719 -0.0993  0.0900
27025W        W43872   8.080  18.809  10.915  0.1398 -0.2258 -0.0040
27026W        W43873   0.059   7.758  14.455 -0.0971 -0.1531  0.0432
27027W        W43874   1.655  17.172  13.812 -0.1705  0.3669  0.1192
27028W        W43875   1.274   1.567   2.946 -0.2181 -0.1801 -0.2099
27029W        W43876   4.528  12.632  15.702 -0.3048 -0.3395 -0.3535
27030W        W43877   4.524  14.648  14.519 -0.0383 -0.1200  0.0862
27031W        W43878   0.846   7.809  13.758 -0.3239 -0.2596 -0.2625
27032W        W43879  15.080   4.883   3.768 -0.0363 -0.3169 -0.1852
27033W        W43880   0.852  13.991  14.755 -0.0951 -0.0397 -0.3695
27034W        W43881   3.790   8.924  12.828 -0.1730 -0.3195 -0.2003
27035W        W43882   8.850  12.604  13.566 -0.0013  0.0435  0.0652
27036W        W43883   5.682  10.123  13.262 -0.0836  0.0784 -0.1451
27037W        W43884  17.196   6.083   0.524  0.2065  0.3220  0.3790
27038W        W43885  14.148   0.328  12.919  0.1617 -0.2020 -0.1851
27039W        W43886   7.964   9.468   3.396 -0.1728  0.1368 -0.0363
27040W        W43887   0.977  17.386  15.242 -0.1999  0.0490  0.0805
27041W        W43888   6.601  17.123   4.636  0.1384 -0.2932  0.0834
27042W        W43889  18.665   8.254  14.330 -0.1476 -0.2322 -0.1143
27043W        W43890  16.720   1.596   2.515  0.0323 -0.0735  0.6120
27044W        W43891   6.458   4.716  11.479  0.3106 -0.2044 -0.0472
27045W        W43892  15.792   0.302  15.389 -0.0650  0.2884 -0.1214
27046W        W43893   4.401  14.895   3.742  0.0206  0.1473  0.2752
27047W        W43894   9.040  17.607  12.461  0.1817  0.0970 -0.3895
27048W        W43895  18.456   8.644  14.532  0.0253  0.1947  0.0164
27049W        W43896   7.208  18.079  14.485 -0.0117 -0.1213 -0.2546
27050W        W43897  17.955   0.994  11.222 -0.0194  0.0333  0.2991
27051W        W43898   0.539  16.338  12.679  0.1017  0.0009  0.1884
27052W        W43899   1.366   0.284  13.140  0.1440 -0.3461  0.1170
27053W        W43900  11.600  16.249   3.414 -0.1263  0.0071  0.3129
27054W        W43901   9.108   0.056   0.706  0.0838 -0.1047 -0.1578
27055W        W43902  13.973   4.620  12.653  0.5644 -0.1867 -0.0868
27056W        W43903  15.378   3.458   4.999  0.1047 -0.1530  0.2046
27057W        W43904  13.462  10.435   0.165 -0.0118 -0.1683  0.0410
27058W        W43905  17.810  11.625   5.140  0.1893 -0.0314  0.2430
27059W        W43906  11.708  14.494   2.383 -0.0233  0.0130 -0.0342
27060W        W43907   4.798  14.446   0.852 -0.0603  0.0041 -0.0983
27061W        W43908   4.657   7.401  12.759 -0.1727  0.0048  0.1773
27062W        W43909  18.100  17.021   2.724  0.0677  0.1348  0.1697
27063W        W43910  14.391  11.492   4.953  0.2135 -0.2910  0.0101
27064W        W43911   6.656   9.679  12.715 -0.0570  0.1523  0.0679
27065W        W43912  16.596   0.204   1.958  0.0509  0.0396 -0.0086
27066W        W43913   7.168   7.389  10.614  0.0559 -0.0048 -0.0398
27067W        W43914   9.300  18.570   2.388 -0.0069  0.0909 -0.0033
27068W        W43915   9.972   6.736   2.881  0.0259 -0.4552  0.0934
27069W        W43916   9.291  10.767  14.664 -0.0746  0.2745  0.0582
27070W        W43917   6.981  16.555   1.699 -0.0644  0.3475  0.1503
27071W        W43918  10.850   3.494  14.530 -0.0616 -0.1868 -0.0285
27072W        W43919   8.954  18.269  10.998  0.0360 -0.2276  0.2091
27073W        W43920  10.920  15.270  10.224  0.1968  0.0290 -0.2131
27074W        W43921  17.554   5.718   1.645 -0.0605 -0.0527  0.0464
27075W        W43922  15.455   6.560   0.833 -0.0949 -0.1297 -0.1324
27076W        W43923   5.780   0.061   2.873  0.0953  0.1329  0.1847
27077W        W43924  12.482   2.483  12.043  0.0190 -0.1718  0.1281
27078W        W43925  16.496   7.978   1.219  0.1456 -0.0990 -0.1999
27079W        W43926  12.721  15.788   2.806  0.3266  0.0301  0.2351
27080W        W43927   1.618   0.151   2.370  0.0342 -0.0126  0.1465
27081W        W43928  16.715  11.428   2.548  0.2825 -0.3577  0.3092
27082W        W43929   6.340   7.794   6.357  0.0877  0.1281 -0.0971
27083W        W43930   0.121   3.179   3.262  0.2623 -0.0124  0.0342
27084W        W43931   8.573   2.769   1.693 -0.3573  0.2279  0.4156
27085W        W43932  17.111  10.150   0.058  0.0155 -0.1806 -0.0365
27086W        W43933  10.410  15.070   0.808  0.0776 -0.0579  0.1591
27087W        W43934   3.776  14.321  12.031 -0.1063 -0.1899 -0.2274
27088W        W43935  16.416   4.432   3.874 -0.0903 -0.2171  0.2683
27089W        W43936   5.572   8.265   4.971  0.0633 -0.1659  0.2390
27090W        W43937   4.801  17.356   5.008 -0.2215 -0.2278  0.1903
27091W        W43938   6.882  17.481   1.919 -0.1097 -0.1431  0.0572
27092W        W43939   5.300   4.173   1.117 -0.2000 -0.0747 -0.4093
27093W        W43940   5.834  14.454  14.016 -0.1161 -0.0401  0.4137
27094W        W43941  17.824   8.606  13.948  0.1737  0.1864  0.2426
27095W        W43942  17.186  18.846   4.674  0.0896  0.2698 -0.3688
27096W        W43943  16.199   0.276  12.962  0.1612 -0.0996 -0.0190
27097W        W43944  15.270  16.800  13.826  0.0004 -0.0027 -0.0501
27098W        W43945   1.967   2.803  13.424  0.1240 -0.2276 -0.2445
27099W        W43946   8.856  18.593  15.097  0.1101  0.0737 -0.2176
27100W        W43947  12.319  14.360   1.909  0.1850  0.0533  0.0455
27101W        W43948   3.557  18.550   2.255  0.1318 -0.1793  0.3577
27102W        W43949  10.363  17.184  15.050 -0.0437 -0.1875 -0.1494
27103W        W43950  13.158   7.495  15.410  0.0395  0.2968  0.0119
27104W        W43951   1.083  17.215   3.930 -0.0758  0.3362 -0.5109
27105W        W43952   8.761  13.853  14.584  0.0801  0.5889 -0.3057
27106W        W43953  15.552   1.622  11.115 -0.1203  0.1513 -0.1049
27107W        W43954   4.181  10.109   4.795 -0.0303 -0.3000  0.2466
27108W        W43955   6.607   9.445  14.527  0.0635  0.1539  0.1925
27109W        W43956  13.905   4.045   2.229 -0.1484  0.2451 -0.2352
27110W        W43957   2.219   8.632   4.349  0.2985 -0.0018 -0.0894
27111W        W43958   8.921   9.559   1.572  0.0742 -0.2645  0.1901
27112W        W43959  10.375   8.754   3.623  0.0771  0.0154 -0.1083
27113W        W43960  13.285   3.333   0.523 -0.1779 -0.2730  0.0412
27114W        W43961   3.549   8.911   4.156 -0.2715 -0.1746  0.2792
27115W        W43962  13.583   1.718  13.088 -0.1138  0.1323 -0.1464
27116W        W43963   8.439   2.477   0.433  0.2031 -0.1086 -0.5855
27117W        W43964   3.798  15.828  10.867  0.2296  0.2338  0.2747
27118W        W43965  12.572  17.469   1.894 -0.3683  0.1309  0.1805
27119W        W43966   1.221  11.245  14.210  0.0575 -0.1852  0.0662
27120W        W43967  13.788   1.911   1.430  0.0505 -0.1825  0.1906
27121W        W43968  14.038   1.152   3.360  0.3706 -0.0733 -0.2070
27122W        W43969  16.363   8.966  12.403 -0.1608 -0.0634 -0.2928
27123W        W43970   1.099  11.605   3.677  0.0869  0.4604 -0.0367
27124W        W43971  16.018  11.290   4.935 -0.0296  0.0795  0.2071
27125W        W43972   7.021   3.097   4.678 -0.1900 -0.1724  0.1000
27126W        W43973  12.134   3.075  13.467 -0.2388 -0.1205 -0.0418
27127W        W43974  11.958  15.831   0.946 -0.1834 -0.0219  0.0560
27128W        W43975  15.932   9.424   0.100  0.5576 -0.0213  0.1012
27129W        W43976   8.267   7.086   4.492 -0.0363  0.2004 -0.1400
27130W        W43977  12.051   1.403  14.762  0.1961 -0.0114  0.0989
27131W        W43978  15.189   0.969   5.440  0.1132  0.2408 -0.0084
27132W        W43979   3.105   5.522   0.696  0.0092 -0.1141  0.1244
27133W        W43980   2.391   0.271   2.628 -0.1173  0.0742 -0.0996
27134W        W43981  16.274  14.867  12.836 -0.2821  0.4521 -0.2267
27135W        W43982   9.257   5.787  12.748  0.3645  0.2303 -0.1000
27136W        W43983  17.683  13.476  12.947 -0.2701  0.1001 -0.2223
27137W        W43984  11.079   9.654   1.584 -0.1852  0.1323 -0.0772
27138W        W43985   8.434   2.795   5.776  0.0462 -0.1748  0.0210
27139W        W43986   2.557  14.464   2.059  0.0419 -0.0582 -0.4357
27140W        W43987   4.963  12.275  13.205 -0.1330  0.0606 -0.0255
27141W        W43988   2.972  17.454  10.708 -0.1485  0.2711 -0.3128
27142W        W43989  15.629  18.609  10.743 -0.3272  0.1392  0.3338
27143W        W43990   1.716  13.450  10.806  0.3682 -0.0477 -0.0786
27144W        W43991  18.496   1.411   1.589  0.0064 -0.1115  0.0923
27145W        W43992  12.659   4.574  13.707  0.0081 -0.1682  0.3143
27146W        W43993  16.139  10.402   3.271  0.1270  0.1680  0.0787
27147W        W43994   0.709   6.841   1.549  0.1514 -0.1071  0.1363
27148W        W43995  14.975   9.359   0.509  0.0012 -0.1506 -0.2465
27149W        W43996  16.411  11.938   4.745 -0.1090  0.0026  0.0387
27150W        W43997   8.024  13.539  13.826 -0.3089  0.2830 -0.1230
27151W        W43998   5.017   0.054   0.277 -0.0589  0.1255 -0.1782
27152W        W43999  10.025  14.109   4.426  0.1556  0.1150 -0.2107
27153W        W44000   0.085   8.642   0.593 -0.1484  0.2639  0.2898
27154W        W44001  15.799   9.835  15.528  0.0165  0.2112  0.0363
27155W        W44002  13.819  15.161  14.417 -0.0507 -0.1517 -0.0128
27156W        W44003  17.376   7.289   0.796  0.1584  0.0828 -0.0973
27157W        W44004   1.128   5.002   3.827  0.1918 -0.2222  0.0582
27158W        W44005  10.363   5.310  12.997  0.2375  0.2780 -0.0816
27159W        W44006   8.363  17.093   1.844  0.2563 -0.3360  0.2150
27160W        W44007  12.415  15.533  15.687 -0.1919 -0.5020 -0.2360
27161W        W44008   1.601   9.929  13.162  0.0161 -0.0746 -0.2546
27162W        W44009  18.483   9.613   3.644 -0.2309  0.3162 -0.1424
27163W        W44010   1.470   2.307   0.043 -0.1689  0.1879 -0.4432
27164W        W44011  18.531   9.054   1.448 -0.1526 -0.0306 -0.2342
27165W        W44012   9.714  16.181  13.257 -0.1873 -0.1422 -0.1358
27166W        W44013   4.327   8.751   1.979 -0.1867  0.1311  0.2477
27167W        W44014   7.592   8.978  13.460 -0.1128  0.1822 -0.0634
27168W        W44015  12.672  12.414   5.333  0.4165  0.1562 -0.0312
27169W        W44016  15.689   9.865  11.863  0.4680  0.3002  0.2995
27170W        W44017  12.529  15.524   3.305 -0.3423  0.0683 -0.1775
27171W        W44018   1.619  12.751  14.781  0.1236 -0.0901 -0.0853
27172W        W44019   4.904  17.322  15.699 -0.0916 -0.2353  0.2403
27173W        W44020   7.150   2.461  14.604  0.2832 -0.0100 -0.0112
27174W        W44021  16.765   1.768  11.676  0.2612 -0.0610 -0.1551
27175W        W44022  11.311  10.610   3.262 -0.1978 -0.0615  0.0464
27176W        W44023   4.596   3.129  15.143  0.1337  0.2019  0.0850
27177W        W44024  13.791   9.981   5.136  0.0888  0.1231 -0.3010
27178W        W44025  12.321  13.904  12.047 -0.0488 -0.0635  0.1074
27179W        W44026  14.700   8.773  15.775  0.0466  0.2300  0.1589
27180W        W44027  16.183  16.959  13.448 -0.0554 -0.2645  0.1229
27181W        W44028   1.432   5.608   2.216  0.0775 -0.0601  0.4620
27182W        W44029  15.519  13.971   2.899  0.0584  0.1773 -0.1824
27183W        W44030  10.458  13.304   1.153  0.0980  0.0045  0.0138
27184W        W44031   0.522  17.650  13.033  0.0677 -0.1088 -0.0728
27185W        W44032  11.574  11.096   9.659  0.2269  0.1225  0.0714
27186W        W44033   0.285   8.601  15.283  0.1838  0.1421 -0.2104
27187W        W44034   4.056   0.050   1.115  0.0251 -0.3641  0.1584
27188W        W44035  17.333   0.111  12.989  0.0214  0.3736 -0.0827
27189W        W44036  17.355   5.026  14.609 -0.2467  0.2705 -0.2089
27190W        W44037  12.253   8.558   2.783  0.2115 -0.3790 -0.2556
27191W        W44038  18.830   9.445   0.016 -0.0196  0.0087 -0.0771
27192W        W44039   6.965   5.912   1.978 -0.0036 -0.0707  0.0172
27193W        W44040   3.638   7.421  11.363  0.1464 -0.1501 -0.3959
27194W        W44041   2.442  18.519  14.382 -0.0464  0.0953 -0.1144
27195W        W44042   2.120   8.788  14.558 -0.0825  0.2990  0.0727
27196W        W44043   5.646   2.160   1.763 -0.1788 -0.4147  0.2055
27197W        W44044   4.264  12.787  13.688 -0.2358 -0.1817  0.4695
27198W        W44045   7.121  10.042  12.043  0.0272 -0.0903  0.0604
27199W        W44046  14.338  18.081   3.837  0.0977 -0.3704 -0.1457
27200W        W44047  17.746  16.085  13.924 -0.2376 -0.0573  0.0967
27201W        W44048   4.554   8.364  11.355 -0.2162 -0.0795 -0.0921
27202W        W44049  10.251   1.650   0.905  0.3198 -0.4374 -0.0594
27203W        W44050  15.282  13.167  15.097 -0.0116  0.1788  0.3552
27204W        W44051   5.813  15.375  12.602  0.0381  0.0451 -0.0502
27205W        W44052  14.294  17.902   2.675  0.2092 -0.2643  0.1007
27206W        W44053  14.622   9.525  13.420 -0.1468 -0.2160  0.0327
27207W        W44054   2.804  15.992  14.510  0.2046 -0.1843  0.0791
27208W        W44055  17.957  16.205  10.982 -0.1694 -0.0043  0.1668
27209W        W44056  18.326  17.494   2.862 -0.1679  0.1196  0.0638
27210W        W44057   0.732   0.771   4.701  0.2041  0.1520 -0.0788
27211W        W44058   5.552  18.481  13.604  0.0165  0.2447 -0.0612
27212W        W44059   0.153   8.542   0.055  0.1062  0.3567  0.2008
27213W        W44060  12.151   5.839  12.371  0.1456 -0.1120  0.0426
27214W        W44061   2.927   2.645  15.644  0.1712  0.2315 -0.0066
27215W        W44062   7.240   3.945   4.828  0.1849 -0.2209  0.0490
27216W        W44063   5.688  16.066  11.171  0.1488  0.2463 -0.2395
27217W        W44064  16.032  16.633   2.510 -0.1370 -0.0541  0.0709
27218W        W44065   9.814  13.520  12.157 -0.3283  0.3234 -0.1055
27219W        W44066  14.227   0.509   4.431  0.2303 -0.0830  0.4856
27220W        W44067  16.588   1.750   3.795 -0.0171 -0.0355 -0.0548
27221W        W44068  11.526   6.242   5.274  0.0338 -0.2459  0.1172
27222W        W44069  15.883   0.868  11.293  0.4293  0.2513  0.2935
27223W        W44070   7.903   3.682   0.007 -0.1695 -0.4142 -0.0669
27224W        W44071  17.177  16.854  15.566  0.0504 -0.3838 -0.3037
27225W        W44072   5.685   0.250   0.408 -0.0522 -0.0996  0.1271
27226W        W44073   7.491  17.169  14.140 -0.2626 -0.1452  0.1888
27227W        W44074  15.044   1.269   2.526 -0.0454  0.0759 -0.1311
27228W        W44075  14.952  11.154   2.024  0.0970  0.3518 -0.4492
27229W        W44076   3.704   3.634   1.159 -0.0229  0.0007 -0.0421
27230W        W44077  15.964  12.058  15.079  0.3999 -0.0522  0.2069
27231W        W44078   1.565  16.971   2.026 -0.0326 -0.1858 -0.2658
27232W        W44079   2.272  16.943  13.186 -0.0940  0.1083  0.0920
27233W        W44080  15.908   5.711   0.821 -0.3527 -0.1533 -0.0133
27234W        W44081   0.049   0.314   5.041  0.1285 -0.2241  0.3394
27235W        W44082   0.762  13.597   2.464 -0.3092  0.1674 -0.1725
27236W        W44083   0.688   3.238   1.142 -0.1795 -0.2462  0.2229
27237W        W44084   7.589   9.483   1.692  0.0843  0.0615 -0.5046
27238W        W44085   8.806   9.490  13.970 -0.1312  0.0644  0.2069
27239W        W44086  14.411   4.827  11.532  0.0126 -0.3819  0.2077
27240W        W44087   4.904   5.517  11.723 -0.0582  0.1403  0.0625
27241W        W44088   8.909   7.218   0.864  0.1826  0.3670 -0.0960
27242W        W44089  10.402  13.746  11.459  0.2204  0.0772 -0.2324
27243W        W44090   4.427   5.120   0.662 -0.1938 -0.2714  0.0504
27244W        W44091  17.673  16.433   5.190  0.2064  0.3657  0.2528
27245W        W44092  16.118   9.885   0.214 -0.0368  0.2573 -0.1012
27246W        W44093  13.411  16.676  12.466 -0.3418  0.1730  0.1378
27247W        W44094   1.527  17.579  11.124  0.3592 -0.0104 -0.2674
27248W        W44095  17.852  17.066   2.249 -0.1582  0.0118  0.0358
27249W        W44096  13.471   8.978   3.370  0.0055 -0.2203  0.0961
27250W        W44097  15.294   5.082  11.598 -0.2364  0.2112 -0.1616
27251W        W44098  12.675  11.307   3.275 -0.1463  0.3065 -0.0162
27252W        W44099   5.314  18.342   4.015  0.3624  0.2962  0.4268
27253W        W44100  16.662   2.891   3.007 -0.0122 -0.2235 -0.6134
27254W        W44101  12.017  14.367   0.752 -0.0495 -0.0447  0.2323
27255W        W44102  16.427   5.897   3.974 -0.2756 -0.1056  0.1771
27256W        W44103  15.309  16.472   3.233 -0.2456 -0.2057  0.1636
27257W        W44104  18.684   5.193  13.062  0.4273  0.1436 -0.1157
27258W        W44105  14.621  15.293  12.302  0.3930  0.0323 -0.4624
27259W        W44106  12.738   5.663   5.206  0.0263  0.3071 -0.0877
27260W        W44107   6.615   0.133  13.323  0.1744  0.0489  0.1121
27261W        W44108  17.174   2.126  11.741  0.1700  0.2334  0.2005
27262W        W44109  13.554  10.961  13.987  0.1222 -0.2403  0.0067
27263W        W44110  16.118   2.270  13.346 -0.4094  0.1087  0.1465
27264W        W44111  11.746   8.455   0.795 -0.4739 -0.3028  0.2421
27265W        W44112  18.233   3.257   2.018 -0.0285  0.1668  0.2186
27266W        W44113   5.280   3.373   0.191 -0.2084 -0.5650 -0.2088
27267W        W44114   5.823  11.390   0.583  0.0948  0.1513  0.3183
27268W        W44115   9.187  12.265   1.225 -0.0586  0.2445  0.1638
27269W        W44116  10.990  12.486   0.859  0.1970 -0.2566 -0.0400
27270W        W44117   1.654   2.649   4.101  0.0432  0.2211 -0.3312
27271W        W44118  14.696  10.824  14.120 -0.3992 -0.0630  0.0368
27272W        W44119   9.390  11.149   0.907  0.1122 -0.2333 -0.1312
27273W        W44120  16.316   2.944   0.665 -0.1645 -0.0720  0.0961
27274W        W44121   6.778  16.947   5.083 -0.2939 -0.3477 -0.1033
27275W        W44122  15.104   7.996   1.490  0.3542 -0.1188 -0.0008
27276W        W44123  15.478  15.249   4.845 -0.1995 -0.1123  0.0685
27277W        W44124   3.210   1.364   2.542  0.2903 -0.1528  0.0924
27278W        W44125  18.301   4.719  11.881 -0.0705 -0.3925  0.0926
27279W        W44126   6.054  14.092   2.865  0.3181  0.2638  0.1630
27280W        W44127   0.418   2.955  15.087  0.0311  0.1280  0.0200
27281W        W44128   6.817  18.022   2.625  0.0386  0.1200 -0.2617
27282W        W44129  14.512  18.324   0.517 -0.0665  0.1356  0.0432
27283W        W44130   9.243   0.598  10.300  0.0153 -0.1439  0.0667
27284W        W44131   3.319  11.169   2.905 -0.0190  0.4158  0.0393
27285W        W44132  15.676  10.804  15.512  0.1217  0.0997  0.3786
27286W        W44133   8.275  13.113   0.321 -0.2155  0.0146  0.0929
27287W        W44134  10.978   4.597   3.505 -0.1192  0.0869  0.1244
27288W        W44135  10.608   7.649  14.653 -0.2871 -0.1683 -0.3072
27289W        W44136   6.238  15.092   1.302 -0.0928  0.0617  0.1339
27290W        W44137  17.161  14.323  12.006  0.0908  0.1506 -0.1147
27291W        W44138  18.728  11.688   0.227  0.1839  0.1140  0.1887
27292W        W44139  10.609  11.852   0.637 -0.1465  0.1469 -0.2936
27293W        W44140   4.322   7.061  12.057 -0.1501 -0.1190  0.0214
27294W        W44141  18.427   6.300   0.801  0.1012 -0.1109  0.2516
27295W        W44142  17.771  13.853  14.366  0.0761  0.0261  0.0753
27296W        W44143  11.793  11.000  11.870 -0.2109 -0.2013 -0.1504
27297W        W44144   2.063  18.340  12.306 -0.1980 -0.1605  0.1467
27298W        W44145   9.443   8.952   3.159 -0.0146 -0.0102 -0.2148
27299W        W44146  12.835   5.643   3.370  0.0196  0.0808 -0.1218
27300W        W44147  10.618   0.212  15.407  0.1470  0.1256  0.1388
27301W        W44148  16.341  18.859  11.635 -0.2903 -0.2757  0.1829
27302W        W44149  11.661  11.664   9.764 -0.1809 -0.2445  0.1750
27303W        W44150  17.758   3.278  15.601  0.0521 -0.1853 -0.2004
27304W        W44151   1.512  14.294   5.402  0.3480 -0.2619 -0.0153
27305W        W44152   3.363   2.981  13.285 -0.3706  0.2503 -0.4357
27306W        W44153   1.016  16.476   5.091  0.3200 -0.0887  0.0454
27307W        W44154   3.267  15.268  13.909 -0.0253  0.3498 -0.0732
27308W        W44155  11.579   0.522   3.303  0.2246  0.3293 -0.1675
27309W        W44156   6.586   7.931   5.275  0.3636 -0.0527  0.0768
27310W        W44157   2.674   9.108  11.621  0.0309 -0.1739  0.1527
27311W        W44158  15.798   7.447   2.738 -0.1493  0.1389  0.1277
27312W        W44159   6.449  16.945  14.445  0.3996  0.2375 -0.3193
27313W        W44160   1.814   5.125  15.233  0.2359  0.1804 -0.0217
27314W        W44161   2.231   7.865   3.752 -0.2346 -0.0001  0.0562
27315W        W44162   5.545   2.850  13.866 -0.1144  0.0488  0.1947
27316W        W44163   3.448  15.601   3.228 -0.1839  0.2754  0.0183
27317W        W44164   3.057  10.687   2.622  0.3137 -0.1892  0.1194
27318W        W44165   3.073   5.649   5.500  0.0026 -0.4848  0.2258
27319W        W44166  10.558  18.027   1.447  0.1057 -0.1117  0.0221
27320W        W44167   9.708   9.797   1.977  0.0878  0.1566 -0.0397
27321W        W44168  13.526  16.991   1.393  0.1029  0.0401 -0.2132
27322W        W44169  17.819   6.321  12.627  0.3422  0.1612 -0.0656
27323W        W44170  16.203  17.368   4.388 -0.0908 -0.0597 -0.4456
27324W        W44171  17.765  10.895   0.041 -0.0180  0.3389  0.0501
27325W        W44172   4.336   6.234  14.314 -0.1411  0.0048  0.0633
27326W        W44173   4.781   2.379  11.747  0.0220 -0.2349 -0.0716
27327W        W44174   5.850  17.329  14.311 -0.2820 -0.1719 -0.1031
27328W        W44175  14.709   8.958   1.840  0.2711 -0.0376 -0.1048
27329W        W44176  13.323   0.734   1.922  0.1703  0.0265 -0.0604
27330W        W44177   0.225   6.903   1.782  0.1200 -0.0898 -0.1558
27331W        W44178   5.764  16.248  15.568 -0.3718 -0.0750  0.1520
27332W        W44179   6.709   9.827  14.926  0.2748  0.1606 -0.0671
27333W        W44180   0.379   4.523  11.744  0.1671  0.0403 -0.2850
27334W        W44181   7.486   3.956  11.588  0.1926 -0.0437 -0.2270
27335W        W44182   6.095   9.649   2.276  0.0701  0.0998 -0.2174
27336W        W44183  10.573  14.313   4.517  0.0163  0.1472 -0.1509
27337W        W44184   9.140  14.830   1.296  0.2254 -0.0477 -0.0465
27338W        W44185  10.114   4.106   4.565  0.1372 -0.1283  0.0295
27339W        W44186  17.609  14.625   0.467  0.2524  0.1376 -0.1926
27340W        W44187  11.159  14.981  13.447  0.1313  0.2215  0.2425
27341W        W44188   7.736   3.148   4.621 -0.0572 -0.0860  0.1355
27342W        W44189   0.048  11.417   3.030 -0.0289 -0.2617  0.1304
27343W        W44190   6.432   2.562   2.983  0.0655 -0.0028 -0.4560
27344W        W44191  15.463   1.817  12.957 -0.1500  0.3014  0.1190
27345W        W44192   5.917   0.220   2.416 -0.1107  0.0799 -0.2726
27346W        W44193  15.379  13.174   2.001  0.1754  0.0909  0.1031
27347W        W44194  18.437   0.462  15.601 -0.0720  0.1917  0.0128
27348W        W44195   5.628   4.027  12.770 -0.2771 -0.0192  0.2158
27349W        W44196   6.659   1.402  12.540 -0.1986  0.2288  0.1093
27350W        W44197   8.052   8.308  11.226  0.1760  0.1231  0.1024
27351W        W44198   9.547   6.311  11.153 -0.2704 -0.1200 -0.1599
27352W        W44199  18.592  13.754  12.390  0.0395 -0.2048  0.0741
27353W        W44200  12.006   5.491  15.369 -0.0632 -0.2236  0.0894
27354W        W44201   9.540   1.860  12.285  0.0676  0.1055  0.1143
27355W        W44202  11.756   4.275  13.712  0.0421  0.0842 -0.2331
27356W        W44203  13.564   4.827   0.303 -0.1550  0.1086 -0.2292
27357W        W44204  11.250  13.996   4.838 -0.1005  0.1035 -0.3886
27358W        W44205   6.349   9.336   0.545 -0.1080 -0.0622  0.0688
27359W        W44206  11.032  11.946  13.732  0.0352 -0.0492  0.1997
27360W        W44207  15.535   8.652   5.440 -0.1411 -0.0700 -0.2407
27361W        W44208  13.596   0.100  12.600 -0.0588 -0.0460  0.1640
27362W        W44209  11.567   2.015   1.932 -0.0366  0.0050 -0.1180
27363W        W44210   6.881   4.737  14.611  0.0038 -0.0130  0.0658
27364W        W44211   1.872  17.587  15.482 -0.0069 -0.0338 -0.1654
27365W        W44212   9.786   6.107   1.307 -0.0403  0.0794 -0.3157
27366W        W44213  18.229  17.103  11.004 -0.0396 -0.2310  0.0983
27367W        W44214  15.224  11.429   4.873 -0.0562  0.1611 -0.0845
27368W        W44215   5.130  10.699   4.346  0.1611  0.0759  0.1526
27369W        W44216  18.082   5.900   1.776  0.1806 -0.0393 -0.2198
27370W        W44217   5.643   6.468   4.105  0.2410 -0.1599  0.2840
27371W        W44218   4.121  18.308   0.171  0.2296  0.1396 -0.0697
27372W        W44219   6.456  17.571   1.043 -0.0869  0.0988  0.1852
27373W        W44220  14.386  10.610   1.245 -0.2221  0.0065 -0.0214
27374W        W44221   0.831  10.896   2.418 -0.1996  0.2063 -0.0046
27375W        W44222   8.224  17.096   4.191 -0.0370 -0.0104 -0.1169
27376W        W44223   1.681  14.648  12.132  0.1963  0.0894  0.2592
27377W        W44224  12.882  15.216   0.808 -0.2157  0.0310 -0.0699
27378W        W44225   2.652   0.002   5.920 -0.0262  0.0661  0.0702
27379W        W44226  12.986  11.017  15.638 -0.2296  0.0196 -0.0984
27380W        W44227   1.813   2.316  12.321 -0.0832 -0.1238 -0.2366
27381W        W44228   5.428   8.197  12.136 -0.1190  0.0325 -0.3084
27382W        W44229  11.229   0.586   2.261  0.1416  0.0600  0.1504
27383W        W44230  14.258   9.749   5.995 -0.1065  0.2165  0.0000
27384W        W44231  17.412   0.229  12.368  0.0324  0.0253  0.1190
27385W        W44232  17.518  17.973   2.842 -0.0696 -0.0443  0.1741
27386W        W44233   3.589   2.124   4.865 -0.2181 -0.0994  0.1075
27387W        W44234  13.138   9.502  12.187  0.2089  0.2789  0.0987
27388W        W44235  17.694   8.417  15.697 -0.1262  0.4861  0.2939
27389W        W44236   0.927   2.655  10.429  0.3632 -0.1641  0.1707
27390W        W44237   2.282  16.460  12.192 -0.0016 -0.0029 -0.1836
27391W        W44238   7.982   6.693   0.943  0.2626 -0.0786 -0.1372
27392W        W44239   7.902  17.695   2.258 -0.3658 -0.0437 -0.1643
27393W        W44240  14.136  10.429   3.556  0.0318  0.1462  0.0974
27394W        W44241  15.330  10.648  13.380 -0.1119 -0.0068 -0.2127
27395W        W44242  15.821  11.260  15.739  0.4009  0.0900  0.1078
27396W        W44243  14.297   0.198   3.368 -0.0636 -0.2343 -0.1357
27397W        W44244  17.345  14.340  13.920  0.2171  0.1501  0.2643
27398W        W44245   5.157  17.630  13.712 -0.1423 -0.1365  0.0846
27399W        W44246   2.573  11.053   0.601  0.4818  0.0591 -0.1761
27400W        W44247  12.706  16.012   1.300 -0.1737  0.2893  0.1376
27401W        W44248   2.934   9.663   1.910  0.3135  0.0088  0.0798
27402W        W44249   3.883  11.663  13.620  0.1283 -0.0121  0.2272
27403W        W44250  11.764   7.210   0.521 -0.1917  0.1573  0.2766
27404W        W44251   0.354  14.528  13.921 -0.1899  0.0727  0.1979
27405W        W44252   8.279   6.935  14.590 -0.1545  0.0843  0.0623
27406W        W44253   8.031  12.192  13.723  0.0263 -0.1016 -0.2714
27407W        W44254   2.484   3.883   1.448 -0.3479 -0.0811  0.2979
27408W        W44255  11.463  11.398  11.891 -0.2971  0.1597  0.1336
27409W        W44256  14.321  12.765  11.001 -0.0247 -0.0502 -0.1004
27410W        W44257  18.689  15.315   0.866  0.1679  0.1491  0.0094
27411W        W44258  16.795   1.381  12.776  0.1869  0.0427 -0.0565
27412W        W44259  13.384   9.148  12.442 -0.0017  0.0270 -0.1502
27413W        W44260  15.307  16.274  11.326  0.2434  0.1069  0.2337
27414W        W44261   5.099  12.566   3.192 -0.3737  0.0282 -0.0727
27415W        W44262   4.708  14.897   0.827 -0.1901 -0.0021  0.0545
27416W        W44263  16.418   0.374  12.041 -0.1463  0.0416  0.0487
27417W        W44264  16.038  14.128   4.642 -0.0513  0.1510 -0.1413
27418W        W44265  15.832  10.291   0.039 -0.0224  0.2920 -0.0903
27419W        W44266   9.693   5.097   2.904 -0.1031  0.1501 -0.1572
27420W        W44267   7.734   7.262  12.137 -0.0683  0.1189  0.2466
27421W        W44268   8.098  10.858   3.555 -0.1668  0.0823  0.0306
27422W        W44269   3.785   8.449  14.903 -0.2892  0.1966 -0.2012
27423W        W44270  16.498   4.450  14.198  0.1276 -0.0014 -0.2612
27424W        W44271   4.080  14.245  11.603 -0.1666  0.2016 -0.1153
27425W        W44272   8.850  11.688   3.384 -0.0852 -0.1739  0.1976
27426W        W44273  14.050  17.696  15.428  0.0845 -0.2665 -0.3050
27427W        W44274   7.850  14.590   1.069 -0.2630  0.1754  0.2069
27428W        W44275  10.221  17.008   3.154 -0.0025  0.0637 -0.1109
27429W        W44276  17.680  16.188  11.398 -0.0383 -0.0180  0.0440
27430W        W44277  12.481  12.969  14.342  0.0334  0.1153  0.2157
27431W        W44278   4.511   1.971  14.444 -0.1961 -0.1663  0.1080
27432W        W44279   5.449  17.902  12.036 -0.2184 -0.1194  0.3122
27433W        W44280   5.294  11.411  11.808 -0.1378 -0.3835  0.1725
27434W        W44281  12.235   4.153  15.749 -0.3553  0.3625 -0.3447
27435W        W44282   5.757   9.878   3.239 -0.0517 -0.0793  0.0307
27436W        W44283  11.763  16.161   1.274  0.0727  0.1332 -0.1813
27437W        W44284   5.725   5.101  15.434  0.2243 -0.1987  0.4371
27438W        W44285  18.591  18.597   5.702  0.4962 -0.0700  0.0088
27439W        W44286  17.306  11.939   0.652  0.0210  0.0464  0.0822
27440W        W44287  16.457   8.540   0.095  0.2657 -0.3096 -0.0713
27441W        W44288   4.428   3.131   1.117  0.0420  0.0935 -0.1700
27442W        W44289   9.369  15.998  15.155  0.1826  0.0902  0.1324
27443W        W44290   7.401   5.217  11.768 -0.2114  0.3258  0.4262
27444W        W44291  16.039  12.677   4.140 -0.0664  0.4960  0.1645
27445W        W44292  14.175  18.445   0.138 -0.1126 -0.1597  0.0344
27446W        W44293  14.985  10.518  11.589  0.0907 -0.2226  0.0770
27447W        W44294   2.570  18.794   4.518 -0.1518 -0.2084  0.0377
27448W        W44295  16.797  11.253  12.725 -0.2471  0.0998 -0.0828
27449W        W44296  13.982   2.696   4.971  0.0487 -0.0606 -0.1776
27450W        W44297  18.468  12.123   4.961  0.2296 -0.0214 -0.1392
27451W        W44298  16.645   4.488   4.617  0.1214 -0.1237  0.0998
27452W        W44299   4.346   6.611  13.867 -0.3186  0.0565 -0.0908
27453W        W44300   7.044  12.060   0.361  0.0047  0.1735  0.3317
27454W        W44301   4.093  16.592   2.845 -0.0103  0.0152 -0.2860
27455W        W44302   3.636  16.938   0.589  0.4225  0.0088 -0.0223
27456W        W44303  10.279   4.004  11.612  0.1316  0.0789  0.1417
27457W        W44304   9.282   7.593  11.038  0.3846  0.3540 -0.2339
27458W        W44305  14.051   9.435   0.295 -0.1254  0.0448  0.0222
27459W        W44306  10.913  14.413  15.486  0.1405 -0.0647 -0.1986
27460W        W44307  16.959  18.122  11.976 -0.3296 -0.2543 -0.0694
27461W        W44308  10.162  11.883   3.312 -0.1308  0.3249 -0.0372
27462W        W44309   0.105   6.301  12.286  0.2937  0.1785 -0.1291
27463W        W44310   9.252  12.468   5.097  0.2940 -0.0999 -0.1393
27464W        W44311   5.962  18.382   3.088 -0.2327 -0.0181 -0.0987
27465W        W44312  13.409   2.797  12.469  0.0222  0.0775  0.1558
27466W        W44313  15.037   1.465  15.320 -0.0907 -0.0029  0.1013
27467W        W44314   5.680  17.410  10.770  0.0461 -0.1932 -0.0102
27468W        W44315  16.188   9.666   1.032  0.1464 -0.0935  0.0044
27469W        W44316  16.276  10.555   5.752  0.2033  0.2075  0.0048
27470W        W44317   4.108   7.113   5.170  0.0888 -0.1479  0.2648
27471W        W44318  18.738  17.227   3.085 -0.1129 -0.0040  0.2522
27472W        W44319   1.378  16.813  14.659  0.1185 -0.2051 -0.0858
27473W        W44320  18.521  16.574   1.009 -0.1865  0.0738 -0.0296
27474W        W44321  18.345  15.128   4.032  0.1414  0.0950  0.1342
27475W        W44322  12.831  15.541  14.548  0.0819 -0.2607  0.0247
27476W        W44323   1.541  15.367  13.921 -0.1189 -0.1694 -0.0143
27477W        W44324   2.773   6.703  13.140  0.0211  0.4358  0.0619
27478W        W44325   0.146  13.499   4.517  0.1613  0.1203  0.3655
27479W        W44326   8.963   4.176  11.105  0.0027  0.0308  0.0242
27480W        W44327   9.390  13.128   3.692 -0.1742 -0.3069  0.1488
27481W        W44328   6.761  15.892  13.204  0.0993 -0.2118  0.0293
27482W        W44329  13.521   5.391  13.028  0.1681  0.3079  0.1166
27483W        W44330  14.050   3.763  14.816 -0.2688 -0.1612 -0.0587
27484W        W44331   7.753  10.265   2.296 -0.2635 -0.0391 -0.2540
27485W        W44332  18.447  16.986   4.863  0.2136 -0.2591  0.2643
27486W        W44333   6.882   1.040   1.717  0.0412  0.1595 -0.1095
27487W        W44334   4.333  18.751  14.368 -0.1572 -0.4283 -0.4054
27488W        W44335  17.836  14.962   1.210  0.2225 -0.2972  0.0060
27489W        W44336   3.962  18.661   0.674  0.1726  0.2632  0.1360
27490W        W44337  16.239  14.292  12.415 -0.0055  0.1702  0.3450
27491W        W44338  11.646  15.842   2.221  0.0351 -0.0916 -0.2758
27492W        W44339  12.031  13.706   0.771  0.1227 -0.3947  0.0601
27493W        W44340  10.475   1.173  10.867 -0.1737 -0.1836  0.3760
27494W        W44341   4.286  17.088  11.182  0.1204 -0.0000 -0.2720
27495W        W44342  14.777  17.684   1.632  0.1281  0.2551  0.0826
27496W        W44343   8.798   6.448  15.407  0.4284 -0.0877 -0.0234
27497W        W44344   8.288   0.651  15.280  0.0845  0.1435  0.1457
27498W        W44345  11.516  14.093  14.581  0.0305 -0.1771 -0.0096
27499W        W44346  15.992   0.278  13.822 -0.2089 -0.0010  0.2857
27500W        W44347  12.105  14.214  11.184 -0.3361 -0.0232  0.0506
27501W        W44348   1.123   3.445   1.832 -0.3183  0.1538 -0.0017
27502W        W44349   5.489  11.270  13.972  0.0765 -0.1484 -0.2422
27503W        W44350  11.054  15.794   1.936  0.3399  0.0518 -0.1874
27504W        W44351  11.104  16.729  12.752  0.0923  0.0363  0.2637
27505W        W44352   5.169   4.232   2.504 -0.1516  0.4893  0.1562
27506W        W44353   5.129   1.082   0.523 -0.0529 -0.0063  0.0354
27507W        W44354  13.735  13.203  13.432  0.0971 -0.0678 -0.0838
27508W        W44355   1.831  12.198  15.041 -0.4746 -0.0607 -0.0854
27509W        W44356  17.749  14.953   2.316  0.1537 -0.0686  0.1611
27510W        W44357   4.281  12.720   3.753 -0.0796  0.0551  0.4529
27511W        W44358   2.213   9.467   2.956 -0.0475 -0.2060  0.0067
27512W        W44359  16.792  14.678   5.838 -0.3174  0.0315 -0.2098
27513W        W44360  12.770  10.791  11.636  0.1902 -0.2332 -0.1838
27514W        W44361   4.572   2.199  11.292 -0.2848 -0.4225  0.0384
27515W        W44362   4.227   9.303   0.383  0.1564  0.2198 -0.0265
27516W        W44363   3.469   6.479   5.805 -0.0725  0.0246 -0.5968
27517W        W44364   2.922  14.070   2.255  0.0084 -0.0632 -0.1970
27518W        W44365  15.841   6.936   3.067  0.0813  0.0609  0.0185
27519W        W44366   1.215  14.775   0.629  0.1823 -0.5013 -0.2997
27520W        W44367   3.682   5.809  14.076  0.0176  0.1375 -0.1961
27521W        W44368   4.903  11.800  14.401  0.2055 -0.0595 -0.0413
27522W        W44369   3.488  13.768   3.478 -0.0787 -0.1345 -0.1425
27523W        W44370  16.937   9.541   4.483 -0.3689  0.1217  0.2277
27524W        W44371  13.548   7.506  11.660 -0.1618  0.1821  0.0225
27525W        W44372   8.703  13.302  13.909  0.0668 -0.0031 -0.1279
27526W        W44373  15.842   9.558  14.565 -0.1554  0.1588 -0.1612
27527W        W44374  16.295  17.811  13.824  0.0940 -0.1315 -0.2129
27528W        W44375  15.606   8.811  13.519 -0.0666  0.0255  0.0499
27529W        W44376   6.532  12.732   4.532 -0.1703  0.4404 -0.1857
27530W        W44377   2.035   6.092   3.683 -0.0228  0.1419  0.2774
27531W        W44378   2.184  11.001   2.075 -0.1344  0.0784  0.0202
27532W        W44379  13.791  18.206  13.123  0.1038  0.0544  0.2493
27533W        W44380   2.785   4.045   0.920 -0.1634 -0.1241  0.2004
27534W        W44381  12.130  16.706   2.375 -0.2451  0.0212 -0.2058
27535W        W44382   6.085  11.370   1.791  0.0150 -0.0651 -0.1849
27536W        W44383   1.168   9.914   1.544 -0.1093 -0.0531 -0.2605
27537W        W44384   4.484  18.162   2.651 -0.1355  0.1382  0.3998
27538W        W44385   2.517   7.173  13.957 -0.3429 -0.3273  0.2378
27539W        W44386  12.881   0.607   6.035 -0.1130 -0.3875 -0.0986
27540W        W44387  18.710   1.631  15.048  0.2733  0.0155  0.3617
27541W        W44388  17.062  13.964  14.160  0.0396 -0.2236 -0.0265
27542W        W44389   1.208   6.491  12.812 -0.0701  0.2291  0.0454
27543W        W44390  10.030   8.625   1.483 -0.0862  0.4246  0.0332
27544W        W44391  14.698  13.645  10.492  0.1765  0.0743  0.2829
27545W        W44392  10.954  15.807  13.835 -0.2209  0.2295 -0.1039
27546W        W44393  14.062   7.720   4.009  0.0857  0.1288  0.0564
27547W        W44394  17.282   4.270  15.569 -0.4001  0.4554 -0.0998
27548W        W44395   6.048  10.990   4.468  0.0888  0.0188  0.1821
27549W        W44396   7.879   4.964   2.563 -0.0228  0.1842 -0.1693
27550W        W44397  18.225   9.688   0.607 -0.0989  0.1616 -0.1970
27551W        W44398   7.494  11.917   0.120  0.0428  0.0300  0.1088
27552W        W44399   0.696  17.156   9.730  0.2894  0.0168  0.0923
27553W        W44400  18.057  10.422   4.758  0.0684 -0.0647 -0.2055
27554W        W44401  14.205  17.392  15.041  0.1132 -0.1296 -0.2767
27555W        W44402   7.832  10.749   2.067  0.1781 -0.0920  0.3644
27556W        W44403  10.842   1.265  12.724  0.0658  0.0396  0.0613
27557W        W44404   0.965  10.686   3.853  0.0541 -0.1812  0.1022
27558W        W44405  16.861   3.049  14.674 -0.1138 -0.0260 -0.2452
27559W        W44406   8.269  17.872  12.164 -0.1349  0.2750 -0.2145
27560W        W44407   5.786  12.292   3.086 -0.0948  0.0948 -0.3037
27561W        W44408   1.675   4.306   2.352 -0.3652 -0.0862  0.0080
27562W        W44409  16.828   3.400  11.816  0.0857  0.1205  0.0718
27563W        W44410  10.296  12.938   0.768  0.0922 -0.1181  0.2318
27564W        W44411  11.430   3.401  12.822  0.0897 -0.0712  0.1972
27565W        W44412  17.473  13.972  12.733 -0.1959  0.1467  0.1127
27566W        W44413   0.136  16.937   0.889  0.2741 -0.0644  0.1576
27567W        W44414  14.491  13.129   0.741 -0.1768  0.1494  0.0273
27568W        W44415   4.024  14.803  12.019  0.1886  0.0539  0.0405
27569W        W44416  17.200  11.240   1.532  0.0969 -0.1834  0.0724
27570W        W44417  14.535  13.541   4.772  0.4421 -0.1075  0.1506
27571W        W44418  17.283   8.471  12.893 -0.1193  0.2199  0.0288
27572W        W44419   8.593  17.890  14.848 -0.3079 -0.0696 -0.1835
27573W        W44420  10.448  10.700  12.285 -0.2312 -0.0684 -0.2069
27574W        W44421   0.346   5.522   2.737  0.1420 -0.3746 -0.1622
27575W        W44422   8.179   1.038  13.802 -0.1664 -0.3703 -0.0926
27576W        W44423  12.899  11.577   1.084 -0.1872  0.1211  0.0419
27577W        W44424   5.470   2.059  14.918  0.2207 -0.4689 -0.7507
27578W        W44425   4.616  17.676   3.874  0.0757  0.3133 -0.1554
27579W        W44426   6.869  15.612   2.518 -0.0537 -0.2553  0.1953
27580W        W44427  12.541   5.656   1.017  0.0218  0.1110 -0.1133
27581W        W44428  11.985   1.480  12.032 -0.0502 -0.3207 -0.2048
27582W        W44429   2.160  11.457   0.153 -0.2890  0.2012 -0.2592
27583W        W44430   7.815   1.768   3.049  0.4241  0.1961 -0.2267
27584W        W44431  14.050  13.829   0.276  0.0619 -0.3920 -0.1278
27585W        W44432  13.152   9.124   0.613 -0.1302 -0.1054  0.1011
27586W        W44433   3.758   5.261  12.070 -0.0254 -0.1803  0.1318
27587W        W44434   3.080   1.003  12.742  0.0089 -0.2622  0.3216
27588W        W44435  17.363  11.522   4.819 -0.1889 -0.1392  0.2240
27589W        W44436   9.461   7.633  11.741 -0.2423  0.3464  0.1780
27590W        W44437  12.105   0.938  12.962 -0.1862  0.1396 -0.0639
27591W        W44438  17.168  11.374  14.932 -0.1304 -0.3438  0.0002
27592W        W44439  14.106   3.122   0.316 -0.3740  0.4067  0.0657
27593W        W44440   6.075  12.987   4.175  0.1528 -0.0409  0.1734
27594W        W44441   7.540   8.211  13.685  0.1219 -0.2653  0.1851
27595W        W44442   4.623  15.387   0.886 -0.2760  0.1895  0.0226
27596W        W44443  10.237   2.119  11.857  0.1327  0.0093 -0.1216
27597W        W44444  17.269  18.526   0.694  0.1527 -0.0183  0.0607
27598W        W44445  17.435  12.781  14.185  0.0472 -0.0108 -0.2520
27599W        W44446   3.807   3.710  13.901  0.2275  0.1124  0.0272
27600W        W44447   4.914   6.235  11.099 -0.2309  0.0786 -0.0760
27601W        W44448  11.178   6.747  14.117  0.0686 -0.5064  0.1727
27602W        W44449  11.507  11.120  13.338  0.2613 -0.0308  0.0274
27603W        W44450  12.260   8.680  11.686 -0.0841  0.0382 -0.0157
27604W        W44451   4.965   4.031  13.261  0.1636  0.4052  0.1276
27605W        W44452  15.138   8.440   2.616  0.0488  0.1345 -0.4473
27606W        W44453  11.034   5.237   3.992  0.1757  0.1094 -0.1297
27607W        W44454  13.252   5.224   0.511 -0.2358  0.0066 -0.0607
27608W        W44455   4.028   7.236  13.541 -0.3285 -0.2264  0.0853
27609W        W44456  12.575  13.565  14.838 -0.1765 -0.2004  0.0978
27610W        W44457   1.197  10.080   0.651  0.4188  0.1278  0.0242
27611W        W44458  16.405   0.244   3.381  0.0889 -0.1741 -0.3743
27612W        W44459  12.383   3.111   3.299 -0.0936  0.3660  0.2172
27613W        W44460   7.938  14.264  12.469 -0.0872  0.2369  0.0836
27614W        W44461   8.057   1.757   1.409 -0.4108  0.1037 -0.2192
27615W        W44462   0.927   5.322   3.388  0.1168 -0.1908 -0.1315
27616W        W44463   8.650   3.039   2.861  0.1761  0.3147  0.0321
27617W        W44464  10.926  14.768   1.759  0.0930 -0.2226  0.2296
27618W        W44465  18.761   9.096  13.911  0.0137  0.0853 -0.0106
27619W        W44466   8.807  18.487   0.266 -0.6031 -0.0044  0.2306
27620W        W44467  14.870   1.916   1.861 -0.1782 -0.0623 -0.0413
27621W        W44468   2.770   5.512  13.569  0.2977 -0.1276 -0.1907
27622W        W44469   2.642  11.453  11.644 -0.1194 -0.3510 -0.2847
27623W        W44470   0.261  13.588   3.283  0.2114  0.0321 -0.2586
27624W        W44471   2.269   2.523  14.568 -0.1691  0.4634 -0.0025
27625W        W44472  12.969  12.920   3.911  0.1248  0.1899  0.2465
27626W        W44473  15.924   4.824  12.459 -0.0424  0.0289  0.0463
27627W        W44474   5.295  10.873  15.613 -0.3917  0.0207  0.0863
27628W        W44475   4.049  12.199  13.455 -0.0563  0.1995  0.0520
27629W        W44476   9.099  15.816   3.399  0.2167 -0.0403 -0.0549
27630W        W44477   8.498   4.195   3.920 -0.4155  0.1118 -0.0392
27631W        W44478   2.439   6.325   4.927 -0.2737  0.0191 -0.0891
27632W        W44479  16.766   2.010  15.235  0.1284 -0.0911 -0.0786
27633W        W44480  17.491  16.610   2.086  0.3139 -0.1774 -0.2500
27634W        W44481   4.432  12.121  13.107 -0.1459 -0.3520 -0.1078
27635W        W44482   3.131  15.763  13.725  0.1005 -0.1663 -0.0002
27636W        W44483   6.354  15.113  14.517 -0.1531 -0.1478 -0.0586
27637W        W44484   1.038  17.936  13.299 -0.0569 -0.2214  0.1134
27638W        W44485  16.320   2.936   3.519 -0.1255  0.4258 -0.1535
27639W        W44486  17.171   2.345   5.394  0.1373  0.0675  0.0942
27640W        W44487  11.545  17.479   5.045  0.1832  0.1733  0.1663
27641W        W44488  16.652   8.291   5.851 -0.1121  0.0677  0.0766
27642W        W44489  14.729  13.375  14.666 -0.0090  0.2183  0.1709
27643W        W44490  10.922  16.309  14.030  0.2651 -0.1672 -0.2140
27644W        W44491  14.075  12.083   1.454 -0.4717 -0.3983  0.2439
27645W        W44492   6.494   8.343  12.164  0.1355  0.2038  0.2959
27646W        W44493   4.432  16.691  13.906 -0.3271  0.3468  0.0985
27647W        W44494   9.970   9.983   3.874  0.0501 -0.0233 -0.2271
27648W        W44495   4.459   9.162  13.905  0.1635 -0.1431  0.2658
27649W        W44496   6.771  12.359   4.803 -0.3228  0.1335 -0.0324
27650W        W44497  11.898  11.048   4.550  0.2803  0.2169 -0.1724
27651W        W44498  18.284   2.915   4.200  0.3660  0.2008 -0.0223
27652W        W44499   5.196   5.537  13.310 -0.3099 -0.1146 -0.1494
27653W        W44500   6.470  15.659  11.861 -0.0075  0.0946 -0.4983
27654W        W44501  18.016  11.852   4.120  0.2472 -0.0213  0.6576
27655W        W44502  10.703  10.654   1.357 -0.0796  0.0833 -0.0145
27656W        W44503  13.060   4.118   1.020  0.0580 -0.2804 -0.0550
27657W        W44504  16.856  16.181  15.021 -0.0601 -0.0097  0.0786
27658W        W44505   2.446  13.634   3.402  0.1896  0.0452 -0.0320
27659W        W44506   7.047  11.873  14.010  0.2252 -0.1944  0.4978
27660W        W44507  10.122   7.560   4.615  0.1838  0.0191  0.1433
27661W        W44508   2.470   3.476  12.676  0.0185 -0.0928  0.0457
27662W        W44509  11.291   5.843  12.146  0.2573  0.1968  0.0598
27663W        W44510  14.473  14.305  13.999 -0.1770  0.0665 -0.1864
27664W        W44511  16.437  15.967  12.703  0.1880 -0.0195  0.1221
27665W        W44512  11.948  15.242  14.200 -0.0079 -0.0470  0.1524
27666W        W44513   7.471  16.177   2.947  0.3301  0.0470 -0.0237
27667W        W44514  13.072  18.370   2.705 -0.2372 -0.0737  0.3735
27668W        W44515   4.590   3.317   2.679  0.2643 -0.2902  0.2361
27669W        W44516   5.044  12.594   1.785  0.0663  0.2200  0.0405
27670W        W44517   7.960   0.405   5.200 -0.0099 -0.2137 -0.3809
27671W        W44518  15.383  15.386  15.299 -0.1218  0.2413  0.0953
27672W        W44519   0.380   2.621  12.811  0.0425 -0.0900 -0.0130
27673W        W44520  10.008  15.497   1.154  0.1490 -0.1884 -0.0576
27674W        W44521   4.160   5.248   2.693  0.1105  0.0171  0.0032
27675W        W44522  17.922  10.072  12.203  0.3181  0.0515 -0.1365
27676W        W44523   9.470   2.798   4.570  0.0498  0.1232  0.1812
27677W        W44524  18.461  16.121   0.799 -0.0883 -0.0171 -0.2298
27678W        W44525   5.787  13.084   2.721  0.0894  0.0865  0.0896
27679W        W44526   1.208   8.416  15.652  0.0770  0.2443  0.1689
27680W        W44527   8.008   9.574   1.446  0.0075  0.3552  0.1267
27681W        W44528  12.264   4.565  12.931  0.0610  0.1821 -0.0142
27682W        W44529  18.064  18.624  14.844  0.2344 -0.0935  0.1819
27683W        W44530  14.466   2.871   4.153  0.2443  0.2713  0.1672
27684W        W44531  11.485   9.163  15.118 -0.1735 -0.0859  0.2829
27685W        W44532   0.367   1.567  11.306  0.1638  0.4300 -0.0557
27686W        W44533   9.653   7.768  15.301 -0.0280  0.0369  0.0433
27687W        W44534   7.018   4.038   3.500 -0.1703 -0.0158  0.0841
27688W        W44535   0.761   1.309   4.776 -0.0150 -0.2393  0.0951
27689W        W44536   9.605   2.908   4.028  0.0380  0.1531 -0.3913
27690W        W44537  14.073   1.137  15.036 -0.1847  0.1232 -0.1109
27691W        W44538   9.479   0.326  11.132 -0.4211  0.0126 -0.2542
27692W        W44539  18.302   7.474   2.177 -0.1044 -0.0044 -0.3056
27693W        W44540  13.963  16.065   2.030  0.3131 -0.0935 -0.1807
27694W        W44541  16.202   7.886   0.218 -0.1974 -0.2561  0.0631
27695W        W44542  12.226   5.975  13.053 -0.1119 -0.1703 -0.0252
27696W        W44543   0.309   7.000  11.677 -0.1749 -0.4674  0.1223
27697W        W44544   9.286   0.331   1.242 -0.1667 -0.0418 -0.1230
27698W        W44545   5.450  16.839   3.968  0.0146  0.0309  0.1720
27699W        W44546   5.315   9.593  13.436  0.0684  0.1980  0.2703
27700W        W44547   8.391  11.577   0.017 -0.0496 -0.0282  0.1930
27701W        W44548  13.829  16.196  15.389 -0.1287 -0.2608  0.0330
27702W        W44549  17.329  16.122   2.234  0.1868 -0.1883 -0.1002
27703W        W44550   7.056  17.305  15.028  0.1584  0.1147 -0.0587
27704W        W44551  10.036  12.006  13.530  0.1814  0.0720 -0.1273
27705W        W44552   1.491  11.184  13.537  0.0077  0.0809 -0.1716
27706W        W44553  12.450  10.846  14.862 -0.0526 -0.1557 -0.1558
27707W        W44554  18.299   1.930   1.377 -0.0721  0.0851 -0.1632
27708W        W44555   5.801  15.902   2.635 -0.1689 -0.2035  0.0948
27709W        W44556  14.467   0.049   3.912  0.2313 -0.3097 -0.1972
27710W        W44557   9.308  11.341  15.068 -0.0308  0.0784  0.0534
27711W        W44558  11.678  15.403   0.790 -0.2199  0.0481 -0.0208
27712W        W44559   6.526   9.886  11.321 -0.0318 -0.2061  0.1489
27713W        W44560  13.069  13.797  15.654 -0.1127  0.0191  0.5573
27714W        W44561  14.384   6.994   4.503  0.0829 -0.1976 -0.2102
27715W        W44562  11.387   1.915  11.424  0.0492  0.1062 -0.0838
27716W        W44563   7.400  18.510   0.072 -0.0423 -0.3872 -0.1230
27717W        W44564  12.543   0.065   2.173  0.3607  0.2032  0.3255
27718W        W44565   7.440   2.924   1.875  0.1249  0.2248 -0.1285
27719W        W44566  12.331  10.647  11.218 -0.0435  0.2904  0.3152
27720W        W44567   2.315   7.311  11.660  0.4135 -0.1863 -0.2476
27721W        W44568  10.628   6.513  11.638 -0.0547 -0.1148  0.1374
27722W        W44569  11.553   4.677  14.966  0.2224  0.1193  0.1648
27723W        W44570  14.688   0.079   0.201  0.1966 -0.1882 -0.4045
27724W        W44571   2.550   8.817   2.221  0.2839  0.1291  0.0722
27725W        W44572  17.347  14.285   1.546 -0.2237  0.1716  0.0695
27726W        W44573   6.719  11.484  12.262 -0.6233 -0.1069  0.0509
27727W        W44574   0.628   6.607  13.808  0.0384  0.0695 -0.0175
27728W        W44575  12.889   4.376   4.523  0.2261 -0.2082 -0.1321
27729W        W44576  10.035  14.784  13.542  0.0708  0.0457 -0.1864
27730W        W44577  15.185   2.224   0.525  0.0063 -0.2687 -0.1205
27731W        W44578   6.559  13.967   2.811  0.2479 -0.0696 -0.3187
27732W        W44579   9.214  16.123   9.174  0.2377 -0.0724  0.5049
27733W        W44580  17.417  13.067  11.273  0.0406 -0.0021  0.1023
27734W        W44581  17.051   2.754   1.844  0.3391 -0.2504  0.0522
27735W        W44582  17.576   1.734   0.767 -0.0515  0.1317  0.1444
27736W        W44583   1.567   5.274   3.851  0.0019  0.2284  0.0931
27737W        W44584   6.345  10.545  12.574 -0.0354  0.0007  0.1640
27738W        W44585   6.378  11.064   2.221 -0.2216 -0.2028  0.1221
27739W        W44586   6.902  13.815   2.343  0.3131  0.1068 -0.2242
27740W        W44587  12.983   8.892   1.006 -0.0300 -0.0321 -0.1516
27741W        W44588  13.433  16.442  13.288  0.0517  0.2197  0.1121
27742W        W44589  12.080   7.446  13.069  0.0937 -0.2774  0.2840
27743W        W44590  14.984   2.658   3.203  0.1200  0.3071  0.0810
27744W        W44591   3.658   3.548   3.012  0.1616 -0.0512 -0.0975
27745W        W44592  16.675  14.497  12.737 -0.0188 -0.1680  0.0884
27746W        W44593   0.906   0.472  11.784  0.1570  0.1925  0.0138
27747W        W44594   0.082  10.248   4.765  0.0692 -0.1659  0.1252
27748W        W44595  15.027  16.798   4.708 -0.0172  0.3428 -0.0000
27749W        W44596   3.569  16.987  14.736 -0.0172 -0.0598  0.2393
27750W        W44597  12.291  18.852  12.394 -0.2409  0.0366  0.1006
27751W        W44598  14.659  11.064  15.542 -0.0990  0.1100 -0.1082
27752W        W44599  18.578   1.781   4.391  0.1353 -0.4789 -0.1888
27753W        W44600   2.428   9.662  11.480 -0.1141  0.0854  0.1237
27754W        W44601   4.696   6.531   0.323 -0.4588  0.0111 -0.0688
27755W        W44602  15.137   5.963   1.807 -0.3023 -0.3744 -0.1191
27756W        W44603  14.441  14.899  13.269 -0.0877  0.0212 -0.1592
27757W        W44604  15.538   5.984  11.700  0.3611  0.0002 -0.3951
27758W        W44605   8.181  15.655   5.706 -0.0740 -0.2720  0.4565
27759W        W44606  14.623   2.950   1.692 -0.0714 -0.1513  0.0044
27760W        W44607  11.703  13.353  11.152  0.1877 -0.2381 -0.0954
27761W        W44608   3.920   1.078  13.261 -0.0064  0.1145  0.0895
27762W        W44609  11.783   3.409   1.483  0.1739 -0.3053  0.0087
27763W        W44610  18.522   2.298   4.471 -0.0577  0.0419 -0.3179
27764W        W44611   1.106   9.273   0.975  0.0754  0.1869  0.0972
27765W        W44612  14.518  13.817  13.808  0.1365  0.3190 -0.2268
27766W        W44613  15.130  13.695  13.857 -0.1535  0.1639 -0.0399
27767W        W44614   8.985   6.613  11.097  0.2050  0.2521  0.2061
27768W        W44615  13.499  16.090   2.385  0.0879 -0.0573 -0.0585
27769W        W44616  16.003  14.673  11.415  0.5200 -0.0009 -0.1187
27770W        W44617  13.445   4.306   2.169 -0.0029 -0.2563 -0.1767
27771W        W44618  18.272   5.205  15.731 -0.2351 -0.2274  0.0503
27772W        W44619   1.953   5.824  10.466  0.0750  0.1814 -0.0961
27773W        W44620  17.571   5.087   4.694  0.3276  0.3216  0.0233
27774W        W44621   9.278  13.431  12.295  0.0186 -0.2299 -0.1989
27775W        W44622  12.063  13.476  15.615  0.0711 -0.0185 -0.2563
27776W        W44623  17.154   2.736   0.296  0.1643  0.1749 -0.3207
27777W        W44624   5.432  13.632   2.253 -0.2826  0.0391 -0.2716
27778W        W44625  16.329   9.436   6.242 -0.3416 -0.0563  0.1057
27779W        W44626  12.297  17.557  11.534 -0.0560 -0.0189 -0.2017
27780W        W44627   1.356  16.099  12.155  0.0986 -0.1579 -0.2320
27781W        W44628   0.640  14.582  11.370  0.0077  0.1604 -0.1858
27782W        W44629  14.689   3.629   5.744 -0.1967 -0.2040 -0.0825
27783W        W44630   0.552   7.399  14.572 -0.1803  0.2518 -0.0683
27784W        W44631   4.839   3.433   5.523  0.0127  0.2578  0.1975
27785W        W44632  17.377  18.430   1.964 -0.1682 -0.3411 -0.2815
27786W        W44633  14.328  15.416   5.343 -0.0918  0.1384  0.1094
27787W        W44634  15.351   2.605   1.237 -0.0531  0.2966 -0.1450
27788W        W44635   2.391  17.369   3.061  0.0229 -0.1242 -0.0202
27789W        W44636   7.184   1.641   2.403 -0.3474  0.2835  0.0758
27790W        W44637   1.837   8.965   1.221  0.2757  0.0367  0.5301
27791W        W44638   2.721  18.134   1.276 -0.1512 -0.0192  0.1266
27792W        W44639  10.682   3.525  11.106 -0.0310 -0.0833  0.0205
27793W        W44640   9.713  17.714   2.566 -0.3751  0.0165  0.2672
27794W        W44641  11.264   4.868   0.765 -0.2408  0.0436 -0.1773
27795W        W44642   7.423   4.491  14.537 -0.1090  0.1747 -0.0192
27796W        W44643   0.098  12.110   0.180  0.0523  0.2737 -0.0458
27797W        W44644  13.043   0.908   4.831 -0.1322  0.0332  0.1675
27798W        W44645  12.726   4.330   4.979 -0.1111 -0.1670 -0.1425
27799W        W44646  12.368   6.294  12.298  0.1591 -0.0478 -0.0506
27800W        W44647   5.646   1.703   3.849 -0.0745  0.2776 -0.3346
27801W        W44648   2.422   4.089   0.191 -0.0382 -0.0348  0.1062
27802W        W44649  15.530  17.889   3.806  0.3933  0.0000  0.0705
27803W        W44650   9.667   8.206   0.083  0.0634 -0.1652  0.0753
27804W        W44651  12.496   5.829  13.463  0.0795 -0.0368  0.2698
27805W        W44652  11.930  13.193   3.567  0.0647 -0.4516 -0.0466
27806W        W44653   5.284   0.214   0.716  0.2506  0.2954 -0.0924
27807W        W44654   7.692   4.378  11.352 -0.1452  0.0184 -0.0718
27808W        W44655  14.674   7.778  15.767  0.1899 -0.0591 -0.4641
27809W        W44656   7.890  16.355  11.740 -0.0945  0.2207  0.0169
27810W        W44657   2.197  12.153  14.630 -0.1130  0.1786 -0.2246
27811W        W44658   4.185   7.849   3.919 -0.0159 -0.4561  0.1256
27812W        W44659   6.452  10.415  15.681  0.2018  0.0988 -0.1244
27813W        W44660  16.094   0.781  13.348 -0.2009 -0.0712  0.0275
27814W        W44661   0.939  18.202   0.503  0.0703  0.0026  0.3491
27815W        W44662   2.115  10.554   0.553  0.0846 -0.0749  0.0368
27816W        W44663   0.000   5.856   5.540  0.2585 -0.0687  0.0137
27817W        W44664  13.907  10.934   1.963 -0.0725  0.0511 -0.3146
27818W        W44665   8.227   4.355   2.538  0.0240  0.3709 -0.1214
27819W        W44666  11.226   5.647   2.808  0.1235  0.1214 -0.0068
27820W        W44667   6.415  18.489  11.776 -0.0506  0.1149  0.5234
27821W        W44668  16.088   5.357   5.745 -0.0222  0.2658 -0.1924
27822W        W44669   6.353  16.693   4.731  0.0796 -0.0564 -0.0609
27823W        W44670  15.751  13.540   2.810  0.3368  0.0354  0.0186
27824W        W44671   4.882   3.923   1.470  0.2108 -0.0098  0.0841
27825W        W44672   4.944  18.128   2.490  0.0349  0.0882 -0.0268
27826W        W44673   7.517  13.360   2.742  0.0282 -0.1296 -0.1346
27827W        W44674  13.886   0.414  15.501 -0.2696 -0.3139  0.0728
27828W        W44675  11.089   4.398  11.994 -0.1644  0.0451  0.0090
27829W        W44676  14.520   8.463   3.755  0.2099 -0.3854 -0.1433
27830W        W44677   7.546  18.829  14.837 -0.0446 -0.0777 -0.1053
27831W        W44678  17.659  14.893   3.402 -0.1961 -0.1311  0.0332
27832W        W44679  10.908  16.046  11.904  0.0125  0.0650  0.2012
27833W        W44680   7.481   8.460  10.029 -0.1350  0.4245  0.2040
27834W        W44681   1.158  13.640   2.034  0.1867 -0.1044  0.0234
27835W        W44682   4.520  12.151   5.322  0.2670  0.1193  0.3605
27836W        W44683  11.596   3.697  14.672  0.0468 -0.2302  0.0191
27837W        W44684  13.263   7.165  13.798 -0.1304 -0.0265 -0.1903
27838W        W44685  14.160   0.146  15.206  0.0532  0.2485  0.2009
27839W        W44686   8.540  13.070  15.663 -0.0388 -0.0867  0.1900
27840W        W44687  10.321  11.386  11.162  0.2480  0.1323  0.3388
27841W        W44688  11.081   2.667  14.211  0.0039 -0.1225 -0.2373
27842W        W44689   8.942  13.301   1.902  0.3762  0.0299 -0.2928
27843W        W44690  11.981   0.498  14.438 -0.2000 -0.1682 -0.1361
27844W        W44691   7.646  14.036   3.883 -0.0032  0.0182 -0.2725
27845W        W44692  13.649  10.742   2.906  0.0338 -0.2614  0.4276
27846W        W44693   9.562  12.299   3.859 -0.2515  0.2444 -0.1182
27847W        W44694  13.640   4.055  12.895 -0.4571 -0.0653  0.3824
27848W        W44695  18.542   3.067   0.290  0.0802 -0.3403  0.0260
27849W        W44696   8.621  10.432  10.715 -0.2690  0.1348 -0.1779
27850W        W44697  10.955   7.917   2.377 -0.0540 -0.3614  0.0936
27851W        W44698  15.549  10.866   0.320  0.2711  0.1156  0.0321
27852W        W44699   8.745   8.007  13.361 -0.2214 -0.0118  0.0994
27853W        W44700  12.619  13.554   5.251 -0.0328 -0.0849 -0.0015
27854W        W44701   9.794   0.105  12.381  0.3646  0.0356 -0.1838
27855W        W44702   6.409   4.447  13.064  0.3237 -0.1304 -0.0090
27856W        W44703  15.437   3.095  14.777 -0.1373  0.1506 -0.3156
27857W        W44704   7.021   3.049  13.564 -0.2032 -0.3507  0.1728
27858W        W44705   7.349   4.159  12.994 -0.0750  0.1938 -0.0580
27859W        W44706   4.619   4.326   1.624  0.1508  0.1360 -0.1410
27860W        W44707  11.416  13.764  11.738 -0.3270  0.0091 -0.2117
27861W        W44708  10.228   1.426  14.558  0.0716  0.1195  0.0275
27862W        W44709  13.133  14.523   1.313  0.1424 -0.0398 -0.2022
27863W        W44710  12.216  13.004   2.043  0.1146  0.1380  0.1118
27864W        W44711   9.209  11.903   1.943 -0.0827 -0.0058 -0.1545
27865W        W44712  10.886  16.168  12.932 -0.1727  0.0111 -0.1781
27866W        W44713  10.510   1.051   1.501  0.0129 -0.1530 -0.1543
27867W        W44714  14.144   4.585  13.762 -0.0406 -0.0315 -0.0725
27868W        W44715  12.481  12.581  13.412  0.2450  0.2975 -0.0478
27869W        W44716   7.155  16.428   3.639 -0.3656 -0.0767 -0.4247
27870W        W44717  17.356   0.214  15.468  0.1874 -0.2979  0.2369
27871W        W44718   0.998   0.295  14.969 -0.1828 -0.2004  0.2903
27872W        W44719   6.915   3.831  14.906  0.1187 -0.2817 -0.1497
27873W        W44720  18.214  18.686   5.197 -0.0878 -0.0308  0.2073
27874W        W44721  17.910   3.066  14.159 -0.0602  0.1681 -0.0122
27875W        W44722  12.949   7.101   4.676 -0.0864  0.1256 -0.0289
27876W        W44723  18.177  10.180  11.251  0.1874  0.0398  0.1142
27877W        W44724   7.627   4.809   2.187  0.0704  0.1966 -0.1033
27878W        W44725  17.097  15.989   1.036 -0.2436  0.0830 -0.2492
27879W        W44726   4.043   1.065   0.313 -0.1184  0.1635  0.0097
27880W        W44727  16.312  15.007  14.364  0.2364 -0.1870 -0.0903
27881W        W44728   5.046   0.464   5.204 -0.2594 -0.1036  0.1039
27882W        W44729   2.763   9.963   0.102 -0.1833 -0.0875 -0.1426
27883W        W44730   5.060   1.301  14.590  0.0692  0.0492  0.0019
27884W        W44731  10.062   2.255  15.018 -0.3306 -0.0413 -0.0216
27885W        W44732   5.579   7.695   1.580 -0.1685 -0.1678 -0.0004
27886W        W44733  13.815   7.374   0.881  0.1994  0.2631 -0.0625
27887W        W44734  11.008  13.775   1.689  0.0718  0.1466  0.0312
27888W        W44735  12.554  12.310   0.829 -0.0536  0.0926 -0.1936
27889W        W44736  14.786  15.826  12.497 -0.1147 -0.1238  0.0370
27890W        W44737  14.987   3.603  12.525  0.1029  0.0011  0.2726
27891W        W44738   9.810  16.045  14.966 -0.2319 -0.1910  0.1209
27892W        W44739  11.210   4.351   1.778 -0.3655  0.3295  0.0989
27893W        W44740  14.549  12.342   1.421  0.0266  0.0297 -0.1287
27894W        W44741  16.309   5.087   4.702 -0.1060  0.2885  0.1054
27895W        W44742  18.474   2.459   1.565  0.3442 -0.0084 -0.1699
27896W        W44743  12.083   5.536  13.876  0.1172  0.1552  0.1923
27897W        W44744   1.099   3.708   2.499 -0.0960  0.0254 -0.0089
27898W        W44745  17.229  17.392  12.630 -0.0068 -0.1554 -0.1199
27899W        W44746   4.451   1.362  12.593 -0.1716  0.2034  0.2219
27900W        W44747   9.637  14.296  11.490 -0.1163 -0.1911  0.0421
27901W        W44748   6.605  12.438  12.088  0.0431 -0.0530 -0.0171
27902W        W44749  12.051   2.613  14.540  0.0240  0.3662  0.2937
27903W        W44750  18.692   0.270  11.753 -0.3967 -0.0594 -0.1539
27904W        W44751   1.271  12.046  15.565  0.0044  0.1255  0.1090
27905W        W44752   9.343   1.596   2.234 -0.1067 -0.3159 -0.0945
27906W        W44753   3.194  13.642  11.996  0.3570  0.4247 -0.1121
27907W        W44754  11.710   5.130  12.701  0.3147 -0.0035 -0.0719
27908W        W44755   7.937  12.335  13.300  0.1019  0.2209 -0.1544
27909W        W44756  18.839  18.731   1.197 -0.4411  0.1950  0.0351
27910W        W44757  13.711   0.627   1.597  0.0453  0.2593 -0.0985
27911W        W44758   6.528   6.394   4.415  0.2062 -0.0787  0.2799
27912W        W44759   1.873   3.861  12.012 -0.3933 -0.3435 -0.2179
27913W        W44760   4.538   0.099  11.476  0.1591 -0.0949  0.2881
27914W        W44761  11.276  18.079   2.074  0.1189 -0.3241  0.0552
27915W        W44762  14.176  10.134  11.279 -0.0698  0.0090 -0.0784
27916W        W44763   0.894   3.671  12.827  0.0732  0.1305 -0.0914
27917W        W44764  17.019   8.191   1.882 -0.0165 -0.2825 -0.3573
27918W        W44765  13.361   0.241   2.133  0.0218  0.1182  0.0111
27919W        W44766  17.649   2.742  14.475 -0.0880  0.3295 -0.1115
27920W        W44767   2.813  13.244  13.982 -0.2506  0.0596 -0.1715
27921W        W44768   2.630   4.910   1.864  0.0388 -0.2288  0.4084
27922W        W44769   4.271   4.574   1.397 -0.1391 -0.0137 -0.0614
27923W        W44770   4.461   0.296   1.186  0.1291 -0.0716 -0.0827
27924W        W44771   6.923   5.531   2.962 -0.0530  0.0406 -0.0681
27925W        W44772   0.382  18.424   3.793 -0.0020  0.1034 -0.1879
27926W        W44773  16.994  15.718   0.519 -0.0020  0.1032 -0.0024
27927W        W44774  10.877   1.834  12.765 -0.0503  0.0230  0.2306
27928W        W44775  12.219  16.605  14.188  0.0226  0.2647 -0.0090
27929W        W44776   1.306   4.749  13.389  0.3461 -0.2145 -0.3263
27930W        W44777  12.650  14.356  11.199 -0.0887  0.1263 -0.2953
27931W        W44778  15.315   2.266   2.039  0.1433  0.2513 -0.1846
27932W        W44779  17.351  14.363   2.368  0.1514  0.2532  0.0839
27933W        W44780  10.218   0.915   3.403  0.2609  0.0504 -0.0977
27934W        W44781   1.834   4.980   1.538  0.2143 -0.3275  0.0562
27935W        W44782   3.380  12.515   2.255  0.1134 -0.0622  0.2370
27936W        W44783   6.529   3.183   5.414 -0.2957 -0.4382  0.0131
27937W        W44784  13.537  16.535   2.600 -0.0684 -0.1985  0.1487
27938W        W44785  18.818   9.695  12.307 -0.2619  0.3656  0.0637
27939W        W44786   6.722   4.813  13.178  0.1193  0.0435 -0.3351
27940W        W44787  12.010   3.152   0.138 -0.3769  0.1081  0.0057
27941W        W44788   3.225   4.468   0.358  0.0761 -0.2063 -0.2611
27942W        W44789   6.466  17.088   2.713 -0.1029  0.2588 -0.1352
27943W        W44790  14.854   0.804  11.425 -0.2823 -0.1519 -0.1639
27944W        W44791  11.366  15.713  15.444 -0.0883 -0.0074 -0.1628
27945W        W44792   6.397   7.334  11.811  0.0027  0.1896 -0.1354
27946W        W44793   8.101   3.205   3.166  0.2352 -0.1040 -0.3146
27947W        W44794  15.982  14.069  15.301 -0.3895  0.2527  0.3904
27948W        W44795   7.602   4.784  11.702  0.3011  0.2479 -0.2346
27949W        W44796  14.398  11.864   4.558  0.1633  0.0906 -0.1445
27950W        W44797   9.685   8.914   1.355  0.2029 -0.2976  0.1204
27951W        W44798  15.081   3.173  12.155  0.2292  0.2394  0.3161
27952W        W44799   7.378   2.668  12.397  0.2958 -0.2514 -0.1999
27953W        W44800  17.624   3.459  13.354 -0.0626  0.0748 -0.1223
27954W        W44801   6.535   5.176   1.618  0.0817 -0.2901  0.0369
27955W        W44802  12.342  15.620  12.740  0.1249 -0.0158  0.1991
27956W        W44803   2.747   8.309   5.065  0.2458 -0.0447 -0.1142
27957W        W44804   4.350   8.038   4.794  0.0226  0.1253  0.1858
27958W        W44805  11.622   6.027  14.912  0.0590  0.3694 -0.2146
27959W        W44806   1.568   3.482   4.408 -0.1374 -0.1882  0.1190
27960W        W44807   2.734   1.631  14.650 -0.0691  0.0215 -0.0854
27961W        W44808   7.042   7.794   5.206  0.0203  0.2118 -0.1967
27962W        W44809   6.883   3.429   3.227 -0.0057  0.1647 -0.0827
27963W        W44810   4.764  13.285   1.655 -0.5555 -0.0494  0.1826
27964W        W44811  18.116   5.303   5.826  0.0542  0.3774  0.1511
27965W        W44812  17.668  16.208   2.719 -0.0692  0.2257  0.1769
27966W        W44813   7.482  14.052   0.065 -0.1004 -0.0138  0.5116
27967W        W44814  11.280  15.020   0.689  0.0567 -0.0360 -0.1552
27968W        W44815  15.901   9.155  14.890 -0.0727 -0.3093 -0.0212
27969W        W44816  12.589  11.362   4.596  0.4995  0.0258  0.3210
27970W        W44817   5.580  10.516  15.372 -0.2502 -0.0179  0.2527
27971W        W44818   3.580   7.204   3.842 -0.1480 -0.0020 -0.1778
27972W        W44819   8.867  16.645   1.004  0.3346 -0.0114 -0.0933
27973W        W44820  11.115  16.789  15.551  0.1709 -0.2313 -0.0071
27974W        W44821   7.008   9.245   4.301  0.1134  0.1541 -0.0840
27975W        W44822   8.734   8.903  12.366 -0.1148 -0.0338  0.2046
27976W        W44823  17.686   6.901  14.405 -0.1793  0.1005 -0.0034
27977W        W44824  12.426   1.905   0.834  0.0403  0.1741  0.0383
27978W        W44825   2.150   6.313   4.189 -0.0770  0.2649 -0.1343
27979W        W44826  13.451   6.587  13.247 -0.0244 -0.0074 -0.0178
27980W        W44827   6.656  16.326  11.840  0.1564  0.0702  0.0837
27981W        W44828  12.139   2.187  13.492 -0.1449  0.1335  0.0849
27982W        W44829  12.354  10.677   3.569  0.1234  0.4878 -0.0137
27983W        W44830   3.925   5.224   0.548  0.1717 -0.0056  0.3038
27984W        W44831   9.911  16.909  14.933  0.1419  0.2254  0.0067
27985W        W44832   3.509   0.668   1.248  0.0023 -0.5526  0.1177
27986W        W44833  17.459   8.224   5.525  0.1637 -0.0942 -0.1732
27987W        W44834   8.038  17.132   2.264 -0.0252  0.0122  0.1304
27988W        W44835   4.185   1.572   2.847  0.2189  0.3095 -0.0796
27989W        W44836   0.606  14.479   5.050  0.1411 -0.2588  0.0649
27990W        W44837  18.655  12.129   2.348 -0.0750 -0.1615 -0.4167
27991W        W44838   5.849  12.707  11.459  0.1000  0.2353  0.0176
27992W        W44839   4.469   3.647  13.413  0.2498 -0.0233 -0.0218
27993W        W44840  14.180  14.739  14.065  0.2933 -0.0062 -0.1405
27994W        W44841   5.306   4.333   5.340  0.1548  0.0750 -0.3702
27995W        W44842  17.487   4.128  11.987  0.0303  0.1791 -0.2107
27996W        W44843   1.311   0.206  14.143  0.3891 -0.3221  0.1187
27997W        W44844   6.043  14.512   0.815 -0.3559  0.3975 -0.2971
27998W        W44845   5.114   5.071  14.407  0.5363 -0.1389 -0.3532
27999W        W44846   4.131  15.240   0.974  0.0755 -0.1970  0.2597
28000W        W44847  17.650   3.013   0.258 -0.0116 -0.0375  0.0221
28001W        W44848   7.432  18.144   1.885 -0.0515  0.0426  0.2169
28002W        W44849  17.493   2.660  12.863 -0.2723  0.0251 -0.3074
28003W        W44850  10.479   9.512  15.420  0.2428 -0.1995  0.1052
28004W        W44851   9.225   1.149   0.743 -0.0855  0.2627 -0.0418
28005W        W44852   8.575  16.103  12.184 -0.1916  0.1070 -0.4939
28006W        W44853   2.157  10.356  15.350  0.1357 -0.1901 -0.2094
28007W        W44854   5.561   5.938  11.321  0.3220  0.0551 -0.1154
28008W        W44855   7.036  12.790  12.987 -0.2737 -0.0491  0.0698
28009W        W44856   0.796   8.937   1.216 -0.0525  0.0949  0.2678
28010W        W44857  13.765   2.808   1.207  0.3383  0.2279  0.2409
28011W        W44858   0.487  10.514   0.272  0.2092 -0.2839  0.1848
28012W        W44859  11.446  12.214   4.519  0.0023 -0.1400 -0.0214
28013W        W44860   1.192  18.139  13.818 -0.4487 -0.1455 -0.0577
28014W        W44861   5.266   5.317  11.423  0.0711  0.0815 -0.0594
28015W        W44862  17.059  13.015   2.843 -0.1254  0.1881  0.0591
28016W        W44863  11.516  17.350   0.850 -0.2755  0.3005  0.0037
28017W        W44864  10.373   0.862  11.275  0.1539 -0.3000 -0.0434
28018W        W44865  11.351  13.082   2.296 -0.0523 -0.4595 -0.2775
28019W        W44866  16.402  16.817   2.125  0.1611 -0.0657  0.1333
28020W        W44867  17.466   7.434   5.108  0.0128 -0.2466  0.3180
28021W        W44868  10.519  14.179   3.538  0.2193 -0.0516 -0.0809
28022W        W44869   5.762   4.072   3.142 -0.1780  0.1124  0.1053
28023W        W44870   5.181  13.401  13.950 -0.0150 -0.0046  0.2695
28024W        W44871   9.585  11.300  11.777  0.4136  0.1749  0.2723
28025W        W44872  16.626  15.351   1.800  0.1397 -0.2084  0.1822
28026W        W44873  11.718  17.569   3.660  0.3196  0.3060  0.1152
28027W        W44874   4.388  12.926  12.807 -0.0399  0.0220 -0.0504
28028W        W44875  14.113   6.260   1.217 -0.5010 -0.2176 -0.1597
28029W        W44876   2.411   3.265   1.324  0.3647 -0.3546 -0.1501
28030W        W44877  11.570  14.004   2.597  0.2593 -0.1625 -0.0787
28031W        W44878   3.418   2.843   1.405  0.0011  0.0583 -0.0048
28032W        W44879  11.627   9.664   3.628  0.4533 -0.0799 -0.0410
28033W        W44880   9.206   7.926   4.712  0.1019 -0.0138 -0.3478
28034W        W44881  12.055   2.674  13.226 -0.4783 -0.0340  0.1682
28035W        W44882   4.003   1.957   1.582 -0.0168  0.1272  0.2664
28036W        W44883   1.721  14.418  12.610  0.1283 -0.1967 -0.3344
28037W        W44884   9.666   7.754  14.344  0.1057  0.3465  0.3623
28038W        W44885   9.720   9.008  13.058  0.0956  0.1118  0.1049
28039W        W44886   9.157   6.953   2.889 -0.0584  0.0849 -0.2028
28040W        W44887   1.492  17.560   2.832  0.1583  0.1712 -0.3464
28041W        W44888   3.359   1.061   1.497 -0.3268 -0.1219 -0.2309
28042W        W44889   7.756   3.470   2.440 -0.3416  0.1511 -0.0086
28043W        W44890   9.202  16.680  12.550 -0.2723 -0.1083  0.0081
28044W        W44891  17.292  11.217  13.006  0.1435 -0.1737 -0.1223
28045W        W44892   0.925  14.887   1.132 -0.0859 -0.2623 -0.3716
28046W        W44893  18.160  12.894   2.401 -0.1672 -0.4303 -0.1323
28047W        W44894   6.266   4.686  12.309  0.1164 -0.0218 -0.0623
28048W        W44895  14.594   1.518   1.000 -0.1234  0.3482  0.4803
28049W        W44896  16.408  10.710  14.999  0.3210 -0.1451  0.0565
28050W        W44897   3.593  18.216  13.773  0.3620  0.0670  0.0137
28051W        W44898  10.612  17.879   2.688  0.0364 -0.0871 -0.1807
28052W        W44899  13.015   6.106   2.950  0.0966  0.0084  0.3002
28053W        W44900  12.186   2.320   0.523 -0.0607 -0.0846  0.1937
28054W        W44901   6.724  17.927  12.434  0.0972 -0.1345  0.2619
28055W        W44902  12.540   1.904  12.744 -0.3564 -0.0876 -0.0149
28056W        W44903  15.683   8.389   3.994  0.3169 -0.1094 -0.0911
28057W        W44904  11.111  13.718  12.742  0.1002  0.0150 -0.1064
28058W        W44905   5.655   5.539  13.145 -0.1244  0.2320  0.2338
28059W        W44906   7.843  18.537   3.293 -0.2254 -0.0604 -0.1723
28060W        W44907  12.957  10.521   1.615  0.3302  0.1193  0.0748
28061W        W44908  14.943   3.608  11.080  0.1345  0.1520 -0.0093
28062W        W44909  10.755  10.436  13.558 -0.0112 -0.1219 -0.3134
28063W        W44910   2.832   8.652  13.602  0.2333  0.0330  0.0340
28064W        W44911   5.841  15.544  13.267 -0.3667  0.2453 -0.1666
28065W        W44912   4.501  15.828   1.744 -0.4613  0.1514  0.0990
28066W        W44913  15.376   4.649   1.132 -0.1958  0.0543 -0.0493
28067W        W44914   6.986  14.711   4.066  0.2589 -0.1455  0.2800
28068W        W44915  13.966  17.300   1.998  0.2990  0.0407 -0.0795
28069W        W44916   1.280  13.329   3.714  0.4973  0.1300  0.3548
28070W        W44917   8.916   3.096   5.724 -0.1336 -0.0789  0.1812
28071W        W44918  17.146  18.573   3.667  0.4223  0.1080 -0.0392
28072W        W44919   8.931   4.764  13.433 -0.0592  0.2645  0.0095
28073W        W44920  12.663   0.683  13.687  0.1069  0.1658  0.1626
28074W        W44921   5.707   9.762  15.568 -0.0982  0.3194  0.0072
28075W        W44922   7.239   6.577   1.697 -0.0902  0.0517  0.2876
28076W        W44923   8.658   7.053  11.006 -0.1596  0.0176 -0.3115
28077W        W44924  14.792  15.259  11.734  0.0980 -0.2252 -0.2707
28078W        W44925  13.067   8.439  10.871 -0.1324 -0.1582 -0.1514
28079W        W44926  16.617   1.120  13.761  0.1426 -0.0345  0.1562
28080W        W44927  12.776   8.185   1.614 -0.1920  0.1935  0.1392
28081W        W44928   1.703   4.578   2.927 -0.0452  0.3089 -0.0643
28082W        W44929  13.550   7.602  14.637 -0.0833 -0.0863 -0.0249
28083W        W44930   2.576   6.069  12.890 -0.0142  0.0113 -0.3005
28084W        W44931  11.925   5.318  14.449  0.0420  0.0377  0.1102
28085W        W44932   4.574   3.838   3.803 -0.1816  0.3933  0.1926
28086W        W44933  18.652  13.048   4.454  0.2266  0.1127  0.0869
28087W        W44934   6.072   7.351   3.070  0.0015 -0.1444  0.0546
28088W        W44935   9.366  11.354  12.307 -0.0755 -0.2665  0.0673
28089W        W44936  16.654   9.130   4.439 -0.0912  0.1815  0.2731
28090W        W44937  18.046  10.964   0.447  0.0915  0.1084 -0.0882
28091W        W44938  15.321   0.704   1.651  0.1823  0.0538  0.2978
28092W        W44939  15.301  11.157   3.171  0.2043 -0.1682 -0.0150
28093W        W44940  14.012  17.436  11.011  0.2313  0.1966 -0.0360
28094W        W44941   0.603   1.685   1.815 -0.0675  0.1512 -0.1283
28095W        W44942   0.610  17.265  12.461  0.2170 -0.3613 -0.1225
28096W        W44943  18.133   4.796  13.396 -0.0330  0.0047 -0.0378
28097W        W44944   2.375  14.525  13.386  0.3661  0.2606  0.2759
28098W        W44945   0.911  16.384   4.518 -0.0411 -0.0075  0.2394
28099W        W44946  17.377  11.210   0.169  0.2228  0.2703  0.4074
28100W        W44947   5.630  17.355   0.978  0.4394 -0.2064 -0.0378
28101W        W44948   0.985  15.933   2.538  0.4111  0.1116 -0.0154
28102W        W44949  12.762   1.005   1.089  0.1074 -0.1503  0.3325
28103W        W44950   9.984   8.503  11.665 -0.1665  0.2266 -0.2632
28104W        W44951  14.113  15.343   0.062  0.3507 -0.0336 -0.2217
28105W        W44952  10.235   7.898  12.451 -0.1711 -0.1048 -0.0865
28106W        W44953  17.213  15.599   1.448 -0.2199 -0.4563  0.1420
28107W        W44954  12.282   7.193   0.291  0.0333 -0.1396  0.0208
28108W        W44955  13.655   2.677   3.519  0.4955  0.1685  0.4272
28109W        W44956   9.323  12.219  12.846 -0.0714 -0.2263 -0.0200
28110W        W44957  12.895  17.644   4.826 -0.1878 -0.2200 -0.2621
28111W        W44958  15.196  18.623  12.616  0.4030  0.0552  0.2125
28112W        W44959   3.551  16.977  12.271  0.2095  0.0924 -0.0301
28113W        W44960   6.975  15.601  15.591 -0.0828 -0.0212 -0.1184
28114W        W44961   2.530   0.074  14.691 -0.1549 -0.1666  0.4645
28115W        W44962   4.138   4.703   0.781  0.3457 -0.0668 -0.2014
28116W        W44963   0.996  11.357  13.287  0.0914  0.2465 -0.2181
28117W        W44964   5.536   9.460   3.002 -0.0041 -0.1604  0.3272
28118W        W44965   0.270   6.941  15.518  0.0694  0.1158 -0.0564
28119W        W44966  14.832   3.972   5.327  0.5506 -0.0284  0.1589
28120W        W44967   9.137   5.499   0.419  0.0507 -0.1234  0.0644
28121W        W44968  13.237  12.921  11.063  0.0551 -0.2239 -0.0459
28122W        W44969   4.730   2.320  12.668 -0.3533 -0.1535 -0.1723
28123W        W44970  18.021   9.712  13.834  0.1942  0.2057  0.2425
28124W        W44971  16.822   9.655   3.581  0.4141  0.0241  0.1203
28125W        W44972  11.775   5.213  11.843  0.0431  0.2514 -0.2319
28126W        W44973  12.932  16.939  12.539 -0.0198 -0.4044  0.1647
28127W        W44974   6.158   7.977  12.639  0.2064  0.2339  0.0949
28128W        W44975  15.803  13.922   0.640 -0.1910  0.0441  0.0232
28129W        W44976   3.564  11.901   1.693 -0.0698 -0.2156  0.0359
28130W        W44977   8.937   6.918   5.143  0.2683 -0.0558  0.1813
28131W        W44978  18.202  13.867  12.810 -0.0026  0.0466 -0.4197
28132W        W44979   6.569  14.360   3.974  0.1367 -0.2636  0.0374
28133W        W44980   4.515   3.506   5.909  0.4074 -0.1387 -0.1470
28134W        W44981   2.958   9.222  15.491 -0.2819 -0.3493 -0.2103
28135W        W44982   9.260  10.386  12.916  0.0212 -0.0820 -0.1484
28136W        W44983  14.897   6.226   1.465  0.0862  0.2806  0.1097
28137W        W44984  12.407  13.962  11.497 -0.3406  0.0029  0.0146
28138W        W44985   3.136   0.480   2.126  0.2305 -0.1306 -0.2049
28139W        W44986   3.915   9.420  11.031  0.0632 -0.0516 -0.3195
28140W        W44987   8.614  17.460  12.173 -0.1266 -0.5816 -0.1991
28141W        W44988   5.361   1.920   3.532  0.0298 -0.4775 -0.1976
28142W        W44989  17.627  10.439   0.770 -0.3898 -0.1150  0.0012
28143W        W44990   2.076   6.575  12.424 -0.0982  0.0268  0.2755
28144W        W44991  10.438   4.457   3.657 -0.1420  0.2283  0.1260
28145W        W44992  15.749   8.998  11.387  0.0751  0.2577  0.3394
28146W        W44993  14.524   8.211  12.849 -0.0434  0.2362 -0.0964
28147W        W44994  10.755   0.086  11.759 -0.0748 -0.0082  0.2404
28148W        W44995  16.618  15.935   2.568  0.1802  0.1017 -0.1225
28149W        W44996   7.518   9.149   4.351 -0.0026 -0.1207  0.1103
28150W        W44997   2.790   1.014   4.287  0.1476  0.0382 -0.1735
28151W        W44998   0.194   2.751  11.916 -0.2730  0.1019  0.0183
28152W        W44999  10.756   5.998   3.131  0.1781  0.0161 -0.0405
28153W        W45000  12.970   1.568   4.227 -0.2353 -0.2164 -0.0822
28154W        W45001  16.165  14.911   0.441  0.2567 -0.2770 -0.2788
28155W        W45002  12.717   1.786   5.014  0.1283 -0.1447  0.1401
28156W        W45003   4.026  17.194  14.632 -0.3475 -0.1075 -0.2457
28157W        W45004   4.596   3.686   1.180  0.4002  0.0530 -0.0423
28158W        W45005   5.171   5.314   4.222  0.2114  0.0584  0.0893
28159W        W45006   6.330   6.910  11.166  0.0280  0.0172 -0.1842
28160W        W45007   1.262  17.352   4.484 -0.3811  0.1734  0.2073
28161W        W45008   0.924   3.371   5.914 -0.2957 -0.1708 -0.0057
28162W        W45009   4.295   9.931  10.992  0.1756  0.1746 -0.2443
28163W        W45010  11.715   4.829   2.753 -0.1750 -0.1580 -0.3766
28164W        W45011  18.211   3.899  12.747  0.0567  0.1344 -0.3110
28165W        W45012   7.738   2.154  14.133 -0.0995 -0.0971 -0.0711
28166W        W45013  18.664  18.678  15.047  0.0432  0.0648 -0.0825
28167W        W45014  13.442   3.811  12.495 -0.1420 -0.1854  0.1882
28168W        W45015   0.952   5.245  11.626  0.1260 -0.0513  0.0913
28169W        W45016   7.488   8.297  14.248  0.2990  0.1529 -0.1123
28170W        W45017  10.415   6.210   2.853  0.0308 -0.0349  0.1323
28171W        W45018   1.700   0.643  11.324 -0.0088  0.0169 -0.0495
28172W        W45019   4.961   5.124  15.692 -0.1181  0.2280 -0.0995
28173W        W45020  16.144  15.751   1.004 -0.1820 -0.1369 -0.3043
28174W        W45021   1.929  13.572   3.338 -0.1458 -0.0132  0.3916
28175W        W45022   5.888  13.414   5.061 -0.2134 -0.0063  0.0315
28176W        W45023   3.342   7.034  14.336  0.0672  0.1977  0.0932
28177W        W45024  11.741  11.828  12.874  0.4197 -0.0410 -0.0971
28178W        W45025  12.861   7.243   2.654  0.0018  0.1998 -0.2221
28179W        W45026  12.676   7.380   4.340  0.0092  0.0873 -0.2349
28180W        W45027  13.122  12.708  14.978 -0.0480 -0.0023  0.2222
28181W        W45028  17.650  11.252  14.999  0.2117 -0.1228  0.1847
28182W        W45029  10.265   3.373   2.406  0.1101 -0.0767  0.0413
28183W        W45030  10.949  15.326   1.848 -0.2461  0.0205  0.0523
28184W        W45031   6.075   4.656  13.524  0.0639 -0.2876  0.0117
28185W        W45032  17.764   9.827   4.301  0.1220  0.0968  0.1241
28186W        W45033   3.045  10.821   4.576  0.0252  0.2034  0.2073
28187W        W45034   8.519  13.536   4.628  0.0237 -0.0900  0.3016
28188W        W45035   4.241   7.241  14.020 -0.3035  0.0003 -0.1780
28189W        W45036   5.071  13.423   0.348 -0.0412  0.1524 -0.1587
28190W        W45037   0.954  18.761  15.525  0.0561  0.1361 -0.3564
28191W        W45038  16.642   2.460   5.560 -0.2333  0.1658  0.1811
28192W        W45039   4.094   4.612  11.568  0.5286 -0.2596 -0.3962
28193W        W45040   2.022  11.880   2.640 -0.0331 -0.0663 -0.1556
28194W        W45041   1.865   0.257  12.971  0.6592  0.1745 -0.1987
28195W        W45042   0.679   5.464  15.490 -0.2602 -0.0674 -0.1067
28196W        W45043  17.207   4.957  14.146 -0.1964 -0.0411 -0.0077
28197W        W45044  18.848   1.142  14.997 -0.1480  0.1934  0.3880
28198W        W45045  11.545  11.902  10.745 -0.3363 -0.0425  0.3862
28199W        W45046  13.313   9.746  11.243 -0.0615  0.0646 -0.0381
28200W        W45047  11.770   9.602   4.808 -0.3530  0.0059 -0.4122
28201W        W45048   4.427   4.149  11.233  0.5004 -0.0497  0.5923
28202W        W45049   2.000  14.517   4.483 -0.0483 -0.0435  0.1231
28203W        W45050   0.583   0.073   3.851 -0.1522  0.0749 -0.1722
28204W        W45051   0.601   3.971   0.786 -0.2180  0.0022  0.1661
28205W        W45052   6.438   5.883   0.255 -0.1222 -0.2132  0.4010
28206W        W45053   7.399   2.140   1.558  0.2489 -0.2813  0.0264
28207W        W45054  13.306  16.151   4.755 -0.0658 -0.0384 -0.2685
28208W        W45055   5.269   3.175  14.615 -0.0901  0.1720 -0.1135
28209W        W45056   7.625  12.513   4.515 -0.1567  0.1058  0.1526
28210W        W45057   6.450   7.071  12.288 -0.1440  0.3496 -0.3340
28211W        W45058   8.115   7.068  15.327  0.0879 -0.0897 -0.0037
28212W        W45059   2.282  10.041   1.281 -0.1240  0.0308  0.0798
28213W        W45060  11.597   5.719  13.819  0.2688  0.2809 -0.0402
28214W        W45061  11.839   3.443  10.598  0.1187 -0.3841  0.2776
28215W        W45062  10.984  18.094   5.452  0.0879  0.1677  0.2566
28216W        W45063   5.049   0.874  14.924  0.4503  0.1586  0.1194
28217W        W45064  17.244  18.714   5.296  0.4289 -0.0691 -0.1637
28218W        W45065   6.549  10.673  11.525 -0.0927 -0.1182  0.1073
28219W        W45066  14.363   7.166   1.470 -0.0380 -0.0704 -0.2195
28220W        W45067  14.207  12.285   3.923  0.0024  0.1158  0.0563
28221W        W45068   4.702  16.849  13.460  0.2070  0.1854  0.0776
28222W        W45069  18.277  16.183  11.708 -0.0756  0.1855 -0.1581
28223W        W45070  11.916   6.124  12.696  0.2962 -0.0944 -0.0241
28224W        W45071   5.778  17.794  15.368  0.0145  0.0606  0.0965
28225W        W45072   2.197  14.350   4.930 -0.1493 -0.0177  0.1592
28226W        W45073   6.992   3.915  11.711  0.0190 -0.3297 -0.1761
28227W        W45074   3.138   2.742  12.943  0.1776  0.2933 -0.0643
28228W        W45075   1.345  14.023  12.737 -0.1752  0.2396 -0.0322
28229W        W45076  11.339   6.734   2.948 -0.3362  0.2767  0.1260
28230W        W45077  10.588  16.431  14.421  0.3196 -0.2227  0.0555
28231W        W45078  12.685   1.623   3.500 -0.0996  0.1931  0.3409
28232W        W45079   3.417   9.644   2.228  0.2196 -0.0261  0.1452
28233W        W45080  15.917   9.069  13.053 -0.2647  0.2970 -0.3139
28234W        W45081   7.904  16.970  10.187 -0.1229  0.2755  0.2827
28235W        W45082   4.669  18.348   1.588 -0.0482 -0.1115  0.1881
28236W        W45083  16.608   9.291   4.900  0.0633  0.1066 -0.0440
28237W        W45084   1.566  18.365  11.896  0.0069  0.3786 -0.1455
28238W        W45085  13.751   6.348   4.195  0.0705 -0.1888 -0.2224
28239W        W45086   7.930   4.692   2.983 -0.0753  0.0114 -0.1255
28240W        W45087  11.447  16.929   2.969  0.1927 -0.1545 -0.0869
28241W        W45088   6.428  14.054   3.328  0.0124 -0.3687 -0.2442
28242W        W45089   2.428   8.170   3.401 -0.2562  0.0676 -0.2394
28243W        W45090   3.189   7.097   4.124 -0.1123  0.1971  0.0463
28244W        W45091   1.257  13.787   2.694 -0.0745 -0.2345  0.1160
28245W        W45092  15.251  10.220  13.067  0.0233  0.4098 -0.0701
28246W        W45093   9.773   8.734   2.461  0.3220 -0.1420  0.1145
28247W        W45094   4.064  11.707   2.878  0.4999 -0.0080  0.0442
28248W        W45095   3.883   3.380  15.285 -0.2018  0.1463  0.5105
28249W        W45096   1.579  15.477   3.786  0.0873  0.2093  0.2292
28250W        W45097   6.866  14.374   5.478  0.1873 -0.4158  0.0267
28251W        W45098  12.587  11.951   1.201 -0.0254 -0.1133  0.0175
28252W        W45099   2.411  15.078   9.966 -0.1802  0.0654 -0.0051
28253W        W45100   2.622  15.060   0.690 -0.1569 -0.3253 -0.3390
28254W        W45101  13.686  11.076   0.722  0.3186  0.2063  0.3430
28255W        W45102  17.671   9.910  14.118  0.0615  0.0429  0.0660
28256W        W45103   6.512   4.027  14.465 -0.2113 -0.1236 -0.0115
28257W        W45104   3.416   0.047  10.631  0.2933  0.2637  0.0152
28258W        W45105  16.794   3.793   2.880 -0.1427 -0.0462  0.0250
28259W        W45106  15.016   9.162   4.885  0.2721  0.1935  0.3303
28260W        W45107  17.735  11.671  12.030 -0.0855 -0.4864 -0.1698
28261W        W45108  12.095  12.217   2.529 -0.1512  0.0380 -0.0422
28262W        W45109   3.072   3.007  11.822  0.3827 -0.3656 -0.0975
28263W        W45110   0.201   8.879  11.315  0.0681 -0.0671 -0.1303
28264W        W45111   4.560   0.151  12.486 -0.3635 -0.2786  0.1405
28265W        W45112  18.010   7.452   0.265 -0.0571 -0.0393  0.0761
28266W        W45113   5.924   9.040  14.354 -0.0611  0.2305  0.0758
28267W        W45114  11.171   6.923  13.060 -0.1243 -0.3373 -0.0656
28268W        W45115  18.064   5.934   1.050 -0.0110  0.0131 -0.2731
28269W        W45116   7.121  12.208   4.444  0.0167 -0.0573  0.2177
28270W        W45117  12.620  14.047  13.002  0.0578  0.1464  0.0838
28271W        W45118   0.597  11.906  13.826  0.3249  0.1408 -0.1806
28272W        W45119  17.620  10.620   4.745  0.1351  0.0880 -0.0777
28273W        W45120   6.654   9.608   1.384  0.2505 -0.0169  0.0130
28274W        W45121   5.699   0.672  10.620 -0.1573 -0.0774 -0.2445
28275W        W45122   7.118   9.216   1.061  0.0561  0.1782 -0.2418
28276W        W45123  16.229   9.730   5.291  0.0180  0.0454 -0.0918
28277W        W45124  15.831  15.465  15.507 -0.3574  0.1718 -0.2987
28278W        W45125   9.144  17.330   9.953 -0.0570  0.0792 -0.0872
28279W        W45126  11.975  13.332   4.596 -0.0789  0.0994  0.0644
28280W        W45127  10.437  11.434   2.589 -0.0223  0.2989  0.3845
28281W        W45128   3.492  17.584  14.383  0.0978  0.1017 -0.1973
28282W        W45129  12.719   9.133   3.582  0.0616 -0.0616  0.0233
28283W        W45130  10.037  10.030   5.060  0.0817 -0.0624  0.2704
28284W        W45131   1.579   5.248   2.597 -0.0751  0.0572 -0.2735
28285W        W45132   6.293   1.345   2.856  0.1120  0.1275  0.0707
28286W        W45133  13.912   3.759   3.026  0.1177 -0.1589 -0.2679
28287W        W45134  15.133  16.759   3.642  0.0195 -0.0325  0.0501
28288W        W45135   3.718  16.111  12.730  0.0862 -0.1714 -0.0529
28289W        W45136  15.972  15.961   1.960  0.1695  0.2237  0.0389
28290W        W45137   3.692  11.688  10.869  0.1150 -0.4446 -0.0448
28291W        W45138   7.472   2.677   3.349  0.2937 -0.3302 -0.1840
28292W        W45139   3.666  17.443  14.923 -0.2746  0.1596 -0.0972
28293W        W45140   7.110  15.840   0.211 -0.1823  0.0325 -0.0070
28294W        W45141  10.289   9.188  12.901  0.0569 -0.2313  0.0261
28295W        W45142   1.686   3.964   5.276 -0.0392  0.1891  0.1218
28296W        W45143  11.803  15.062   4.265 -0.0721  0.2438 -0.0644
28297W        W45144   3.404   6.292  14.112 -0.0615  0.6510  0.0082
28298W        W45145   8.232   6.478   1.807  0.0968 -0.1583 -0.1221
28299W        W45146  18.277  14.224   1.688 -0.0562 -0.0015 -0.1538
28300W        W45147   4.068   1.488  11.760 -0.1694  0.0934 -0.3087
28301W        W45148  17.946  16.086   4.850 -0.2953 -0.0721  0.2417
28302W        W45149   0.564   6.960   4.193 -0.1535 -0.1870 -0.2592
28303W        W45150  10.028  10.770  12.588  0.0923  0.1363 -0.1027
28304W        W45151   9.621   6.063  14.080  0.2245 -0.1926 -0.0115
28305W        W45152  10.966  13.796   0.363 -0.0117  0.2731 -0.3812
28306W        W45153   4.095   7.622  11.260  0.1068  0.3356 -0.1113
28307W        W45154  17.224   7.123  14.225  0.0803  0.0197 -0.2371
28308W        W45155   4.763  17.741  10.999  0.1305  0.0541  0.0945
28309W        W45156  16.954   5.828  11.702 -0.1262 -0.2394 -0.1162
28310W        W45157  16.440  10.389  14.589 -0.0362 -0.1887  0.0410
28311W        W45158   2.669  11.542   0.557  0.0154  0.0697 -0.0911
28312W        W45159   2.730   7.895  15.533  0.0103 -0.0670  0.0366
28313W        W45160   2.685  11.472   3.404 -0.4130 -0.0989 -0.0365
28314W        W45161   7.254  15.178   1.472 -0.0489  0.3047 -0.0283
28315W        W45162   8.725  18.770  11.546 -0.2164  0.0746  0.0816
28316W        W45163   7.914  15.078   0.833 -0.0011 -0.2339  0.1919
28317W        W45164  14.286   9.742  13.794  0.1664  0.0085  0.2187
28318W        W45165  14.621  16.379   4.950  0.0921  0.1638 -0.2918
28319W        W45166   4.298   3.844  15.615 -0.0285 -0.1035  0.0584
28320W        W45167  10.589  10.121   3.727  0.0366 -0.1178 -0.2969
28321W        W45168   2.281   1.626  11.374 -0.1015  0.0891  0.0738
28322W        W45169  16.757  13.834  14.768  0.1614  0.0210 -0.2171
28323W        W45170  17.172  15.487  11.859  0.4153  0.3904 -0.5251
28324W        W45171   9.027  14.937  13.521 -0.3352 -0.0074 -0.0011
28325W        W45172   0.195  15.425  10.975  0.1307 -0.0254 -0.2843
28326W        W45173   3.651   1.547   1.548  0.0416 -0.0808 -0.2634
28327W        W45174   2.628  16.280   5.673 -0.1094  0.1383 -0.1811
28328W        W45175   7.689   1.097  13.753 -0.0440  0.1171 -0.0698
28329W        W45176   2.202   4.610  12.054 -0.2399  0.1513 -0.3805
28330W        W45177  16.138  13.850   2.823 -0.1052  0.1184  0.1306
28331W        W45178   5.350  13.098  13.058  0.0083  0.2495 -0.0682
28332W        W45179   6.673   6.795   1.352  0.1351  0.0402 -0.0381
28333W        W45180   9.052  11.194  10.978  0.0235  0.2456  0.1327
28334W        W45181  16.794  14.390  13.596  0.0703 -0.0280  0.0680
28335W        W45182   5.139   2.018  15.334 -0.1732 -0.0457 -0.3539
28336W        W45183   0.612   5.407   2.338  0.1851  0.0119 -0.0681
28337W        W45184  18.673   8.363   2.733  0.2118  0.2104 -0.1238
28338W        W45185   6.100   5.918   2.556  0.4708  0.2117 -0.3258
28339W        W45186  15.742  17.767   3.137  0.0222  0.1964 -0.0524
28340W        W45187  13.755   8.479   1.919 -0.0714  0.0238  0.1423
28341W        W45188   3.960   9.750  10.083 -0.5097 -0.3038  0.3914
28342W        W45189  12.976   9.843   2.012  0.0776 -0.3814 -0.0995
28343W        W45190   6.543   8.562   0.133 -0.2698 -0.0492 -0.0860
28344W        W45191  13.607   3.812   3.799  0.1735 -0.1456  0.0266
28345W        W45192   3.403  17.064  11.337  0.0086 -0.3028 -0.4162
28346W        W45193  11.238  16.237   4.900 -0.1104 -0.0438  0.0334
28347W        W45194   9.989   3.309   2.892 -0.2196 -0.0131  0.2435
28348W        W45195  12.121  13.447   1.381 -0.3136 -0.1153 -0.3423
28349W        W45196   1.883   0.479  14.526  0.1014  0.1694  0.0052
28350W        W45197  17.508  13.739   2.979 -0.1465 -0.0480 -0.1943
28351W        W45198   6.159  11.931   4.295 -0.1604  0.2449  0.0199
28352W        W45199  14.544  12.264   0.448 -0.1001  0.0817  0.0163
28353W        W45200   8.503  16.270   0.366  0.1210  0.3839 -0.0496
28354W        W45201  15.710   0.541  10.287  0.2630  0.2566 -0.1249
28355W        W45202   0.502  12.993  15.695  0.1505 -0.2041  0.1013
28356W        W45203  17.811  18.237   4.286 -0.1761  0.1001 -0.2757
28357W        W45204  11.747  12.497   4.899 -0.2650 -0.2659  0.2485
28358W        W45205  11.899  14.314  13.677  0.1905  0.2994  0.1557
28359W        W45206  17.404   5.508   4.649  0.1117 -0.1836 -0.3599
28360W        W45207  16.722  16.820   1.296 -0.1405  0.2589  0.2675
28361W        W45208   4.507   8.300  12.732 -0.3487 -0.1458 -0.0893
28362W        W45209   0.166  16.749   0.277  0.0496 -0.3668  0.4171
28363W        W45210  14.807  10.822  13.275 -0.0996  0.3112 -0.1820
28364W        W45211  14.344  18.579  13.655  0.0330  0.1632  0.1867
28365W        W45212  14.603  16.240  11.649  0.2259 -0.1132 -0.0882
28366W        W45213   0.785   0.816  12.255 -0.2827 -0.1129 -0.0869
28367W        W45214   3.363   9.003   3.591 -0.1103 -0.3869  0.1127
28368W        W45215  17.519  12.749   3.087 -0.0037  0.1840  0.0675
28369W        W45216  16.587  13.719  12.332  0.1217  0.1542 -0.1370
28370W        W45217   0.739   9.065  11.652 -0.1959  0.0168  0.0483
28371W        W45218   9.288   3.019   2.184  0.2737 -0.0796 -0.2580
28372W        W45219   3.046  16.696  15.244 -0.0074 -0.1560  0.2184
28373W        W45220   6.768   1.568  12.039 -0.2438 -0.0496 -0.1417
28374W        W45221  12.518   3.120  12.635  0.0056  0.0205 -0.1120
28375W        W45222  17.232  18.321   4.470 -0.0306  0.0173  0.1158
28376W        W45223   9.616   5.000   3.971 -0.0915  0.0938 -0.0807
28377W        W45224   5.056   2.196   1.690  0.0705 -0.2279 -0.0613
28378W        W45225   9.160   9.864  13.812 -0.0916 -0.1681  0.5454
28379W        W45226   4.956  15.593   5.143 -0.4416 -0.1568 -0.0078
28380W        W45227   6.974   3.075   5.578  0.1765  0.3583 -0.2532
28381W        W45228  13.056  17.975   3.920  0.3805  0.0991 -0.3350
28382W        W45229   9.278   2.986   3.158  0.2390  0.0657 -0.0174
28383W        W45230  16.247   2.917   4.733  0.0843 -0.2210 -0.0820
28384W        W45231  17.708   2.979  14.965 -0.0573 -0.1809 -0.2294
28385W        W45232  11.659   8.612  11.009  0.2610 -0.0487 -0.1287
28386W        W45233   2.093   0.955   0.991  0.2120 -0.0600 -0.1590
28387W        W45234   1.347   0.670  13.562  0.3179  0.1213  0.3814
28388W        W45235  10.694   1.042   3.980  0.1012 -0.1550  0.2770
28389W        W45236  10.822   0.525  12.023  0.0828 -0.4015 -0.1243
28390W        W45237   6.789   7.294   4.627  0.0396 -0.1539  0.0544
28391W        W45238   4.965   3.314  12.274 -0.5494 -0.2122  0.1088
28392W        W45239   3.193  16.142   0.624 -0.0304  0.4990  0.4106
28393W        W45240   6.058   9.114   2.010 -0.1729  0.0754  0.1433
28394W        W45241   8.590   8.117  11.972  0.1621 -0.1938  0.1036
28395W        W45242   8.564   8.654  15.058 -0.0531  0.5351 -0.0785
28396W        W45243   0.894  16.817   2.679  0.2143 -0.2139  0.0064
28397W        W45244   3.603   2.058   1.247  0.0463 -0.0338 -0.0899
28398W        W45245   8.260  10.092  12.038 -0.0374 -0.2392 -0.2688
28399W        W45246   2.291  12.757   3.052 -0.0132 -0.4493  0.2395
28400W        W45247   6.625   4.949   4.522  0.0497 -0.3157 -0.3307
28401W        W45248  14.956  14.973   1.194 -0.0071  0.1320  0.0536
28402W        W45249  14.795   9.905   3.970 -0.0438  0.1296 -0.2094
28403W        W45250   7.546   8.961   1.071  0.2331  0.1338 -0.1051
28404W        W45251  13.101   4.662   2.177  0.2175  0.0786  0.0324
28405W        W45252   0.303   4.166   3.070  0.0140  0.0513  0.1930
28406W        W45253  13.102  14.757   0.098  0.3321  0.0708  0.2644
28407W        W45254   9.853  17.610  13.844  0.1052  0.3576  0.3311
28408W        W45255   1.146  16.193   2.083  0.0375 -0.0041  0.3436
28409W        W45256   4.688   4.923  13.572  0.2763 -0.0611  0.0083
28410W        W45257   5.886   0.612   0.644  0.1291 -0.0215  0.1010
28411W        W45258  18.678  18.538   2.967 -0.1732 -0.4891 -0.4166
28412W        W45259   5.244   6.278   2.448  0.1307  0.0158  0.2251
28413W        W45260   8.862   5.549   2.217 -0.3785  0.1334 -0.4285
28414W        W45261  15.753  12.442  14.775 -0.0222 -0.0618 -0.2309
28415W        W45262  11.560   2.380   4.533 -0.1003 -0.1154  0.2162
28416W        W45263  18.759   0.090   1.683  0.1733 -0.0335 -0.1473
28417W        W45264   8.535  12.732   4.466 -0.2177 -0.0975  0.1209
28418W        W45265   7.761   3.039   1.203 -0.0542 -0.2687  0.1396
28419W        W45266   7.768   4.998   1.447 -0.2019 -0.2258  0.1380
28420W        W45267   3.514   1.804  15.506  0.0125 -0.3811  0.0769
28421W        W45268   6.782   4.019  12.239 -0.3045  0.2444 -0.0028
28422W        W45269  17.512  10.242   3.946 -0.0236  0.0214 -0.0613
28423W        W45270   7.778   1.742  14.417  0.0099 -0.1589 -0.0807
28424W        W45271  18.363   9.609   0.149 -0.1561 -0.4824 -0.0274
28425W        W45272   1.926   1.769   3.789 -0.2387  0.1227 -0.2023
28426W        W45273   0.033   6.205   1.250 -0.0067 -0.1949 -0.1671
28427W        W45274   9.262   8.830  12.530 -0.0100 -0.3408  0.3435
28428W        W45275  13.855   0.120   1.848 -0.3200  0.0284 -0.2374
28429W        W45276   0.225   1.833  14.452  0.0572  0.1147 -0.1511
28430W        W45277   0.924   3.244   3.639 -0.0363  0.0997 -0.2872
28431W        W45278  10.353   6.894   1.054 -0.0838  0.1864 -0.2625
28432W        W45279   2.424   0.318   3.262  0.1239  0.0409  0.3466
28433W        W45280   7.321  12.297  12.646  0.0487 -0.1721 -0.1147
28434W        W45281  13.602   3.447   0.134 -0.1781 -0.1092 -0.2470
28435W        W45282   8.393   1.045   1.347  0.0650  0.4613  0.1351
28436W        W45283   7.163   8.178   4.315  0.2222 -0.0002  0.1825
28437W        W45284  17.385   1.136  12.010  0.0243  0.0360  0.0122
28438W        W45285   9.984   3.650  12.304 -0.2054 -0.0652 -0.3161
28439W        W45286  17.268   4.423   0.270 -0.1950 -0.4017 -0.2660
28440W        W45287   2.301   8.669   4.915  0.1617  0.0449  0.1959
28441W        W45288   3.490  15.440  10.032 -0.1464  0.2396 -0.0469
28442W        W45289   8.463  16.272   5.198  0.1014 -0.0204 -0.1140
28443W        W45290   5.677  16.399   3.586 -0.4064 -0.2108 -0.2460
28444W        W45291   7.583   9.308   3.840 -0.0595 -0.1731  0.1325
28445W        W45292   5.192   2.432   2.856 -0.4324  0.0293  0.0017
28446W        W45293   0.564   4.161  14.401  0.0993 -0.0765  0.0964
28447W        W45294  10.222   3.086  12.906 -0.1016 -0.0127  0.2536
28448W        W45295  10.563   9.373  11.310  0.4403 -0.0300  0.1736
28449W        W45296  15.353  15.408   4.342 -0.1355 -0.0415 -0.3219
28450W        W45297   5.534  13.196   0.530  0.1911 -0.1460  0.2532
28451W        W45298  11.702  15.069   5.020 -0.0435 -0.1770  0.2422
28452W        W45299  16.952   0.719  14.760 -0.0230  0.0247  0.0039
28453W        W45300  15.633   8.925  14.011 -0.0261 -0.0001  0.0621
28454W        W45301  11.035  13.365   3.420  0.4195 -0.1976  0.0875
28455W        W45302   2.716   1.358  12.371  0.0937  0.1228  0.0187
28456W        W45303   6.690   0.025  11.540 -0.0057  0.0262 -0.2036
28457W        W45304  12.417  15.993   3.133 -0.1004 -0.1320  0.0529
28458W        W45305   1.741   4.763  14.890 -0.3414 -0.2324 -0.0556
28459W        W45306   2.078  17.192   2.187  0.1129 -0.2191 -0.0259
28460W        W45307   5.351   8.703  10.399  0.0197 -0.0858  0.0163
28461W        W45308   3.721  10.596  10.125 -0.1139  0.2056  0.3687
28462W        W45309   4.096   8.982  12.419 -0.1548  0.1231  0.0515
28463W        W45310  13.621   8.836  11.944  0.0090  0.0675 -0.0397
28464W        W45311   5.564  11.819   2.020 -0.0164 -0.0018 -0.1471
28465W        W45312   9.990   5.284   5.349  0.0448  0.0468 -0.2336
28466W        W45313  18.677   4.982   3.150 -0.1566 -0.3012  0.0026
28467W        W45314  17.073  13.233   0.702  0.1508 -0.1240  0.0404
28468W        W45315  16.746  16.047  10.747 -0.0227 -0.3817 -0.1736
28469W        W45316   7.108   8.400  12.246 -0.0646 -0.2049 -0.2892
28470W        W45317   4.350   3.339  15.501  0.2679 -0.3481 -0.0311
28471W        W45318  10.483  16.188  10.737 -0.0566 -0.0505 -0.3034
28472W        W45319   4.796  15.919   3.172 -0.0145 -0.2271  0.0437
28473W        W45320  10.643  15.102  13.733 -0.2704  0.0813  0.1677
28474W        W45321  13.622   7.192   3.203  0.2867  0.0461 -0.1419
28475W        W45322   2.469  17.367  10.813 -0.2646  0.1340 -0.0387
28476W        W45323   9.290  13.370   3.255  0.2710  0.0228  0.0627
28477W        W45324  10.975  15.641  12.868 -0.0351 -0.0888 -0.1819
28478W        W45325   1.278   8.265   5.780 -0.0492 -0.0052  0.0480
28479W        W45326  13.227   5.329   1.022  0.0044  0.0264 -0.0950
28480W        W45327   1.053   3.727  15.300  0.0485  0.0739  0.3872
28481W        W45328   6.306   1.796   5.068 -0.0359 -0.2216 -0.1497
28482W        W45329   4.236   8.691  12.788 -0.0405  0.2825  0.1485
28483W        W45330  13.797  11.195   2.479  0.0145  0.2529 -0.1453
28484W        W45331  10.953  11.417   3.831  0.1610  0.0398  0.2726
28485W        W45332  15.967  14.291  14.536  0.2947 -0.0710  0.0595
28486W        W45333  11.086   0.951  14.649  0.0033  0.0747  0.0479
28487W        W45334  17.697   9.731   5.941 -0.2143 -0.1414 -0.1888
28488W        W45335  14.836  12.713   1.708  0.0203  0.1427 -0.0288
28489W        W45336   5.120  10.965  11.594  0.5264 -0.0764 -0.0789
28490W        W45337  14.792  17.601  10.847 -0.2691  0.4402 -0.1063
28491W        W45338  18.437  12.012   3.916  0.2142 -0.1508  0.0210
28492W        W45339  13.704  10.345   3.259 -0.0471  0.1276  0.1403
28493W        W45340  14.757   6.810   2.192  0.1428  0.3790 -0.0139
28494W        W45341   7.545  16.258   0.668 -0.0494  0.0349  0.2918
28495W        W45342   9.458  10.223  10.586 -0.2011 -0.1094 -0.0265
28496W        W45343   6.967  11.228  11.195 -0.0156  0.0120  0.0789
28497W        W45344  14.952   6.730  10.876 -0.1364  0.2058 -0.0117
28498W        W45345  15.036  12.828   5.478  0.3001  0.1296  0.2185
28499W        W45346   8.271   8.843   4.553 -0.0476 -0.0731 -0.2194
28500W        W45347   3.869   9.804  14.943  0.2613  0.1012  0.1079
28501W        W45348  17.711  15.984  12.288  0.0349  0.1447  0.1933
28502W        W45349   6.686   4.273  11.500  0.2688 -0.0897  0.1174
28503W        W45350   1.613  11.646   4.592 -0.2582 -0.1604  0.0468
28504W        W45351   4.352  16.969   0.915 -0.3054 -0.0568 -0.1449
28505W        W45352   5.657   2.507  15.757 -0.1696 -0.1539  0.3035
28506W        W45353  11.242   3.466  11.607 -0.1583  0.2802 -0.1022
28507W        W45354  14.918   3.229  14.845 -0.0894  0.0296  0.1348
28508W        W45355  18.799  10.907  10.942  0.0766 -0.1510 -0.1229
28509W        W45356   8.330   1.318   2.307  0.5024  0.0490  0.1035
28510W        W45357  14.865   5.761   2.217 -0.1794  0.0768  0.4083
28511W        W45358  13.911  12.683   0.356  0.1041  0.2396 -0.0169
28512W        W45359   5.645   8.511  14.142 -0.0274 -0.0012 -0.0900
28513W        W45360   1.966  17.134   2.807 -0.1467  0.1414  0.0014
28514W        W45361   2.233   2.997  14.706  0.3230 -0.0292  0.1171
28515W        W45362   2.645   9.605  10.730 -0.1936 -0.0107  0.0484
28516W        W45363  17.553   7.587   0.410  0.1539 -0.1368  0.0604
28517W        W45364   2.046   9.143   3.756  0.1275 -0.1876  0.0380
28518W        W45365   5.326  14.060  14.587 -0.0465  0.2862  0.0951
28519W        W45366   5.937   6.189  12.341 -0.1047  0.0433 -0.3023
28520W        W45367  13.622   9.225   4.171 -0.1026 -0.1396  0.0087
28521W        W45368   6.766  14.871  14.775  0.2791 -0.0207  0.0995
28522W        W45369  11.800   3.879  12.196 -0.0041 -0.0214 -0.0882
28523W        W45370  17.488  10.982   5.335  0.0395 -0.2763 -0.0813
28524W        W45371   6.165  17.278  10.778  0.0377  0.1063  0.2314
28525W        W45372   4.353   9.693   3.851 -0.0305 -0.0255  0.2187
28526W        W45373  10.121   8.247   2.259  0.0695  0.4624  0.3243
28527W        W45374  12.783   3.988  14.854  0.3371 -0.3280  0.2670
28528W        W45375  14.000  16.494  14.115 -0.2622  0.4125 -0.0592
28529W        W45376  18.283  14.909   3.323 -0.4568 -0.0162  0.0269
28530W        W45377   4.138   8.967   0.854  0.2491 -0.0262  0.1701
28531W        W45378  11.641  15.411   1.992  0.0893  0.0990  0.0247
28532W        W45379  18.093  14.292   4.113  0.0268  0.0960 -0.1932
28533W        W45380   1.865   0.224  11.470  0.0707  0.2186  0.1462
28534W        W45381   5.291   7.176   1.453  0.1132 -0.1786 -0.2663
28535W        W45382   8.626   7.065   0.337 -0.0225  0.1790 -0.1121
28536W        W45383   9.194   8.609  15.271 -0.1176 -0.1062  0.0009
28537W        W45384  15.788  10.566   5.589  0.1246 -0.1209  0.3708
28538W        W45385  17.758   1.804   4.575  0.0042  0.1453  0.0631
28539W        W45386  15.906   6.403  13.754 -0.1249  0.0225 -0.3556
28540W        W45387  15.266   8.565   5.019 -0.2205 -0.1286 -0.0867
28541W        W45388  13.449  17.016   4.202 -0.0191 -0.1109  0.0024
28542W        W45389  18.337  14.279  12.563  0.0991  0.1954 -0.1000
28543W        W45390   7.167  14.526   1.936  0.0274 -0.0747 -0.3218
28544W        W45391   8.591  15.698  15.542  0.0572  0.0567  0.0144
28545W        W45392  12.532  16.325   3.597  0.3863  0.4009 -0.2938
28546W        W45393   1.426  13.906   0.736 -0.1275 -0.3498 -0.0148
28547W        W45394  11.307  12.572   2.109  0.0777 -0.0408 -0.0872
28548W        W45395  12.674  10.863  12.198 -0.0197  0.1150 -0.1090
28549W        W45396   3.328  15.544   2.688 -0.0657  0.0345 -0.2955
28550W        W45397   0.873  11.490  12.423  0.0492  0.0482  0.1935
28551W        W45398  13.219   2.725   2.889 -0.0524 -0.2888  0.0542
28552W        W45399  14.497   2.866   0.544 -0.2851  0.2072  0.0612
28553W        W45400   1.482  16.819  13.506 -0.1625 -0.0374  0.0976
28554W        W45401  14.978  17.448  15.539 -0.3856  0.1199  0.2450
28555W        W45402   6.846   6.039   5.509  0.3954 -0.1691  0.2764
28556W        W45403   1.447   6.507  11.823 -0.2463  0.3405 -0.1602
28557W        W45404   3.073  14.391   5.649  0.1672  0.1499 -0.0180
28558W        W45405   5.740  11.119  11.582 -0.2618 -0.1691  0.3286
28559W        W45406  15.556   9.001   4.582 -0.1383  0.0107 -0.2581
28560W        W45407   5.493  16.321  12.595  0.2844 -0.0895  0.1394
28561W        W45408  15.666   3.211  12.834 -0.1267 -0.0979  0.0936
28562W        W45409   7.241   0.979  12.339 -0.0881  0.2199 -0.4096
28563W        W45410  10.528   2.112  11.357  0.0181  0.2146  0.0887
28564W        W45411  10.765  17.647   3.622  0.0788 -0.2459  0.1914
28565W        W45412   3.102  12.008  10.200 -0.2791 -0.4088  0.1949
28566W        W45413  16.254   3.304  12.656 -0.3093 -0.1350  0.0372
28567W        W45414  11.832   9.930   2.057 -0.0203 -0.1528  0.3985
28568W        W45415   4.442   9.765   0.451  0.0206  0.0947 -0.0742
28569W        W45416  17.094   6.555   4.346 -0.0536  0.0949 -0.0976
28570W        W45417   9.380   5.497   1.007  0.3339 -0.2398  0.3159
28571W        W45418   4.133  15.980  11.206  0.2394 -0.1682  0.0529
28572W        W45419  18.139  15.795  12.034 -0.3369 -0.1262  0.3939
28573W        W45420   9.278  17.569  12.954  0.1109  0.0130 -0.0603
28574W        W45421  12.285   0.991  14.911  0.1269  0.1855  0.0182
28575W        W45422   8.931  10.929   5.437  0.1332  0.1426 -0.2766
28576W        W45423   5.832   1.590   2.502  0.2618  0.2182 -0.2630
28577W        W45424  12.592  14.854   0.536 -0.0165  0.0808 -0.0871
28578W        W45425   0.799  15.984   1.651  0.0438 -0.3214  0.0563
28579W        W45426   8.291   4.124   0.813  0.0437 -0.0616  0.1227
28580W        W45427   4.941   3.334  12.800 -0.0074  0.2013 -0.1259
28581W        W45428   0.264  10.546  15.016  0.2189  0.1142  0.0359
28582W        W45429   3.414  12.818   1.143  0.1391  0.0419 -0.0056
28583W        W45430  11.619  14.582   3.838  0.0062 -0.0833  0.0342
28584W        W45431  16.282   9.353   2.973  0.0249  0.1823 -0.0202
28585W        W45432   3.213  14.968  13.516  0.1932 -0.2309  0.0241
28586W        W45433   0.279   2.659  13.336 -0.0396 -0.0475  0.3678
28587W        W45434  15.650  13.651   1.997 -0.0605  0.2890 -0.2363
28588W        W45435   2.098   4.153   4.922  0.2960  0.6028 -0.1374
28589W        W45436  10.234  11.849   2.803 -0.2992 -0.3060 -0.0632
28590W        W45437   7.706   7.333   2.131 -0.0227  0.1886  0.1405
28591W        W45438   9.104   4.436   1.707  0.3060 -0.2728  0.0495
28592W        W45439  13.553   6.317   5.673  0.2615  0.3249 -0.1911
28593W        W45440  18.000   4.512  15.500  0.0955 -0.2226  0.2790
28594W        W45441   4.068  12.584  10.559  0.1945 -0.0423 -0.1196
28595W        W45442   0.467  12.211   3.397 -0.2473 -0.2985  0.0999
28596W        W45443  15.508  17.640  11.283  0.0013 -0.0767 -0.2556
28597W        W45444   3.104   6.514   1.475 -0.2778  0.0208 -0.0540
28598W        W45445   0.767  14.019   4.997  0.1472  0.0596 -0.1318
28599W        W45446  10.440  11.336  14.111  0.0190  0.0581 -0.1018
28600W        W45447   4.560   8.915  11.258 -0.1578  0.0821  0.1532
28601W        W45448  17.983  15.696   4.445  0.2030 -0.0344  0.2653
28602W        W45449   7.209   1.922  10.914 -0.1086 -0.2451  0.0026
28603W        W45450  17.888   3.541  12.682 -0.2125 -0.0086 -0.1233
28604W        W45451  18.559   7.931  13.591  0.1693  0.4189 -0.1079
28605W        W45452   0.109  12.985  11.433 -0.0997 -0.1284 -0.0036
28606W        W45453   9.307   7.186   2.030 -0.0294  0.2353  0.3885
28607W        W45454  16.629   5.150  11.143  0.0696  0.3050  0.0018
28608W        W45455  13.573  16.971  11.555  0.1300 -0.4448  0.1311
28609W        W45456   8.022   3.264   5.064 -0.1740 -0.0009  0.1776
28610W        W45457   3.788   0.276  14.206  0.1090 -0.1395 -0.3872
28611W        W45458   2.240  11.119  12.424 -0.0465  0.2147  0.0974
28612W        W45459  10.545  17.597   4.068  0.0662 -0.0865 -0.2039
28613W        W45460  18.619  17.149  11.849 -0.1432  0.0894 -0.0799
28614W        W45461   5.354  18.123  12.477  0.4195  0.0177 -0.2762
28615W        W45462   6.616   9.159   2.279 -0.1623 -0.0302  0.0463
28616W        W45463   6.975   5.871  12.686 -0.0340 -0.0222 -0.1181
28617W        W45464   8.636   7.662   3.931  0.3471  0.0282  0.0733
28618W        W45465  14.421   9.797   0.973 -0.1555 -0.2457  0.1255
28619W        W45466   2.168  13.165  12.485  0.2506 -0.1812 -0.1679
28620W        W45467   7.023  15.385  13.816  0.0488  0.2795 -0.1039
28621W        W45468  16.864  14.659   4.311 -0.0708  0.1912 -0.1256
28622W        W45469  13.723  13.224  10.419  0.2945 -0.3553 -0.4353
28623W        W45470   5.878   0.169   3.855 -0.2390  0.0196 -0.2792
28624W        W45471  15.251   4.437   0.711  0.2574 -0.2888  0.0168
28625W        W45472  18.169   8.574  12.380 -0.2162 -0.1067 -0.1659
28626W        W45473   3.556   7.104  13.367 -0.2233 -0.1359 -0.1492
28627W        W45474   8.258   1.308  12.351  0.2460  0.4181 -0.2022
28628W        W45475   3.350   6.003   3.839 -0.3243 -0.1469 -0.0275
28629W        W45476  13.141  10.033   0.510  0.1028  0.3539 -0.4013
28630W        W45477   2.832   6.254   3.146  0.4837  0.0243  0.0572
28631W        W45478  17.634   4.618   4.570  0.0991  0.0427  0.0147
28632W        W45479  14.082   8.963   0.602 -0.0208  0.2002  0.1778
28633W        W45480   7.340  18.129   3.800 -0.0433  0.1218 -0.3505
28634W        W45481  17.332   3.267  14.789 -0.0783 -0.0000  0.2890
28635W        W45482   7.151   8.833   3.472  0.1557 -0.0470 -0.1384
28636W        W45483   6.546  17.497   3.532  0.1267 -0.1638 -0.1555
28637W        W45484   4.305   3.891   4.988 -0.0596 -0.1516  0.0153
28638W        W45485  12.614   2.946  12.095  0.0722 -0.0513  0.0078
28639W        W45486   6.407   1.202   5.011  0.1028 -0.0502 -0.1145
28640W        W45487   5.440   0.067   3.487  0.0265 -0.3485  0.0408
28641W        W45488  14.141   3.714  13.586 -0.0416  0.2366 -0.0745
28642W        W45489  13.158   4.612  13.596 -0.1987  0.0678 -0.2202
28643W        W45490  10.593   9.108  10.736  0.3150 -0.3618 -0.1061
28644W        W45491  17.341   6.643  11.721 -0.0309 -0.0544 -0.0297
28645W        W45492  10.244   7.019  11.486 -0.1365  0.0936  0.4965
28646W        W45493  13.682  10.708  12.645 -0.0408 -0.0386 -0.1583
28647W        W45494   8.281  13.465  15.767 -0.0639 -0.1462 -0.2528
28648W        W45495   0.767   3.638   3.171  0.0438 -0.1886  0.1057
28649W        W45496  15.717  13.348   1.637  0.1353 -0.1031  0.0865
28650W        W45497   5.086   7.246  11.374  0.1635  0.0389 -0.0935
28651W        W45498   8.827  10.026  10.564  0.0073  0.0816 -0.1175
28652W        W45499  16.006   5.807  11.561  0.0270  0.3082  0.1938
28653W        W45500   5.974   5.655  11.954  0.0696 -0.1459  0.4945
28654W        W45501  16.762   8.826  12.090 -0.0859 -0.0852 -0.0918
28655W        W45502  15.105   9.054   4.205  0.2439  0.3113 -0.2336
28656W        W45503   0.544  10.786   1.349 -0.1694 -0.4456 -0.0220
28657W        W45504   0.904  10.069   3.791  0.1959 -0.1139 -0.3103
28658W        W45505  11.928   7.229  13.518  0.1591  0.0025 -0.1415
28659W        W45506  17.392  16.170   5.491  0.1461 -0.1934 -0.1476
28660W        W45507   6.874   1.478  13.441  0.0687 -0.1162 -0.2526
28661W        W45508   0.374   6.962  12.148  0.1223  0.1029 -0.1572
28662W        W45509   6.625   3.124   3.455 -0.0038  0.0635  0.2051
28663W        W45510  11.146   8.428  15.132 -0.1857  0.1710 -0.0899
28664W        W45511  15.512  11.941  15.289  0.0695  0.1073  0.2748
28665W        W45512  17.889  17.474   3.636  0.1174  0.0438 -0.1550
28666W        W45513   7.283   6.483  11.210  0.2220  0.1946 -0.2609
28667W        W45514   2.501  15.247  12.177  0.0773 -0.1674  0.0055
28668W        W45515  12.258   7.964   0.022 -0.0977  0.2137 -0.1221
28669W        W45516   2.664  10.709   3.330 -0.2569 -0.5002  0.2098
28670W        W45517   7.360   6.651  12.132  0.2762  0.0706 -0.1347
28671W        W45518  14.165  17.659   3.630  0.1100  0.4981 -0.0307
28672W        W45519  11.345   5.366  10.631  0.4380  0.0401  0.5231
28673W        W45520   4.170  13.614  14.108  0.4091  0.0773  0.0978
28674W        W45521   3.732  11.864   5.022  0.1621  0.0149  0.0131
28675W        W45522   3.070  13.357  15.725  0.2781 -0.1937 -0.1426
28676W        W45523   2.712  11.000   2.891  0.0231  0.2437  0.0374
28677W        W45524  11.187  11.409   5.138  0.0077  0.0696  0.0621
28678W        W45525  13.749   8.519   4.848  0.0340 -0.0072 -0.1442
28679W        W45526   8.688  10.144   2.086 -0.1453 -0.0227 -0.3000
28680W        W45527   4.051   5.689  11.490  0.1994 -0.1997 -0.3655
28681W        W45528  13.110   1.440  14.248 -0.0649  0.1332 -0.0171
28682W        W45529   2.659   9.255   0.611 -0.1929  0.1157  0.2082
28683W        W45530   5.477   1.897   2.704  0.1120  0.1782 -0.0874
28684W        W45531   5.466   1.801  14.427  0.1528 -0.3040 -0.0574
28685W        W45532   5.265  17.035  10.858 -0.0562  0.4595 -0.2244
28686W        W45533   0.825  14.916  12.699  0.1279  0.1767  0.1308
28687W        W45534   4.021   4.326   1.821 -0.4138  0.0915  0.3653
28688W        W45535  17.582  10.449   0.230  0.2447  0.0344  0.0163
28689W        W45536  10.260   8.883  14.832 -0.1955 -0.1637 -0.1821
28690W        W45537   0.005  16.309   0.654  0.0248 -0.2042 -0.2115
28691W        W45538  15.486  13.496   4.861 -0.3383 -0.2622 -0.0814
28692W        W45539   3.627  15.912   1.908  0.0295  0.1985 -0.0855
28693W        W45540   9.369   5.474  10.613 -0.2516  0.0323 -0.1267
28694W        W45541   6.804   7.221  11.499  0.0079 -0.0937 -0.0391
28695W        W45542  11.915   7.900  14.802  0.3453  0.3279 -0.1352
28696W        W45543  18.474  10.162   3.997  0.1891  0.1132  0.4165
28697W        W45544  12.314  18.417   2.847 -0.1599 -0.0070  0.1453
28698W        W45545  13.209   9.221  14.285 -0.1328 -0.0896  0.0033
28699W        W45546   5.068  14.901   4.527 -0.0616  0.0510  0.1040
28700W        W45547   5.325   5.914  10.769  0.4487 -0.1937 -0.0589
28701W        W45548   9.133   0.324   4.764 -0.0568  0.0533 -0.1268
28702W        W45549  13.289  15.928   3.153 -0.1491  0.2075  0.0532
28703W        W45550  11.814  13.138  14.307 -0.1993  0.0932 -0.3281
28704W        W45551   5.581   0.330  14.891 -0.0103  0.3836 -0.2055
28705W        W45552  15.512  12.926   1.486 -0.1218 -0.1124  0.3177
28706W        W45553   0.164  15.457  13.741 -0.4056 -0.2052  0.1017
28707W        W45554  13.670   7.931   4.298 -0.1301 -0.1863 -0.0317
28708W        W45555   6.208   1.373  11.887  0.0236  0.0489 -0.1301
28709W        W45556   3.874   0.680   2.820  0.0444  0.0298  0.2321
28710W        W45557  18.097   8.482  13.558  0.0443  0.0575  0.3798
28711W        W45558  13.425  11.164  15.443  0.0462  0.1326 -0.0461
28712W        W45559   4.677   2.070  12.183  0.2425 -0.0022 -0.0442
28713W        W45560   6.415   6.911   0.077 -0.0808  0.1918 -0.3300
28714W        W45561   2.635   4.898   0.917 -0.0741  0.0745 -0.3423
28715W        W45562   3.490  10.006  10.960 -0.3439 -0.1932 -0.0200
28716W        W45563   2.568   7.817   4.616 -0.0950  0.0682 -0.1762
28717W        W45564   4.848   8.311  11.725  0.0115 -0.1957  0.0719
28718W        W45565   0.418  11.481  13.314  0.3524  0.1902 -0.1335
28719W        W45566   3.087  10.052   2.396 -0.0917  0.0786  0.0782
28720W        W45567   1.998  10.976   5.098 -0.2225  0.2117  0.0777
28721W        W45568  11.759  16.631  13.899 -0.2457 -0.0549  0.0900
28722W        W45569  16.184   3.917   3.880 -0.0636  0.0249 -0.6918
28723W        W45570  18.845   5.672  13.106  0.1390  0.0034 -0.2959
28724W        W45571  16.786  10.531   1.308 -0.0104  0.0345 -0.2060
28725W        W45572   7.588  18.069  13.578  0.2304  0.3340  0.1096
28726W        W45573  17.902  14.022   3.301 -0.2254  0.0823  0.2527
28727W        W45574  10.715  18.363  13.053 -0.1319  0.2838  0.2283
28728W        W45575   0.640  12.422  13.439 -0.1424 -0.1988  0.2211
28729W        W45576   7.863  11.871  13.177 -0.1997  0.0831  0.0049
28730W        W45577  14.562   9.049   0.444  0.0445  0.1240 -0.2364
28731W        W45578  14.537  11.198   5.331 -0.2006 -0.1392 -0.0292
28732W        W45579  13.295  12.117   4.322 -0.1704 -0.2691 -0.1839
28733W        W45580  12.955  11.318  15.129 -0.0944  0.2328 -0.1141
28734W        W45581  14.084   3.876   3.606  0.0689 -0.0467 -0.1598
28735W        W45582  10.995  13.285   2.550 -0.4342 -0.1033  0.2497
28736W        W45583  15.899  14.219   1.144  0.1045 -0.2709 -0.0647
28737W        W45584   8.709   1.280  13.512 -0.1190  0.2793 -0.1106
28738W        W45585  11.282   6.311  10.970  0.0524  0.2842 -0.0206
28739W        W45586   9.083  16.262  10.934  0.2278 -0.2141  0.0415
28740W        W45587   0.547   0.012  14.544  0.0083  0.1821  0.3484
28741W        W45588  14.930  17.158   2.093 -0.0895 -0.2879 -0.1844
28742W        W45589   1.214  18.691  13.829  0.0494  0.3243  0.2035
28743W        W45590   9.233   3.624  14.247 -0.0375 -0.1234  0.0739
28744W        W45591   9.639  10.394   3.149 -0.2316  0.0966  0.0564
28745W        W45592  18.677   7.886   2.578  0.0334  0.0215  0.2361
28746W        W45593   2.569   6.388   1.648 -0.2737  0.0887 -0.0402
28747W        W45594   2.652   1.811   4.697  0.3479 -0.5463  0.2445
28748W        W45595   7.649   8.611   1.480 -0.0233  0.3317 -0.1228
28749W        W45596  11.068   0.619  14.285  0.1031  0.1396 -0.3516
28750W        W45597  18.694   6.988   6.322  0.1837 -0.1393  0.0129
28751W        W45598  14.219  10.823   5.844  0.2126  0.0094 -0.0778
28752W        W45599   7.909  13.822   0.394  0.0094 -0.2431 -0.0634
28753W        W45600   0.625   6.630   2.664 -0.0671  0.1643 -0.2035
28754W        W45601  16.183   9.052   0.396 -0.0263 -0.1088 -0.0669
28755W        W45602   7.775   7.210  10.827 -0.0047 -0.0529  0.2141
28756W        W45603  17.140  12.176   1.937 -0.1061  0.0696 -0.1272
28757W        W45604   6.123  18.410  13.532 -0.1767 -0.0029 -0.1389
28758W        W45605   1.950  18.850   0.109 -0.1010  0.0464 -0.0938
28759W        W45606  15.391  17.875   0.635  0.1338 -0.0346  0.0496
28760W        W45607  12.210   3.576  12.575  0.2209  0.0166  0.0336
28761W        W45608  12.966   3.008  13.371 -0.0529 -0.1069 -0.0122
28762W        W45609  11.033  14.408   3.572  0.4258  0.2241  0.0272
28763W        W45610   0.425   0.952  13.303  0.0649  0.0983 -0.1864
28764W        W45611   2.746   4.227  12.837  0.0869 -0.3993  0.1808
28765W        W45612   5.368   9.041  15.139  0.2516 -0.0762 -0.0283
28766W        W45613   8.196   9.276   4.849  0.2091  0.0498 -0.0150
28767W        W45614  10.130   5.494  11.476  0.1210  0.0289 -0.2768
28768W        W45615   7.695   0.787  11.575 -0.1905  0.0312 -0.2378
28769W        W45616   0.155   2.601   1.154 -0.0325 -0.2636 -0.1673
28770W        W45617   0.995   1.668  15.421  0.0270  0.1880 -0.0365
28771W        W45618  15.198  16.304   1.409  0.0975 -0.1594  0.2759
28772W        W45619   9.852  16.673  14.343 -0.1764 -0.1512 -0.1233
28773W        W45620   9.504   1.597  13.598  0.1007  0.3625  0.0785
28774W        W45621   9.887  10.007  13.305  0.1113 -0.1046  0.4048
28775W        W45622  15.416   5.524   0.620 -0.2693 -0.2014 -0.0125
28776W        W45623   3.955  17.023  15.106 -0.2101  0.3227  0.0684
28777W        W45624  13.840  15.023  13.834 -0.1379  0.1938 -0.0545
28778W        W45625  13.266   8.847   0.178  0.1834 -0.2701  0.2933
28779W        W45626   6.101  13.191   1.929 -0.0480 -0.0843  0.0517
28780W        W45627   7.730   5.480  13.816  0.1382  0.0828 -0.1327
28781W        W45628   5.892  13.121  14.671  0.1351  0.3833 -0.2084
28782W        W45629   4.705   6.537   3.158 -0.0687  0.3527 -0.1049
28783W        W45630   3.260   2.248  12.993 -0.1658  0.0916  0.0607
28784W        W45631   8.235   4.399  15.063  0.0371  0.0098  0.0312
28785W        W45632  12.266  18.529  14.527 -0.1217 -0.4386  0.1911
28786W        W45633  12.701   4.288  13.034 -0.0425 -0.0108 -0.0344
28787W        W45634   8.178  14.588  15.603 -0.3553  0.0099  0.0146
28788W        W45635  13.753  12.777  14.624 -0.0326  0.1187 -0.3702
28789W        W45636  15.165   0.103  12.182  0.0182  0.0926 -0.0887
28790W        W45637  11.008  14.675   3.065 -0.3331  0.0854 -0.0660
28791W        W45638   6.216   9.851  13.667 -0.1458 -0.2254 -0.1304
28792W        W45639  15.842  12.106   0.254  0.0275  0.1443  0.0528
28793W        W45640   2.814   3.691   0.129 -0.0195 -0.1589 -0.1458
28794W        W45641  16.449  18.335  14.523  0.2538 -0.2544  0.0080
28795W        W45642   6.730   3.539   2.062 -0.1065 -0.2110 -0.0352
28796W        W45643   8.132  18.456   1.570  0.1020 -0.0336 -0.3072
28797W        W45644  14.691   4.462  15.751 -0.0801 -0.0988  0.1176
28798W        W45645  18.643  13.778   3.931  0.2677 -0.2185 -0.2767
28799W        W45646  16.898  14.196   3.576  0.1235  0.1717  0.2066
28800W        W45647  15.217  18.636   3.101 -0.2110 -0.2441 -0.1982
28801W        W45648  12.222  16.247  15.068  0.2169 -0.0218  0.3006
28802W        W45649  17.573   7.084  13.429  0.2043 -0.0309 -0.1273
28803W        W45650   3.944  17.456  14.083 -0.1384  0.1367 -0.2058
28804W        W45651  17.634  10.789  10.455  0.1454  0.0835  0.0551
28805W        W45652   9.516  12.392   0.817  0.3179 -0.0143  0.2886
28806W        W45653   2.064  14.580   3.988 -0.4528  0.0612 -0.2448
28807W        W45654   8.345  10.986  11.995  0.2525 -0.0955 -0.1396
28808W        W45655   4.727   9.936   1.898 -0.0399 -0.0660 -0.0349
28809W        W45656   3.753   2.438  11.282 -0.0121 -0.0236  0.3871
28810W        W45657  17.936   5.899  14.502  0.2177  0.2795 -0.2152
28811W        W45658  12.209   2.462   5.247 -0.0669  0.1205  0.1524
28812W        W45659   1.470  10.596  15.595  0.2896  0.1490 -0.1776
28813W        W45660   8.734   8.121   5.527  0.1011  0.2256 -0.0865
28814W        W45661   1.382  16.193   0.848 -0.2038  0.1566  0.1356
28815W        W45662  14.338  18.550  14.504 -0.1072 -0.1963 -0.0019
28816W        W45663  13.434   5.535  12.499 -0.1279 -0.4011 -0.3341
28817W        W45664   5.046  18.469   0.052 -0.1723  0.4191  0.1011
28818W        W45665   6.858   2.177   2.927  0.2740  0.5118  0.0764
28819W        W45666   2.468   3.963   5.234  0.0888 -0.0104 -0.2215
28820W        W45667   2.269   1.550  12.717  0.1400  0.0403 -0.0395
28821W        W45668   1.882   5.190  13.863  0.1200 -0.1922  0.0456
28822W        W45669  11.458  12.824   3.785  0.2097 -0.1168  0.0273
28823W        W45670  12.337  13.678   3.776 -0.2170  0.0650  0.4139
28824W        W45671  17.108   7.529  11.754  0.1536  0.1527 -0.0163
28825W        W45672   2.087  14.777  10.920 -0.2669  0.0317  0.1119
28826W        W45673  18.450   5.197  11.546 -0.3174  0.2760 -0.0122
28827W        W45674  18.104   1.854   2.404 -0.1745 -0.1610  0.0022
28828W        W45675   2.825   2.868   2.259 -0.0792  0.0725 -0.1881
28829W        W45676   6.407   5.196   0.754 -0.0792  0.0600 -0.3188
28830W        W45677   3.806  15.322  12.220 -0.1199 -0.1195 -0.0547
28831W        W45678  12.711   3.030   3.618  0.0994  0.3847  0.0223
28832W        W45679   6.909  12.280  15.680  0.1676 -0.0301  0.0322
28833W        W45680  14.495   4.550   3.177 -0.1621 -0.0133 -0.0768
28834W        W45681  17.853  13.891   1.788  0.1362  0.0270  0.0503
28835W        W45682  15.499   1.525  13.617  0.3308 -0.1239  0.3532
28836W        W45683  10.134  16.797  13.889 -0.1020 -0.2493 -0.0147
28837W        W45684  13.824   1.601  15.044  0.2294 -0.4238  0.0284
28838W        W45685   4.450   5.410   2.296  0.0103 -0.2180  0.0815
28839W        W45686   6.277  17.915  12.772  0.3549  0.0063  0.2571
28840W        W45687  14.489  11.656   1.401  0.1985 -0.2248  0.3775
28841W        W45688  13.284   5.429  13.462 -0.1698  0.0507  0.3023
28842W        W45689  18.292  18.379   1.454  0.1552 -0.2332  0.0784
28843W        W45690   8.088   3.648   2.827  0.0878  0.0625  0.1375
28844W        W45691  11.625  14.339   0.032 -0.0535  0.0897 -0.2951
28845W        W45692  17.097  10.236   3.172 -0.1948 -0.0552  0.0271
28846W        W45693  10.417   2.045  15.491 -0.0397 -0.1231  0.0521
28847W        W45694   9.582  10.375  13.390 -0.1748 -0.0458 -0.2432
28848W        W45695   7.933   2.116  15.379  0.1119 -0.1199  0.1138
28849W        W45696   3.214   8.931   0.815 -0.4231  0.0824 -0.0320
28850W        W45697   6.750   7.918  14.453 -0.2496  0.1825 -0.1568
28851W        W45698  16.257   6.074   0.605  0.3604  0.0213 -0.0567
28852W        W45699   9.983   7.408  14.618  0.1491 -0.0855 -0.0806
28853W        W45700  18.764  16.807   2.852  0.2013 -0.0405  0.1885
28854W        W45701   7.569   8.972  15.144  0.1320 -0.1413  0.0180
28855W        W45702  17.566   8.089  10.550  0.0960 -0.0860 -0.0688
28856W        W45703  15.691   1.569   5.730  0.2249  0.3184 -0.0502
28857W        W45704   0.199  18.015   5.640 -0.3118  0.0567 -0.3948
28858W        W45705  10.397   3.500  12.544 -0.3938 -0.1305 -0.1439
28859W        W45706   2.694  14.887  13.478 -0.0378  0.1624  0.1344
28860W        W45707   4.278  16.909   3.406 -0.0381 -0.4917  0.0951
28861W        W45708  14.832   0.943   4.022 -0.2027 -0.2029 -0.2401
28862W        W45709   7.183  13.476   4.613  0.1136 -0.1232  0.0882
28863W        W45710   7.501   7.711  15.425  0.3322  0.0107 -0.1309
28864W        W45711   1.346   8.237  15.198  0.0053 -0.1999 -0.0016
28865W        W45712  14.935   3.442   3.632  0.0560 -0.1266 -0.0258
28866W        W45713   2.048  15.076  11.924 -0.1512 -0.3541  0.2402
28867W        W45714  12.534  16.343  14.486  0.3036 -0.0130 -0.3731
28868W        W45715   1.144   1.508  11.632  0.0324 -0.0764 -0.1960
28869W        W45716  16.957   9.981  14.769  0.0177 -0.0025  0.2104
28870W        W45717   3.280   3.605  13.826 -0.0215  0.1329  0.2583
28871W        W45718   6.510   7.327   3.179  0.4877 -0.3914  0.1961
28872W        W45719   5.064  18.055   0.454 -0.1119  0.0517 -0.1852
28873W        W45720  16.895  10.304   4.089 -0.0251  0.1879 -0.0575
28874W        W45721  16.288   6.196   1.103  0.1119 -0.3415 -0.1311
28875W        W45722  13.327  13.529   1.896  0.0899  0.2672  0.4367
28876W        W45723   7.867  13.362  10.891  0.0290 -0.2023 -0.1750
28877W        W45724   3.223   3.103  13.781 -0.1625  0.3094  0.0666
28878W        W45725  12.577   2.243   4.838  0.2344 -0.4058  0.0051
28879W        W45726   1.519  15.426   1.302 -0.1012  0.0617 -0.0091
28880W        W45727  17.425   3.400  15.245 -0.0429  0.2583 -0.1276
28881W        W45728  17.966  13.387   1.398  0.2300  0.1802 -0.0726
28882W        W45729   4.266   5.057  13.310 -0.0227 -0.3303  0.0838
28883W        W45730  10.825   8.831  13.310  0.4299  0.2080 -0.1786
28884W        W45731   4.298  10.153   4.286 -0.2732 -0.1240  0.3227
28885W        W45732  11.441   6.017   0.134 -0.3954 -0.1450  0.1416
28886W        W45733   5.151   5.144  11.938 -0.0713  0.0417  0.0039
28887W        W45734  12.783   9.424   4.232 -0.0904  0.1189 -0.2136
28888W        W45735  16.813  18.547   1.969  0.0402 -0.2009  0.0747
28889W        W45736  14.753   5.264   0.433 -0.0623  0.2570 -0.1719
28890W        W45737   2.310   0.564   0.775 -0.0246 -0.0949  0.2714
28891W        W45738  18.097   9.523  14.343 -0.2490 -0.3457  0.0873
28892W        W45739   6.362  12.035   4.741  0.2127 -0.1371  0.0875
28893W        W45740   5.887  15.074   4.844 -0.1879  0.1703 -0.0542
28894W        W45741  14.029   1.366   4.329  0.1709 -0.2609  0.2354
28895W        W45742   3.973  17.907   2.720  0.3018 -0.2987  0.1888
28896W        W45743   2.252  17.968   3.250  0.1239  0.1646 -0.1155
28897W        W45744   5.731  12.520   4.019  0.1283  0.2179 -0.1585
28898W        W45745  17.273  15.063  13.244  0.2440 -0.2569 -0.1252
28899W        W45746  10.509  14.220  14.498 -0.1337 -0.4864 -0.1021
28900W        W45747   1.990  12.999  11.733 -0.1658  0.1573 -0.2986
28901W        W45748   6.700  14.363  14.646 -0.4899 -0.1013 -0.0323
28902W        W45749  14.548   1.175   3.679  0.0299 -0.2292  0.2062
28903W        W45750   4.590   9.312   0.066  0.0153  0.0910  0.1585
28904W        W45751  12.552  10.416  11.992  0.3236  0.0327 -0.1102
28905W        W45752   5.607  14.977  11.133 -0.2777 -0.2248 -0.0542
28906W        W45753  10.055   4.670  11.949 -0.2549 -0.2009 -0.2281
28907W        W45754   6.095   8.251   5.164  0.0048  0.0280 -0.0121
28908W        W45755   7.553  11.130   2.249 -0.4080 -0.3916 -0.1360
28909W        W45756  17.175  14.914   2.341 -0.0449  0.3811  0.0705
28910W        W45757  11.017  11.523   1.342  0.1795 -0.1262 -0.0310
28911W        W45758  18.277  17.028   1.944 -0.1312 -0.1328 -0.3062
28912W        W45759   5.618  13.138  12.331 -0.2121 -0.0430 -0.1947
28913W        W45760  17.072   2.052   1.474  0.0268 -0.2853 -0.0531
28914W        W45761  15.724   7.696   0.219 -0.2094  0.0694 -0.1872
28915W        W45762  17.122  18.244  10.091 -0.2736  0.0430 -0.0335
28916W        W45763  10.946   3.440  13.658  0.1168 -0.0138 -0.2349
28917W        W45764  11.285   4.904  10.943  0.0921  0.0780 -0.2444
28918W        W45765   5.629   9.544   1.977  0.0631  0.2066 -0.4023
28919W        W45766   4.604  12.282   1.931 -0.0296 -0.0165 -0.0037
28920W        W45767   8.015   3.942  11.580 -0.1931 -0.0146 -0.0658
28921W        W45768   1.443   0.724  12.991  0.0271 -0.3712  0.0344
28922W        W45769  10.558  16.447   1.500 -0.2667 -0.2760 -0.3571
28923W        W45770   3.442   9.693  11.333  0.1745  0.0454 -0.2650
28924W        W45771  18.089  17.347   4.878  0.2437 -0.2543  0.1114
28925W        W45772   3.095  17.721  11.273  0.0569  0.1043  0.1146
28926W        W45773   9.802   5.759  12.338  0.3203 -0.0320 -0.2718
28927W        W45774  10.578  10.375   2.241  0.2445  0.3727  0.0113
28928W        W45775  10.504   8.385  11.881  0.3972 -0.3313 -0.0237
28929W        W45776   1.274   2.728  11.593  0.0714  0.0111 -0.2694
28930W        W45777  18.865   8.128   4.291 -0.0598 -0.2209 -0.2208
28931W        W45778  15.635   8.375  12.281  0.0006  0.1746 -0.4578
28932W        W45779  12.868  14.726   4.395  0.2545 -0.0489 -0.3265
28933W        W45780  10.317  17.446  15.531  0.0091  0.0213 -0.0926
28934W        W45781  16.645  17.090   4.149  0.0075  0.3622 -0.0243
28935W        W45782  10.303  16.769   3.558  0.2770 -0.1653  0.0897
28936W        W45783   4.798   1.632   1.576 -0.2725 -0.2965 -0.1572
28937W        W45784   2.743  16.948   2.237 -0.0898  0.2612  0.0697
28938W        W45785   8.783  10.813  12.215 -0.1115  0.3098 -0.0334
28939W        W45786  10.671  11.851   1.990  0.4173  0.3048 -0.1410
28940W        W45787   4.123  18.316  14.020 -0.0754  0.3476  0.0832
28941W        W45788   5.514  17.080  14.607  0.2748  0.1393  0.3975
28942W        W45789  14.356   3.500   6.084  0.0552  0.2062 -0.3407
28943W        W45790   5.452  13.854   4.258 -0.0575  0.1552 -0.1352
28944W        W45791   0.053   8.718  13.522  0.1871  0.1331  0.4005
28945W        W45792  11.527  10.311  14.381 -0.0960 -0.2784  0.3466
28946W        W45793  10.410  16.811  14.722 -0.1434 -0.0915  0.0695
28947W        W45794  14.251   6.194   0.699 -0.1257  0.3705  0.1925
28948W        W45795   1.744   3.607   5.644  0.1652  0.1096 -0.0034
28949W        W45796  13.241  17.619  11.253 -0.1396 -0.0312  0.0377
28950W        W45797  14.876   6.145  12.861 -0.1952 -0.4991 -0.5029
28951W        W45798   3.143   4.533  11.038 -0.1410 -0.0647  0.0714
28952W        W45799   4.319   8.603  11.000 -0.3502 -0.0224 -0.1076
28953W        W45800  13.343   0.452   3.110  0.4607 -0.2676 -0.0733
28954W        W45801  12.103  10.768   0.594 -0.0056 -0.3560 -0.1610
28955W        W45802  18.488   6.857   5.918  0.3070 -0.2684 -0.6041
28956W        W45803  16.213  15.273   3.090 -0.0052  0.2702  0.0504
28957W        W45804   3.508  14.268   3.786 -0.0474  0.0674 -0.0063
28958W        W45805  13.694  10.188   0.544  0.2573  0.1955 -0.2065
28959W        W45806   6.520  10.804   4.313  0.0059 -0.0731 -0.2596
28960W        W45807  13.607  18.682   2.174 -0.3214  0.1406  0.2022
28961W        W45808  16.841  12.683   3.127  0.0463 -0.0484 -0.1901
28962W        W45809   7.835   6.448   3.893 -0.1114  0.0920  0.0314
28963W        W45810  14.263   8.026  11.853  0.1544  0.0547  0.1595
28964W        W45811  11.275  17.756   4.623  0.0192 -0.2250 -0.2536
28965W        W45812   5.848   9.989   4.423  0.1925 -0.0215 -0.0690
28966W        W45813   7.849   5.439   4.848  0.2329  0.1413  0.0261
28967W        W45814   0.347  12.642  14.383 -0.1761 -0.3151 -0.0609
28968W        W45815  17.880   8.734  11.831 -0.0608 -0.0243  0.0457
28969W        W45816   5.643   3.542  12.091 -0.0705 -0.1302  0.0641
28970W        W45817   8.280   2.362   4.142 -0.1609  0.2672  0.0998
28971W        W45818  17.944   6.298   3.724  0.0717 -0.0384  0.4555
28972W        W45819  14.676   4.613   3.649  0.1625  0.2468 -0.0223
28973W        W45820  15.143   8.309   0.182  0.0891 -0.2136  0.2644
28974W        W45821  10.953   4.677  11.371  0.1717 -0.1977 -0.2010
28975W        W45822  18.561   0.285  11.228 -0.2808 -0.3508 -0.1117
28976W        W45823  12.458   4.531   0.985 -0.0743  0.0157  0.3020
28977W        W45824  10.960   1.134   4.414  0.0023 -0.0767 -0.0323
28978W        W45825   9.648  12.628  12.167 -0.0110  0.2651 -0.0916
28979W        W45826  13.186   2.694   0.424  0.4610  0.0515 -0.2337
28980W        W45827  18.054   8.275  12.767 -0.1520  0.0158 -0.1581
28981W        W45828  10.590   8.273  14.962 -0.0493 -0.1826  0.2313
28982W        W45829  12.482  13.371  11.910  0.4326 -0.1148  0.0387
28983W        W45830   8.341   4.983  14.530 -0.2266  0.2613  0.0477
28984W        W45831   1.986   0.689   1.485 -0.3787  0.2650 -0.2295
28985W        W45832   7.695   5.273   0.996 -0.1021 -0.1557  0.0145
28986W        W45833   9.669   1.448  12.037  0.0362 -0.0329 -0.0224
28987W        W45834   5.624  12.466  13.505 -0.2090 -0.0553  0.2672
28988W        W45835  11.464  10.867   1.832 -0.1255  0.1116 -0.2661
28989W        W45836   5.116   4.372   1.595  0.0563 -0.0894 -0.0728
28990W        W45837   6.825   2.708   3.247 -0.1795 -0.3857 -0.1990
28991W        W45838   6.191   6.848   2.586  0.0929 -0.1627 -0.0910
28992W        W45839  18.801  10.434  12.272  0.0595  0.0097 -0.0187
28993W        W45840   9.710  16.618  13.623  0.1258  0.1831 -0.0164
28994W        W45841  11.625   1.709  12.373 -0.2835  0.0941 -0.0542
28995W        W45842  17.849   0.163  12.823  0.1975 -0.2180  0.0635
28996W        W45843   9.715   9.477   0.265 -0.0429 -0.3190 -0.2083
28997W        W45844  10.695   3.046   3.167 -0.0029  0.1827 -0.0728
28998W        W45845   0.374  14.883   4.699  0.0801 -0.1772 -0.0803
28999W        W45846   3.255  15.371  13.203  0.0273 -0.2214  0.1492
29000W        W45847   2.939   7.971  11.843 -0.0152  0.2291  0.0017
29001W        W45848   4.324  16.473  13.486  0.0304  0.1706 -0.2002
29002W        W45849   9.827  15.873   1.556 -0.3329  0.0185  0.2732
29003W        W45850   6.026   8.640   2.784 -0.2282 -0.2843 -0.1057
29004W        W45851   9.512  14.282   4.289 -0.1176 -0.1931 -0.2953
29005W        W45852   8.517   1.583   3.756 -0.3593 -0.1646  0.1404
29006W        W45853  13.113   6.343   5.004  0.1147 -0.1958 -0.3201
29007W        W45854   5.204  18.220   3.102  0.1291  0.1471 -0.2833
29008W        W45855   9.039   4.213   3.685 -0.2697  0.1835  0.0349
29009W        W45856   1.832   4.506   0.829 -0.1081  0.3421 -0.1064
29010W        W45857  12.202   6.786   1.970  0.0323 -0.3319  0.0590
29011W        W45858   6.165  13.969  13.981  0.1053  0.0504  0.0382
29012W        W45859   5.741   5.737   2.916  0.0634 -0.1871  0.0592
29013W        W45860   1.161  17.921   0.929 -0.1964 -0.4866 -0.1011
29014W        W45861   5.769  14.981  14.019  0.1763 -0.1816 -0.0504
29015W        W45862   5.556   1.894  15.759 -0.0336  0.0430  0.1482
29016W        W45863   5.402   8.622  12.385  0.1878  0.0074  0.1432
29017W        W45864  11.594   2.607   3.078 -0.0934 -0.1671 -0.0395
29018W        W45865  12.885   8.232  12.357 -0.0684 -0.1122  0.1218
29019W        W45866  11.640   1.237  11.048 -0.1526 -0.1806  0.2087
29020W        W45867   6.464   1.153  14.207 -0.0572  0.1625  0.0715
29021W        W45868  10.974   9.342   5.113 -0.3510  0.1054  0.1518
29022W        W45869  17.587   5.708   1.040 -0.0131 -0.2015 -0.0056
29023W        W45870  17.939  14.137   5.175  0.3143  0.1019  0.1333
29024W        W45871  12.422  12.471  12.548  0.2784  0.1959 -0.2918
29025W        W45872   4.966   4.609   0.017  0.2272  0.1985 -0.1960
29026W        W45873   5.338   4.082  14.741 -0.1032  0.0889 -0.1940
29027W        W45874  15.231  18.136  15.101 -0.1956 -0.1529  0.1837
29028W        W45875   2.843   9.839   5.032  0.1098 -0.1644  0.0372
29029W        W45876   6.322  11.375   3.485 -0.0903 -0.0391  0.0994
29030W        W45877  12.799  15.361  15.326 -0.3725  0.2390  0.0005
29031W        W45878  13.665  14.012  14.258  0.0717  0.1811 -0.0796
29032W        W45879  12.954   7.154   1.629 -0.0949  0.2281  0.0259
29033W        W45880   2.175   4.311  15.566  0.0860 -0.1214  0.0971
29034W        W45881   0.784  12.894   2.537 -0.0528 -0.2604 -0.1760
29035W        W45882  13.227   3.305   3.364  0.0328 -0.0910  0.3225
29036W        W45883   1.928  14.883   3.010 -0.0957 -0.1041  0.3635
29037W        W45884  13.155  12.266   1.009 -0.1434 -0.0955  0.4201
29038W        W45885  13.835   3.332   1.392 -0.2791 -0.1950 -0.2935
29039W        W45886   4.849  15.409   4.490 -0.1298 -0.0039 -0.2456
29040W        W45887   1.366   2.049  11.975  0.1857 -0.0956  0.0673
29041W        W45888   2.178  10.753  12.888  0.1648 -0.2310  0.2649
29042W        W45889  18.696  13.418   3.532 -0.3668  0.0167  0.0219
29043W        W45890  12.668  18.429  12.594 -0.1106 -0.0160  0.1376
29044W        W45891  14.034  10.386   2.748 -0.1005  0.5222 -0.1766
29045W        W45892  16.983  15.179   1.454  0.0672 -0.3530  0.0013
29046W        W45893   8.393  13.650  14.204  0.1516  0.0040 -0.0257
29047W        W45894  12.888   2.822  13.861 -0.4780 -0.0374 -0.0726
29048W        W45895  16.330   1.587   0.247  0.4322 -0.0943  0.1313
29049W        W45896   9.405   9.063  15.048 -0.1284  0.2405 -0.0676
29050W        W45897  15.456  11.037   2.586 -0.2834  0.2344  0.2978
29051W        W45898  12.057   1.073  14.341  0.0333 -0.0146  0.1020
29052W        W45899  12.588   0.236   1.294  0.0016 -0.1007  0.4017
29053W        W45900  13.182   1.624  11.076 -0.0091  0.3804 -0.0363
29054W        W45901   4.365   8.051  11.751 -0.2118 -0.0885  0.1458
29055W        W45902  14.013  12.926   5.403  0.4057  0.1527 -0.1876
29056W        W45903  11.459  13.344   3.192  0.1824 -0.0759  0.1479
29057W        W45904  13.984   6.352  15.027 -0.1602  0.0338  0.2677
29058W        W45905   5.945   9.190   5.470  0.0810 -0.0232  0.2278
29059W        W45906   1.418   6.537   5.057  0.4433 -0.1211 -0.5235
29060W        W45907   3.303  14.306   2.549  0.1310 -0.3145  0.4653
29061W        W45908  15.340   0.302  13.308 -0.1946  0.0549 -0.0374
29062W        W45909   9.917  14.923   1.689  0.0996  0.1451  0.1289
29063W        W45910  17.946  10.852   5.062 -0.0536  0.0386 -0.1860
29064W        W45911  16.558   9.408   5.425  0.0737 -0.2729  0.0110
29065W        W45912  12.393   0.557   0.433  0.1938  0.0627 -0.0434
29066W        W45913  15.185   8.311  13.597  0.3156  0.1126  0.2265
29067W        W45914  11.754  12.818  12.076 -0.1851  0.0523 -0.3306
29068W        W45915   2.929   6.858   1.021 -0.2149  0.2499  0.1096
29069W        W45916   3.244  14.295   5.127 -0.1393 -0.0179 -0.2472
29070W        W45917   2.604   3.290  13.446  0.2333 -0.0932 -0.3161
29071W        W45918   1.487   6.064   3.502 -0.1326  0.0559  0.2740
29072W        W45919  11.827  17.103  14.897 -0.0296 -0.2238  0.0792
29073W        W45920   2.245  18.492   3.144  0.2033 -0.2683  0.3350
29074W        W45921   4.090   0.092   2.964  0.0399 -0.3202 -0.1639
29075W        W45922  16.413   5.971  12.747 -0.0659  0.0681 -0.3283
29076W        W45923   3.911   8.723  14.481 -0.0382 -0.0171 -0.0085
29077W        W45924  17.887   7.155  11.040 -0.2023 -0.1069  0.1755
29078W        W45925   1.892   7.159   4.614 -0.1795  0.0305  0.0068
29079W        W45926  13.782  16.293   5.566 -0.1247  0.2874  0.0649
29080W        W45927  18.661   7.549   1.142 -0.0123 -0.0367  0.0729
29081W        W45928  17.647  17.024   0.264 -0.0984 -0.1017  0.0553
29082W        W45929  17.644  15.809  11.037 -0.2313  0.3974  0.2906
29083W        W45930  11.337   9.062  13.900 -0.2447 -0.1751  0.0236
29084W        W45931  15.331   0.674  13.988 -0.0793 -0.1038  0.1951
29085W        W45932   0.191   8.981   2.790 -0.1631 -0.3573  0.1110
29086W        W45933   6.367   0.359   3.925 -0.0537 -0.2132  0.1143
29087W        W45934   7.096  17.922   2.198 -0.1701 -0.0174  0.1020
29088W        W45935   0.111   3.975  14.715  0.1801  0.0660 -0.1945
29089W        W45936  12.581  10.636   1.201 -0.0109  0.6150  0.0082
29090W        W45937   4.489   6.171   3.504  0.1300  0.0618 -0.1493
29091W        W45938   6.777   6.939   2.991  0.2633 -0.1191  0.1013
29092W        W45939  16.663  18.431  12.338  0.0907  0.0832  0.1883
29093W        W45940   9.275   3.432   1.884 -0.0601 -0.1134 -0.1512
29094W        W45941   4.957  11.444  13.923 -0.2234 -0.2399 -0.1281
29095W        W45942   1.569   6.456   1.808 -0.0075  0.1749 -0.3094
29096W        W45943  18.463   0.614   1.795  0.1068  0.1620 -0.4507
29097W        W45944   6.242   9.903   2.908 -0.2827 -0.0670  0.1682
29098W        W45945  15.387  15.315   3.429  0.1933  0.3948 -0.4283
29099W        W45946   9.792   6.350   4.239 -0.3147 -0.1348  0.0837
29100W        W45947   3.940   5.773  12.875  0.0680  0.3326  0.1152
29101W        W45948  17.135   3.876   4.007  0.1516 -0.0517 -0.2608
29102W        W45949   9.273   5.633  15.612  0.3460  0.1086 -0.1537
29103W        W45950  16.455   5.135  12.533 -0.1502  0.3433  0.0120
29104W        W45951  14.005   6.670   0.083 -0.0697  0.1688 -0.1118
29105W        W45952   9.429   3.895  13.810  0.1030  0.1911 -0.1145
29106W        W45953   8.014   0.540  14.839 -0.0404  0.1867 -0.2708
29107W        W45954  12.761   4.727  12.728  0.0873 -0.3139  0.0239
29108W        W45955   8.563   7.513  12.581  0.4248 -0.0403  0.1006
29109W        W45956   2.681  12.439   0.372  0.2299  0.1214 -0.1103
29110W        W45957  11.865  15.492   3.655  0.1031 -0.1870  0.0266
29111W        W45958  15.938  14.197  11.642  0.0171 -0.2497  0.1347
29112W        W45959   7.029  18.268  10.304  0.2020  0.1005  0.1975
29113W        W45960  17.380   9.685   2.656 -0.1164 -0.0264  0.0808
29114W        W45961   6.505  11.962   2.873 -0.0074 -0.1191 -0.0612
29115W        W45962   4.438  12.244  15.416  0.1499  0.1609  0.0639
29116W        W45963   6.566   2.207   0.378  0.0055  0.1732 -0.2191
29117W        W45964  15.455   6.842  12.123 -0.0615 -0.1481  0.1913
29118W        W45965  14.656   4.076  11.403  0.1097  0.3066 -0.2840
29119W        W45966  12.350  18.297  11.771  0.1643  0.0943  0.2164
29120W        W45967   2.691  16.480   2.526 -0.0404  0.2024 -0.0405
29121W        W45968  14.195   9.265  13.284  0.1411 -0.0219  0.0689
29122W        W45969   3.647   2.844   1.884  0.0766  0.1327 -0.2268
29123W        W45970  10.841  11.626   4.661 -0.0534  0.2483 -0.0596
29124W        W45971   0.406   2.108   0.939 -0.0964  0.0705 -0.1886
29125W        W45972   8.180   7.084   2.442 -0.2051 -0.3814 -0.0244
29126W        W45973  16.806   3.110   4.856  0.3658  0.0406  0.1553
29127W        W45974   0.780  11.897   1.373 -0.4421  0.0428 -0.3061
29128W        W45975  14.343   4.728   4.055  0.0610 -0.2096 -0.0336
29129W        W45976  14.620   6.487  15.709  0.1422  0.1844  0.3885
29130W        W45977  18.301   2.683   4.705 -0.1736  0.5750  0.1941
29131W        W45978  12.998  13.155   1.769  0.1180 -0.0191 -0.1952
29132W        W45979   6.244   5.166  11.416 -0.0367  0.1033 -0.1624
29133W        W45980  13.965   1.284   1.346  0.0323  0.2014 -0.3275
29134W        W45981   7.731   9.572  11.354 -0.0314  0.3546  0.3645
29135W        W45982  16.395   7.049   4.052  0.1671  0.3765 -0.1070
29136W        W45983   2.972   4.411  14.160  0.0205 -0.0783  0.3135
29137W        W45984   2.208  16.819   4.552 -0.1944  0.2651  0.0279
29138W        W45985  17.818  13.034  14.721 -0.4205  0.1370  0.2182
29139W        W45986   6.459   3.913  11.795 -0.4836 -0.1809 -0.2033
29140W        W45987   0.937  10.498   1.582 -0.3570  0.0415  0.3717
29141W        W45988   1.710   3.176   1.203  0.0110  0.2035  0.1477
29142W        W45989   1.069  13.066   3.353  0.1010 -0.0544  0.3692
29143W        W45990  16.951   8.016   2.390  0.0668  0.0778  0.0556
29144W        W45991   0.956   1.894   3.188  0.1793 -0.0621  0.2616
29145W        W45992  13.329   8.481  15.624  0.2018 -0.0328  0.1010
29146W        W45993   8.520   2.583   2.952 -0.0437  0.4242 -0.0439
29147W        W45994  11.789   1.059  15.726 -0.2394 -0.1087 -0.1177
29148W        W45995  17.986   0.786  13.890  0.0389 -0.4667 -0.1118
29149W        W45996  13.132  18.629   3.845  0.0115 -0.3468  0.0494
29150W        W45997   6.037  14.944   4.387  0.2539  0.1396  0.2158
29151W        W45998  11.651   0.913   1.967 -0.1870 -0.0081  0.0416
29152W        W45999   7.557   8.244  13.130 -0.1477 -0.2141  0.0185
29153W        W46000   3.138   4.333   4.389  0.4179  0.2119  0.0870
29154W        W46001   7.831  10.971   0.169  0.0053 -0.3727 -0.2797
29155W        W46002  14.794   8.112   2.461 -0.2754 -0.0262  0.0648
29156W        W46003   1.325   1.976  10.957  0.4674  0.0375 -0.2504
29157W        W46004  17.699   4.031   2.789 -0.0017  0.2529 -0.0114
29158W        W46005   0.104  11.935   0.647  0.0880 -0.2141 -0.1562
29159W        W46006  17.665   5.701  15.768 -0.1513  0.0553  0.1775
29160W        W46007  15.613   0.460  12.308  0.1401 -0.3556 -0.1306
29161W        W46008  12.726   2.169  14.849  0.2517 -0.0138  0.0163
29162W        W46009  14.577   9.135  14.327  0.6395 -0.1564 -0.2923
29163W        W46010   5.469   7.032   3.710 -0.2236  0.1894 -0.1006
29164W        W46011   8.475   8.114   9.777  0.0364  0.0173 -0.0693
29165W        W46012  11.215   7.079  10.803 -0.1984 -0.0532 -0.0075
29166W        W46013   5.096   3.251   2.889 -0.1481 -0.0022  0.0953
29167W        W46014  13.610  15.559  11.655  0.0171  0.2667 -0.0173
29168W        W46015  16.901  11.225  14.259  0.2909 -0.1852  0.2901
29169W        W46016   5.327  12.406  15.101  0.1067 -0.0233  0.2280
29170W        W46017   6.152   4.265  11.537  0.0491  0.0040 -0.1022
29171W        W46018   5.367  15.360   0.077 -0.2167  0.1056 -0.2163
29172W        W46019   5.519   5.453  15.090 -0.1317 -0.3473 -0.0133
29173W        W46020   3.216  11.754  14.082 -0.2215  0.0050  0.3394
29174W        W46021   1.748   4.358  11.995 -0.0747 -0.2257 -0.1610
29175W        W46022  15.336  18.215   0.220 -0.0564 -0.0977 -0.1129
29176W        W46023   3.794  12.839   0.466 -0.0336  0.1089  0.2332
29177W        W46024   2.161  16.950   1.274  0.0414  0.0721 -0.1278
29178W        W46025   3.925   5.002   3.040 -0.1016 -0.0897 -0.1238
29179W        W46026  17.619   2.252   3.242 -0.2415 -0.1381  0.0244
29180W        W46027   9.452  12.694   3.383 -0.1194 -0.2249 -0.1024
29181W        W46028   7.248   7.773  14.422 -0.3174 -0.0715  0.0458
29182W        W46029  15.724  14.906  15.514  0.0026 -0.0362 -0.0540
29183W        W46030   4.060   2.889  15.458 -0.0383  0.1847  0.3637
29184W        W46031   8.826   7.881  11.617 -0.0624 -0.0449  0.2672
29185W        W46032   7.273  11.695  13.445  0.0558  0.2367 -0.3358
29186W        W46033   9.480   9.474   3.323  0.3546 -0.1423  0.1436
29187W        W46034   4.567   2.659   1.148  0.1189 -0.0208  0.0226
29188W        W46035  17.223  15.031   3.064 -0.0816 -0.0536  0.0509
29189W        W46036  15.008  17.062  12.124  0.1944 -0.0414 -0.1739
29190W        W46037   6.256   0.883  11.852 -0.0033 -0.1658  0.0449
29191W        W46038  14.681   5.901  15.685  0.0481  0.1093 -0.0868
29192W        W46039   2.382   4.936  12.359 -0.0593 -0.0621 -0.2491
29193W        W46040  18.083  17.829  11.305  0.0748 -0.0454  0.0046
29194W        W46041  16.150   4.511  15.324  0.1959 -0.2387 -0.0934
29195W        W46042   5.352   1.713   0.446  0.1323  0.2833  0.0291
29196W        W46043   3.903   9.685  13.909  0.1687  0.3134 -0.1030
29197W        W46044   0.571   7.886   0.575  0.1153 -0.0045 -0.0191
29198W        W46045   8.095   6.948   1.573  0.0806  0.1378  0.0904
29199W        W46046  15.871  15.134   0.114 -0.1760 -0.0267 -0.0493
29200W        W46047  16.299   5.997   1.599  0.2087  0.1054  0.0997
29201W        W46048   2.860   3.697   4.838  0.1472  0.0158 -0.1774
29202W        W46049  12.034  11.038  15.435 -0.6276 -0.3412  0.1499
29203W        W46050   2.926   7.964   3.151 -0.0806 -0.1750 -0.0104
29204W        W46051  16.100  10.850   0.122  0.1201 -0.0760  0.0720
29205W        W46052   4.919   4.990  11.306  0.2687 -0.0538  0.2921
29206W        W46053   9.324  11.860   5.466  0.1446  0.0016  0.0350
29207W        W46054   2.843   4.570   3.771  0.1216 -0.0744  0.0022
29208W        W46055   7.459  16.460   1.843  0.3000 -0.1374 -0.0628
29209W        W46056  16.802   5.120  13.323  0.0182  0.2961  0.2040
29210W        W46057   1.344  10.579   2.938  0.1678 -0.1180 -0.0004
29211W        W46058   0.985   6.362   2.205  0.0380  0.0233  0.1308
29212W        W46059   5.649  14.782  11.877  0.0080  0.1026  0.0321
29213W        W46060   6.877  15.342  15.203  0.2711  0.1406  0.2760
29214W        W46061  11.316  10.250   0.637 -0.0410  0.2587 -0.2557
29215W        W46062   1.751  15.456  11.170 -0.3988 -0.0841 -0.0564
29216W        W46063   3.209   2.312   1.074 -0.4261  0.0309 -0.0255
29217W        W46064  16.788   2.900  13.560  0.1973 -0.3138 -0.2287
29218W        W46065   0.624  15.570  11.884 -0.1506 -0.1356  0.0047
29219W        W46066  13.070   3.260   2.775 -0.1993  0.1993 -0.0636
29220W        W46067   2.471   6.304   0.009 -0.4180  0.0483 -0.1494
29221W        W46068   2.171  16.841  12.598 -0.2273 -0.0114 -0.0618
29222W        W46069   7.440  10.021  11.133 -0.1779  0.0489  0.0574
29223W        W46070   8.913   6.734   1.080  0.3926 -0.0367 -0.1772
29224W        W46071  17.276   2.715  11.866  0.1334  0.4345  0.0631
29225W        W46072  10.421   7.402  11.813 -0.4124 -0.3734  0.2437
29226W        W46073  10.007   2.220  12.564 -0.3031 -0.1940 -0.0721
29227W        W46074  15.629   8.756  14.847  0.0579  0.1089  0.0259
29228W        W46075  18.094  17.335   1.124  0.0478 -0.0013 -0.0225
29229W        W46076   8.496  12.053  10.426  0.0839 -0.0635  0.0122
29230W        W46077   5.795  14.101   0.959 -0.0972 -0.1484  0.0103
29231W        W46078  11.294   9.857  10.972 -0.4392  0.4358 -0.2306
29232W        W46079   6.801   5.573   4.032  0.3280  0.2146 -0.2991
29233W        W46080   2.098  13.693   0.999 -0.0700  0.1203  0.2706
29234W        W46081  12.167  14.060  10.732  0.1082  0.3113 -0.0296
29235W        W46082   0.138  10.812  11.410 -0.0294 -0.4930 -0.2095
29236W        W46083   2.788  16.685  11.931  0.1845  0.5160 -0.2836
29237W        W46084   1.622  14.300  15.055  0.1732  0.1078 -0.1537
29238W        W46085  18.380  16.535   4.424  0.1693  0.2038  0.2592
29239W        W46086  10.995  12.400  12.482 -0.2214  0.1381  0.0288
29240W        W46087   1.192   1.060  11.916  0.2394  0.0531  0.1202
29241W        W46088   9.347  17.279  14.810 -0.0011 -0.0427  0.0378
29242W        W46089   5.719  11.633   1.050  0.1564  0.0982 -0.1228
29243W        W46090   7.807   1.799  14.967 -0.3731  0.1516 -0.1288
29244W        W46091  14.509  17.154   3.082 -0.1087  0.0005  0.0825
29245W        W46092   2.362   6.567  12.843 -0.4309 -0.1319 -0.0842
29246W        W46093   7.650  13.512  12.022 -0.1216  0.2520 -0.0257
29247W        W46094  14.282  18.567  11.723  0.0707  0.0695  0.2150
29248W        W46095   5.703   6.459   0.799  0.2267  0.0390  0.2325
29249W        W46096   6.367  14.131  14.976  0.2865 -0.1784  0.1556
29250W        W46097   1.121  16.024  13.053 -0.1727  0.0202  0.0549
29251W        W46098  12.744   7.195  14.789 -0.3179 -0.2339 -0.1327
29252W        W46099   2.176  12.738   3.836  0.0031 -0.2183  0.1536
29253W        W46100   1.519  16.787   0.193  0.1153  0.1383 -0.3018
29254W        W46101   1.639   3.004  13.125  0.2552 -0.0050 -0.0754
29255W        W46102  14.309   7.023  11.850  0.3002  0.0880 -0.2409
29256W        W46103  18.066   6.696   0.705  0.2067  0.0994  0.1677
29257W        W46104   5.854  11.877  10.953 -0.0843 -0.0443  0.2451
29258W        W46105   1.345  12.706  11.013 -0.1895  0.1364  0.2405
29259W        W46106  14.922  14.181  13.766  0.0144  0.1448 -0.5862
29260W        W46107   7.593   9.915   0.540  0.1166  0.1165 -0.2746
29261W        W46108   8.314  15.826  11.525  0.1536 -0.1103  0.1630
29262W        W46109  12.586   0.376   5.578  0.0712  0.1657  0.0693
29263W        W46110   1.826   2.118   0.588 -0.0562 -0.2933 -0.1215
29264W        W46111  10.694   7.347   3.285  0.0083 -0.1728 -0.1695
29265W        W46112   8.958  14.233   0.111 -0.0063  0.1503  0.0750
29266W        W46113  18.095   6.965   5.613 -0.2766 -0.1864 -0.6443
29267W        W46114  12.047   3.583   3.890  0.0359  0.1827  0.0220
29268W        W46115  16.458  17.620   0.872  0.4120 -0.0602  0.2377
29269W        W46116   8.017   8.235  13.836 -0.0458  0.0203 -0.0232
29270W        W46117   6.059  12.400   0.493 -0.2812 -0.3446  0.1819
29271W        W46118  15.513   7.296   0.131 -0.1469 -0.0633  0.0850
29272W        W46119   3.203  12.471   4.546 -0.1569 -0.0315  0.1950
29273W        W46120   2.515   6.827  11.234  0.2973 -0.1195 -0.1887
29274W        W46121  13.930  11.259   3.619 -0.3101  0.0136  0.0490
29275W        W46122  13.107  11.173   4.612 -0.0818 -0.3471  0.1539
29276W        W46123  11.317  16.236   4.319 -0.1299  0.0562 -0.0331
29277W        W46124  17.167   2.530  14.316 -0.0412 -0.1627  0.2677
29278W        W46125   5.169  17.267  12.560  0.2095  0.1646 -0.2963
29279W        W46126   8.789  10.376  14.624 -0.0633 -0.1938  0.1064
29280W        W46127  13.003  13.923   4.886 -0.2488 -0.0481 -0.0874
29281W        W46128   3.812  17.733  11.889 -0.0236 -0.2530  0.0795
29282W        W46129  10.815   9.522   3.670  0.2416  0.2032 -0.2319
29283W        W46130   9.402   7.794  13.284  0.1537  0.1598 -0.2270
29284W        W46131  14.492  12.978  13.004 -0.0027  0.0627  0.1601
29285W        W46132  13.830   0.104   2.908  0.3190 -0.0247  0.0058
29286W        W46133   4.539  18.022   0.444 -0.0336 -0.0373  0.2495
29287W        W46134   0.567  11.360   0.672  0.0182 -0.0085  0.0340
29288W        W46135  12.719  17.483  12.279  0.0120 -0.0005  0.2303
29289W        W46136   3.374   6.089   0.054  0.1295 -0.0576 -0.0189
29290W        W46137  14.061  18.752  12.656 -0.0499 -0.0462  0.0138
29291W        W46138  15.579  10.340   0.968  0.1793  0.2396  0.0742
29292W        W46139   8.835   5.027   2.155  0.1094  0.0580 -0.1241
29293W        W46140   8.704  10.457  11.292  0.4020 -0.4317  0.1250
29294W        W46141   8.796  13.722  11.059  0.0886  0.2445 -0.0895
29295W        W46142   2.219   5.140  11.884 -0.4020 -0.1909  0.0208
29296W        W46143   7.773  12.280  12.788 -0.1390  0.0469  0.1827
29297W        W46144   1.100  16.327  13.487  0.1303 -0.0225 -0.1283
29298W        W46145   0.216  13.892   5.615 -0.0491  0.0975 -0.2812
29299W        W46146  16.253   8.766  11.834  0.0108 -0.3289  0.1454
29300W        W46147   7.966  18.156   0.684  0.2495  0.1001 -0.0316
29301W        W46148  18.851  13.873  11.193  0.0600 -0.0606  0.2189
29302W        W46149   0.714   3.970   5.062 -0.0494  0.0418  0.3072
29303W        W46150  18.471  13.067   2.767  0.1098  0.1860 -0.0497
29304W        W46151  10.532   2.157   2.192 -0.1164 -0.2583  0.1055
29305W        W46152   0.749  11.608   6.049 -0.2190 -0.1481  0.2218
29306W        W46153  13.913   4.986  13.978  0.0845  0.1415 -0.0401
29307W        W46154  15.072  15.022   2.182 -0.0551  0.1288  0.3001
29308W        W46155  13.536  18.667   5.994  0.1439  0.1355  0.1117
29309W        W46156   4.309   7.653  14.842 -0.1252  0.4496 -0.1691
29310W        W46157   9.823   1.602   1.349  0.0079  0.0075 -0.2721
29311W        W46158   2.334   2.578   3.654  0.0129  0.2382  0.1428
29312W        W46159  11.477   1.674   0.639 -0.3540  0.0730 -0.1442
29313W        W46160   8.566  13.963  10.670  0.1731  0.0094  0.1867
29314W        W46161  15.435  17.144  10.547  0.0385  0.1242 -0.0454
29315W        W46162   5.310   9.803  14.148 -0.1753 -0.0327  0.1484
29316W        W46163   6.778   1.403   2.773  0.0499 -0.0101  0.1543
29317W        W46164   5.919   2.039   0.902 -0.1505  0.3389 -0.0247
29318W        W46165   8.836   8.278   3.159  0.1007 -0.1597  0.1009
29319W        W46166   8.966   0.853  14.570  0.3406  0.1883 -0.0368
29320W        W46167   5.781  16.201  13.758  0.1447  0.1040 -0.1719
29321W        W46168  15.282   8.888  11.226 -0.1269  0.1020 -0.0002
29322W        W46169  11.397   7.684   2.578 -0.3119 -0.1948  0.1811
29323W        W46170   4.764   1.098   1.661 -0.0716 -0.1903  0.1800
29324W        W46171   2.910   6.303  12.145 -0.2665 -0.0331 -0.1281
29325W        W46172   8.160   4.235   3.009  0.0596  0.3840  0.1443
29326W        W46173   3.071  17.426   5.409 -0.2862  0.1951 -0.2362
29327W        W46174   8.605  13.419  13.440 -0.0179 -0.2780 -0.1585
29328W        W46175   6.531   2.248   5.091  0.3126 -0.4285 -0.1588
29329W        W46176  17.639   7.101  12.572 -0.1998  0.1729  0.0940
29330W        W46177  14.860   0.482  12.675  0.2761  0.0371  0.0064
29331W        W46178   7.692  10.594  15.304 -0.0807  0.1459 -0.0166
29332W        W46179  11.831  15.474  11.143 -0.1109 -0.4631  0.2978
29333W        W46180  15.829  18.385  12.624  0.0491 -0.0521  0.1301
29334W        W46181   2.207  17.898   5.268 -0.3063 -0.1463 -0.1524
29335W        W46182   5.238  12.751   3.839 -0.1279 -0.0766  0.2105
29336W        W46183  11.724   5.131   3.274 -0.2155 -0.2014  0.0368
29337W        W46184  17.913  17.825  12.246  0.2463  0.1419 -0.0337
29338W        W46185   3.149  15.210  15.209 -0.0124 -0.1425  0.0130
29339W        W46186   5.877  15.899   3.582 -0.0018  0.1608 -0.0373
29340W        W46187  13.901  13.818   5.727 -0.3343  0.0664 -0.0895
29341W        W46188  15.742   6.067   5.453  0.2131 -0.0309  0.1290
29342W        W46189   1.688   7.949   1.266  0.2283  0.0713  0.1997
29343W        W46190  16.600  13.076   1.978 -0.1043 -0.0071  0.0110
29344W        W46191   1.123  17.200  13.822 -0.1734  0.0673  0.2772
29345W        W46192  16.899  18.651  12.697  0.2385  0.5071  0.0764
29346W        W46193   0.090   0.691  15.192  0.2671 -0.2536  0.1769
29347W        W46194  12.123  18.755  11.933  0.4003  0.1686  0.3966
29348W        W46195   2.611  14.951   1.953 -0.0384 -0.0303  0.3703
29349W        W46196   9.402   5.336  12.530 -0.1023  0.1445  0.1309
29350W        W46197   5.010  14.414  11.486  0.0849  0.2522  0.1448
29351W        W46198  18.349   5.769   2.186  0.2612 -0.1049 -0.0024
29352W        W46199   6.969   4.753   2.803 -0.0484 -0.1463  0.2002
29353W        W46200  13.069  13.060   1.273  0.2273 -0.1546 -0.2929
29354W        W46201  11.199  18.280   3.150 -0.1926  0.0870 -0.1180
29355W        W46202  13.946  12.899  12.115 -0.0597 -0.1065 -0.3438
29356W        W46203  18.407  11.477  12.616 -0.1672 -0.1290  0.0531
29357W        W46204  17.489  11.480   1.129  0.1132  0.1915  0.0283
29358W        W46205  13.577   3.295  12.433 -0.3427 -0.4166  0.1943
29359W        W46206  18.551  13.549  14.713  0.0748  0.0888 -0.0471
29360W        W46207  11.729   1.416  11.495 -0.0110  0.1433  0.2470
29361W        W46208   4.194  11.363  13.894  0.0320 -0.0975  0.4399
29362W        W46209   9.535   3.043   2.726  0.1109 -0.0845  0.0287
29363W        W46210   2.701  12.846   4.000 -0.0877  0.1506  0.1079
29364W        W46211  14.680  14.671  13.686 -0.2252  0.1589  0.0613
29365W        W46212   7.903   8.760   2.041 -0.0578 -0.2758 -0.0057
29366W        W46213  10.823   0.569   4.166 -0.2575  0.1284  0.2119
29367W        W46214  15.753   5.603  13.860  0.2702  0.3174 -0.0471
29368W        W46215  11.141   9.072   4.042 -0.1024  0.2076  0.2859
29369W        W46216   5.824  14.362  11.660 -0.2164  0.1125 -0.1237
29370W        W46217   8.001  16.444  10.790  0.0756 -0.1234  0.0898
29371W        W46218   2.527   8.368   0.975 -0.0818  0.0725 -0.3927
29372W        W46219  11.157  14.174   5.284  0.0661  0.0900  0.1263
29373W        W46220  17.131  13.775  15.757  0.0048  0.0506 -0.2217
29374W        W46221   1.347  13.109  12.236 -0.2244 -0.3602 -0.4702
29375W        W46222  10.614   6.133  14.050  0.3147  0.2048 -0.2751
29376W        W46223   0.275   2.981  13.916 -0.4055  0.2126 -0.0642
29377W        W46224   3.987  15.462  10.516 -0.0127  0.1197  0.1819
29378W        W46225  18.736   9.944   4.428  0.0634 -0.2328  0.1877
29379W        W46226  17.710   2.326   2.376  0.1626 -0.5236  0.0619
29380W        W46227   2.794  16.409  14.805  0.1418 -0.2778  0.2542
29381W        W46228   4.909   2.244  10.892 -0.2900  0.0244  0.1450
29382W        W46229   4.677   7.791   2.977  0.2138  0.1205 -0.1314
29383W        W46230  13.146  14.289   2.406  0.0431  0.1512  0.0656
29384W        W46231  16.882  14.354  11.340 -0.0803 -0.2522  0.2648
29385W        W46232   8.719   6.148   4.510  0.4151  0.0698 -0.0316
29386W        W46233   9.967   6.235  13.130  0.3224 -0.2805  0.1455
29387W        W46234   5.829  12.976  15.486  0.0695  0.1782 -0.0449
29388W        W46235  13.753  10.743  10.865  0.0802  0.3819 -0.0807
29389W        W46236   9.377  10.757  15.176  0.1672 -0.1209 -0.0733
29390W        W46237  14.271   2.193  12.596  0.1736  0.3502 -0.0150
29391W        W46238  11.290  14.801   2.614  0.2015  0.1139 -0.1277
29392W        W46239   4.225  11.261  13.392 -0.0669 -0.0199  0.2002
29393W        W46240   5.919  14.837  11.503 -0.0809  0.2690  0.0672
29394W        W46241   7.157   4.227   1.085 -0.0071 -0.0050  0.0489
29395W        W46242   0.315   5.801  12.681 -0.2400 -0.3704  0.0306
29396W        W46243  17.507  16.371   1.066 -0.2900  0.0363 -0.0693
29397W        W46244   4.992  10.466  13.540  0.0675 -0.4131  0.2446
29398W        W46245  16.932  18.080   6.190 -0.0767 -0.3171  0.3342
29399W        W46246  13.721   6.423   0.879 -0.2893  0.2668  0.2269
29400W        W46247   9.582  13.475  14.163  0.1145  0.1378 -0.0191
29401W        W46248  17.295  15.360   2.036 -0.4327 -0.0551  0.3449
29402W        W46249   3.568  16.147  13.994  0.1330 -0.0484  0.0356
29403W        W46250  13.522   1.101   3.629  0.0687 -0.0598  0.0791
29404W        W46251   3.901   8.812   3.819 -0.0191  0.0590 -0.1866
29405W        W46252  13.231  18.037  10.703 -0.1245  0.4742  0.1399
29406W        W46253  13.794   5.787   3.358  0.2423 -0.0695  0.3055
29407W        W46254  13.327  14.041  11.687  0.2048  0.0202 -0.1354
29408W        W46255  10.305  18.674   0.334 -0.1009  0.0505 -0.1148
29409W        W46256   7.679   4.047   2.690  0.3344 -0.1623 -0.0903
29410W        W46257  13.092  18.132  11.301 -0.0607  0.1096  0.2251
29411W        W46258   4.114   5.541   6.108 -0.2983  0.1952 -0.0443
29412W        W46259  18.207   8.036  13.225 -0.1189  0.0540 -0.0038
29413W        W46260  12.919  12.726  13.180 -0.0478  0.2795 -0.0309
29414W        W46261   8.432  10.321  12.553  0.2004  0.0803  0.0443
29415W        W46262  12.028   2.061   4.202 -0.0405 -0.3217  0.1118
29416W        W46263  12.517  10.105  14.344 -0.2365  0.1922  0.1427
29417W        W46264  18.805   4.885  11.712  0.0901 -0.1024  0.4065
29418W        W46265  18.479   4.552   2.365  0.4428  0.0073 -0.0527
29419W        W46266   5.732  13.460  15.179 -0.1442  0.0663  0.1072
29420W        W46267  10.125  10.517   2.482  0.0587  0.3646  0.0156
29421W        W46268   1.096   8.506   3.565 -0.2059  0.0598 -0.0199
29422W        W46269   0.525  15.306  15.683 -0.0825  0.3022  0.3780
29423W        W46270  18.523   6.130   2.804  0.0499 -0.0034  0.1788
29424W        W46271   2.491   7.706   4.148  0.0293 -0.1417  0.1346
29425W        W46272  18.764  15.087   5.974  0.3920  0.0331 -0.1792
29426W        W46273   8.901   6.312  11.499 -0.0170 -0.3402 -0.2355
29427W        W46274  15.795   2.426   3.043 -0.1434  0.2673 -0.3642
29428W        W46275  13.163  10.651   1.093 -0.1402  0.1155 -0.0218
29429W        W46276  17.827  10.010   0.569 -0.1736  0.0337  0.2350
29430W        W46277   3.362   9.108  12.886 -0.1567 -0.0111 -0.3307
29431W        W46278   4.804  15.133  10.715 -0.2238 -0.1228 -0.2581
29432W        W46279   4.764   3.479  14.123 -0.0737 -0.0712 -0.0806
29433W        W46280   7.733   3.709  11.996  0.1377  0.2906 -0.0138
29434W        W46281   0.021   2.512   4.225  0.2794  0.0937  0.1528
29435W        W46282   5.085   6.633   1.607  0.0822 -0.0138 -0.1788
29436W        W46283  15.391   8.564   0.687 -0.2885  0.0310 -0.3369
29437W        W46284   8.349  17.344  13.094 -0.1777 -0.2733  0.0632
29438W        W46285   9.237   5.596  14.834  0.2111 -0.0239  0.2812
29439W        W46286   9.340  13.888  11.781 -0.1587  0.2704 -0.0865
29440W        W46287  13.891  10.211  13.355  0.0298 -0.0835 -0.2530
29441W        W46288   5.719   7.789  13.373 -0.0928 -0.2209 -0.0145
29442W        W46289   9.881   5.939   3.256 -0.3188  0.0798 -0.0088
29443W        W46290  15.582   5.179   2.671 -0.1787  0.1041  0.1652
29444W        W46291  16.578   5.530   4.293  0.3903 -0.1401  0.2722
29445W        W46292   8.963  16.789   2.840  0.0868 -0.1320 -0.0368
29446W        W46293   8.030  11.971   2.783  0.4422 -0.0159  0.0903
29447W        W46294   1.667   8.610   2.775 -0.0382 -0.0822 -0.1597
29448W        W46295  11.525   6.941  15.484  0.0668  0.0398 -0.3460
29449W        W46296   6.945   7.684   1.238  0.1978  0.3327 -0.1770
29450W        W46297   4.521   4.863   1.100 -0.3300 -0.2948 -0.1771
29451W        W46298   0.230   0.246  13.573 -0.1083  0.0016 -0.0168
29452W        W46299  15.199   7.762   4.005 -0.2290 -0.0910  0.1691
29453W        W46300   3.324  10.168  14.215  0.1944  0.0420 -0.0173
29454W        W46301  14.676   6.498   3.347  0.2957 -0.0385  0.2472
29455W        W46302  12.055  17.997  13.778  0.1844  0.1176 -0.2492
29456W        W46303  14.799   9.244  12.956  0.0698  0.2699 -0.1766
29457W        W46304  16.795  10.658  12.045  0.0460  0.3330  0.2772
29458W        W46305   8.246  14.838   4.752 -0.1545  0.4090  0.0599
29459W        W46306   7.967   5.925  14.087  0.1049 -0.0659 -0.0698
29460W        W46307   7.381   9.694   2.319  0.0712 -0.0895  0.2306
29461W        W46308   7.092   3.505  13.684  0.2170 -0.1179 -0.0560
29462W        W46309  12.508  18.576  15.432 -0.1945 -0.0156  0.0085
29463W        W46310   0.231  18.009   1.768  0.2948  0.0656  0.0462
29464W        W46311  17.527  13.676   0.314 -0.1493 -0.0027  0.0327
29465W        W46312  10.389  10.104  11.225 -0.1352  0.0444  0.0291
29466W        W46313  16.058   6.771   4.889  0.2696  0.0242 -0.1214
29467W        W46314  17.741   3.288   2.211  0.2320  0.5799  0.2507
29468W        W46315  13.991   3.293  12.828 -0.0206 -0.0318 -0.1953
29469W        W46316   4.661   9.299  13.429 -0.0384 -0.2801  0.1910
29470W        W46317  10.431   6.611   3.782  0.2114 -0.2160 -0.0974
29471W        W46318   2.296   3.305  13.864 -0.1283 -0.0420 -0.0015
29472W        W46319   6.840  15.975   4.721  0.3036  0.1861 -0.2571
29473W        W46320  12.860   0.410   0.349  0.0117 -0.1295  0.1108
29474W        W46321  15.500  15.576  14.064 -0.0740 -0.3350  0.1784
29475W        W46322   3.972  13.152  11.145 -0.2170  0.0156  0.0024
29476W        W46323   6.634  17.759  11.098 -0.0074 -0.2303  0.0151
29477W        W46324   2.818  12.012   0.570  0.3036 -0.2219 -0.1737
29478W        W46325   1.053   6.856   2.391  0.3210 -0.0471  0.1952
29479W        W46326   4.473  11.094   0.921 -0.0823  0.0094 -0.2107
29480W        W46327   1.443   4.905  13.837 -0.1828 -0.1549  0.1475
29481W        W46328  16.757   9.488   5.965 -0.1494  0.1670 -0.1854
29482W        W46329   3.279   1.787   0.953 -0.2507 -0.1590  0.0281
29483W        W46330  15.607  11.203   0.655  0.2049 -0.3239  0.2712
29484W        W46331  11.062   8.045   0.342 -0.0824 -0.3277  0.0755
29485W        W46332  13.175   0.471  14.546  0.1041  0.2278  0.0199
29486W        W46333  13.836   5.769  12.256 -0.0986  0.0923  0.0321
29487W        W46334  15.459  14.794   0.400  0.1567  0.1237 -0.0960
29488W        W46335  14.738   6.494   4.476 -0.1788  0.0117 -0.1034
29489W        W46336   2.161   8.615   1.276 -0.0773  0.2082 -0.1019
29490W        W46337  14.043  10.416  12.002 -0.0380  0.2943 -0.0131
29491W        W46338  12.945  13.205  11.943  0.2318  0.2162  0.2237
29492W        W46339   2.152  12.301   1.734 -0.4074 -0.1681 -0.1655
29493W        W46340  13.788  13.778   4.169  0.0011 -0.1876 -0.1794
29494W        W46341   2.687   1.895  12.552  0.2296 -0.0061 -0.2435
29495W        W46342   5.056   8.833  13.832  0.1588 -0.5339  0.0754
29496W        W46343   2.202  17.825   4.712  0.0955  0.0336 -0.0406
29497W        W46344   1.895   0.871   3.571 -0.1482  0.0416 -0.0681
29498W        W46345  16.712   6.714  15.058  0.0305 -0.0794 -0.1136
29499W        W46346  17.048  13.198  14.180 -0.0470  0.0677 -0.1400
29500W        W46347  12.012   3.827  15.276  0.1522  0.2137  0.3447
29501W        W46348  10.977   7.864   2.906  0.0388 -0.0979 -0.0866
29502W        W46349  16.924   8.824  12.766  0.0201 -0.1605 -0.2059
29503W        W46350  14.020   5.000  11.898  0.2217  0.2112  0.3281
29504W        W46351  14.281   2.100  13.467 -0.1234  0.3211  0.0291
29505W        W46352  15.090   1.158  12.314  0.1627  0.1255  0.1493
29506W        W46353   2.718  13.875  12.614 -0.1965 -0.0011 -0.1970
29507W        W46354  17.275   3.006  13.787 -0.1952  0.0302  0.0646
29508W        W46355  17.773   3.914   1.316  0.1400  0.0438  0.1223
29509W        W46356   8.921  13.435   3.685 -0.2946  0.1102 -0.0745
29510W        W46357   6.077   9.758   4.774  0.1789 -0.0999  0.3177
29511W        W46358   0.944  17.366  15.734  0.0568 -0.1420  0.3026
29512W        W46359  13.433   5.135   5.498 -0.3689  0.0771  0.0998
29513W        W46360   0.871   7.749  11.430  0.1611  0.3161  0.0442
29514W        W46361   4.927  12.047   0.507  0.1403 -0.1304 -0.2062
29515W        W46362   6.154   4.927  14.588  0.1256 -0.0077  0.0604
29516W        W46363   7.761  13.162   2.281  0.2252  0.0450  0.1052
29517W        W46364  12.406  13.329   4.848 -0.0105  0.2099  0.0523
29518W        W46365  13.001  16.676   4.934 -0.0024  0.0472 -0.0548
29519W        W46366  12.908  14.680  14.286 -0.1478  0.1953  0.1124
29520W        W46367  17.964  11.941  15.144  0.2186  0.2011  0.0032
29521W        W46368  13.869   7.214  15.063  0.0540 -0.1962  0.0865
29522W        W46369  17.470   3.304  12.481 -0.4154 -0.0119 -0.4517
29523W        W46370   2.655  11.197  12.818  0.2886  0.2092 -0.3166
29524W        W46371  10.596  18.584  15.187  0.0963 -0.2419  0.0216
29525W        W46372   6.128   9.982   4.016 -0.2289 -0.1259  0.0012
29526W        W46373   4.906  17.341  12.055 -0.0797  0.1870  0.0623
29527W        W46374  13.520   3.517   2.799 -0.0419 -0.2239  0.1234
29528W        W46375   5.344   3.637   5.181 -0.1077 -0.1364 -0.1368
29529W        W46376   3.647   1.546   0.557 -0.3588 -0.0363  0.1282
29530W        W46377   0.414  13.217   3.641  0.4504  0.5256  0.0605
29531W        W46378  13.587   9.527  14.520  0.2637 -0.1192 -0.2471
29532W        W46379   0.849  12.308  11.734 -0.2684 -0.0130 -0.0700
29533W        W46380  16.750   4.949   4.385  0.0322 -0.2919  0.0266
29534W        W46381  10.215   5.359   1.109 -0.2452 -0.1291 -0.2966
29535W        W46382   3.861  10.214  12.496 -0.0578  0.0585 -0.1838
29536W        W46383   5.008  10.378  15.628  0.1555 -0.0638  0.1855
29537W        W46384   6.246  14.499   3.062  0.0269  0.0970  0.3392
29538W        W46385   0.557  17.612   1.941 -0.1742 -0.1974  0.1273
29539W        W46386   8.980  11.577   0.537 -0.2722 -0.0962  0.3309
29540W        W46387   1.854  15.438  11.698 -0.0332 -0.0259 -0.1115
29541W        W46388  18.277   0.463   2.882  0.0242  0.2015 -0.1238
29542W        W46389  15.458  17.603   1.111  0.1794 -0.1186 -0.1230
29543W        W46390  15.611   0.233   3.018  0.1009  0.1359 -0.0042
29544W        W46391  17.132   2.039   3.218 -0.0849 -0.3170  0.0528
29545W        W46392  16.472   9.840  15.102  0.1042 -0.0271  0.0502
29546W        W46393  15.237  14.602  15.777 -0.1050 -0.0733 -0.1657
29547W        W46394   8.245  17.764  14.427 -0.0044 -0.2691  0.0857
29548W        W46395   3.871   5.547   4.375  0.2965  0.0111 -0.1577
29549W        W46396   0.326   7.740   2.513  0.1188 -0.3357 -0.3337
29550W        W46397   2.598  14.709   0.326 -0.1570 -0.0531 -0.1712
29551W        W46398   2.399  18.197   2.307 -0.0985 -0.0300  0.2367
29552W        W46399  12.354  14.429  12.084  0.3919 -0.1708  0.1655
29553W        W46400  11.211   9.905  15.170 -0.4514  0.0494 -0.0871
29554W        W46401   4.474  14.248  10.034 -0.1149  0.0185 -0.1077
29555W        W46402  16.081  13.794   1.818 -0.1108  0.0100  0.0309
29556W        W46403   7.571   6.861  13.924  0.2987 -0.2850  0.4129
29557W        W46404  17.335  13.692   0.982  0.0538 -0.0929  0.1975
29558W        W46405   7.503  10.167  10.516 -0.3338  0.0744 -0.0114
29559W        W46406  15.196   6.944  14.925  0.0697  0.1101 -0.3416
29560W        W46407   4.883  15.799  13.314 -0.1253  0.2169 -0.2047
29561W        W46408   5.915   1.476   0.014  0.0940  0.1163 -0.0929
29562W        W46409   6.681  13.675  11.073  0.0383  0.1894  0.1671
29563W        W46410   2.268   5.329   0.767 -0.0069 -0.1441 -0.0301
29564W        W46411   6.725   6.209   1.672 -0.1380  0.4492  0.1064
29565W        W46412  17.867  17.401  14.630 -0.1047  0.3709  0.3173
29566W        W46413  15.237   7.502  14.187 -0.2590 -0.0654  0.1523
29567W        W46414  15.420   0.051  15.158  0.2816 -0.3617 -0.0886
29568W        W46415   1.293  12.868  15.152 -0.1330  0.0561  0.0366
29569W        W46416  15.777  15.623   4.220  0.2102 -0.0254 -0.0047
29570W        W46417  15.149  11.167  12.857 -0.0056  0.2712  0.2417
29571W        W46418   6.022   2.020  15.114  0.1877 -0.0196  0.3956
29572W        W46419   5.582   4.583  13.511  0.0010 -0.0403 -0.4796
29573W        W46420  14.998   8.051  14.998 -0.2896 -0.2220 -0.0144
29574W        W46421   0.501   6.349   1.558 -0.0677  0.3213  0.1132
29575W        W46422  17.631  10.412   5.222 -0.1486  0.0641 -0.2360
29576W        W46423  16.139   3.184  13.135  0.0310 -0.3315  0.2217
29577W        W46424  16.772   3.973  13.979 -0.0572 -0.2312 -0.2950
29578W        W46425  15.366  11.727   3.217  0.0224  0.1979  0.0395
29579W        W46426   6.196   6.372   2.783 -0.1937 -0.0007  0.1397
29580W        W46427  16.970  14.345   0.303 -0.0051  0.0409  0.1632
29581W        W46428  12.453  11.120  14.437  0.0367  0.1660 -0.1553
29582W        W46429  14.583   4.345  12.476  0.2627 -0.1249  0.1253
29583W        W46430  13.775  12.628   1.519 -0.0670 -0.1415 -0.0749
29584W        W46431  17.218   5.541  11.315 -0.1629  0.0591  0.3140
29585W        W46432  11.580   5.781  14.448  0.1154 -0.1258  0.0177
29586W        W46433   0.299  14.464   4.290 -0.5470  0.2796  0.0140
29587W        W46434   0.820   4.852   3.391  0.1218 -0.1151  0.0250
29588W        W46435   0.481   2.032  14.103  0.2633 -0.0075 -0.0643
29589W        W46436  17.032  14.633   3.841 -0.1331  0.0497 -0.2298
29590W        W46437   7.795   0.200   4.395 -0.0281  0.2106 -0.1403
29591W        W46438  18.491  18.286  13.320 -0.4427  0.1360  0.1234
29592W        W46439   8.049  13.407  11.599  0.2358  0.2122 -0.0664
29593W        W46440   8.613   7.302   2.321 -0.2074 -0.0917 -0.2786
29594W        W46441   1.910   2.304   3.769 -0.2321  0.0511  0.0863
29595W        W46442   8.998   7.860   3.555  0.3246 -0.1777  0.1684
29596W        W46443  15.174   5.414   2.031 -0.0184  0.0152 -0.2908
29597W        W46444  14.306  16.172   0.577  0.3104 -0.2561  0.0578
29598W        W46445  14.157   0.710  14.610  0.1808 -0.1257 -0.1034
29599W        W46446   7.474  16.588   3.220 -0.1392 -0.1211 -0.3209
29600W        W46447   3.356   1.783   2.267  0.1431 -0.1168  0.1203
29601W        W46448  13.289   6.659  11.292 -0.0623 -0.2418  0.1234
29602W        W46449   0.158  14.118  14.085  0.0841  0.1187  0.0537
29603W        W46450   1.939   8.448   5.131  0.0710 -0.0662 -0.2134
29604W        W46451  10.862  10.664  12.711 -0.2662  0.0313  0.1268
29605W        W46452   4.655  14.584  13.028 -0.2089 -0.1060 -0.2772
29606W        W46453   8.538   7.201   4.088 -0.1616  0.0750  0.1612
29607W        W46454   9.893   4.551   3.586  0.1156  0.0300  0.3456
29608W        W46455  14.961   2.899   1.251  0.1258 -0.1365 -0.1301
29609W        W46456   9.724  17.822   3.889  0.4511 -0.0169 -0.1006
29610W        W46457   9.900  18.234   4.346  0.2453  0.0384 -0.0562
29611W        W46458   8.859  11.538  13.377  0.0808  0.1843  0.1229
29612W        W46459   0.370   4.966   4.111  0.1423 -0.0838  0.0194
29613W        W46460   5.877   8.788  15.128  0.2303 -0.1511 -0.2431
29614W        W46461  15.248   2.293  13.038  0.0159 -0.1008 -0.1382
29615W        W46462  18.383  13.922   0.342 -0.2570  0.3415 -0.2367
29616W        W46463   8.131   3.296  13.837 -0.0372  0.1009  0.0487
29617W        W46464   6.455  18.203  15.181 -0.1055 -0.2117 -0.2724
29618W        W46465  17.193   7.182   5.475 -0.1995  0.0400  0.0286
29619W        W46466  14.543   1.647  13.579  0.0562  0.1998  0.0319
29620W        W46467   1.957   2.627   0.747  0.0256  0.2519  0.0092
29621W        W46468   6.645   6.259   3.632 -0.0923  0.1554  0.3091
29622W        W46469   5.221  15.906   2.864  0.1544 -0.1991 -0.0367
29623W        W46470   8.143  14.977  15.286 -0.0763 -0.0737 -0.0683
29624W        W46471  13.748   0.906   1.129  0.2784  0.3263 -0.1649
29625W        W46472  18.298   1.528   4.037 -0.3497  0.3367  0.2111
29626W        W46473  13.602  17.837   3.224  0.0017  0.0336  0.0729
29627W        W46474   3.518  16.525  11.375 -0.1420  0.1145 -0.0324
29628W        W46475  16.863  16.187  13.023  0.0172  0.1144  0.0304
29629W        W46476  13.665   9.750   0.087 -0.1852 -0.1069 -0.1722
29630W        W46477  18.277  11.754  15.467 -0.0677  0.2077  0.1179
29631W        W46478   8.663  16.422   1.988  0.1442  0.3288  0.1203
29632W        W46479  17.506  11.377  13.927 -0.0416  0.2553  0.1360
29633W        W46480   7.276  16.949  10.171  0.0884  0.3683 -0.2707
29634W        W46481   7.358  10.955   1.763  0.0885  0.0764 -0.0714
29635W        W46482  12.378   4.384  12.434  0.0879 -0.1438  0.0230
29636W        W46483  13.001   5.103   1.418  0.0099 -0.1056  0.1455
29637W        W46484   8.120  15.935  15.333 -0.2046 -0.4186  0.0947
29638W        W46485   3.129  12.895  11.524  0.3060 -0.0393  0.1296
29639W        W46486  10.674  16.532   2.363  0.1431  0.1484  0.1504
29640W        W46487  11.692  13.116   1.413 -0.0972 -0.0542  0.0693
29641W        W46488  10.700  10.217   0.980  0.2755  0.1587 -0.0600
29642W        W46489   6.146  11.004   3.860  0.0611 -0.1956 -0.1516
29643W        W46490   3.580   3.106   3.259 -0.0241  0.2371  0.3021
29644W        W46491   1.573  14.620   4.056 -0.0356 -0.0139 -0.1527
29645W        W46492   9.767  17.016   1.457 -0.1286  0.0063  0.2361
29646W        W46493  11.116   2.708   3.341 -0.2519 -0.0892  0.0154
29647W        W46494  16.658  18.025  12.704 -0.1362  0.6008  0.0995
29648W        W46495  13.021  11.538   3.650 -0.2523 -0.0825 -0.0966
29649W        W46496  14.771   1.553  14.552  0.4152  0.1930  0.1449
29650W        W46497  13.748  18.357   1.110 -0.2467 -0.0890  0.0591
29651W        W46498   5.339   5.584  14.611  0.1225 -0.0054  0.1053
29652W        W46499   5.464  11.920  12.816 -0.0411 -0.1666  0.0113
29653W        W46500   3.632   2.594  13.044  0.1105  0.0987 -0.1595
29654W        W46501  11.249  12.329  13.989 -0.2972  0.0406  0.0455
29655W        W46502  15.042  15.908  11.584  0.0415 -0.0335 -0.0258
29656W        W46503  17.350  12.853  12.749  0.1182  0.0705  0.3685
29657W        W46504  16.174   4.197   3.455 -0.3040  0.5223 -0.0103
29658W        W46505   2.270  16.630  14.012 -0.0278  0.0967  0.1525
29659W        W46506  17.433  13.635   1.619  0.0211  0.0184 -0.0178
29660W        W46507  13.558   6.737  13.731 -0.1351  0.1590  0.0096
29661W        W46508  12.580  10.616   1.929 -0.0264 -0.0295  0.0911
29662W        W46509  15.965   8.792   3.833  0.3421 -0.1667  0.3723
29663W        W46510  12.069  12.087   3.405  0.1882 -0.2795 -0.0950
29664W        W46511   6.030   6.832   2.024  0.1527 -0.1251  0.2132
29665W        W46512   0.151  16.494   1.571  0.2988  0.0057  0.1196
29666W        W46513   0.253   3.702   3.264 -0.1057  0.0143  0.3171
29667W        W46514  16.958  18.220  15.438 -0.3335 -0.0206  0.5021
29668W        W46515   9.130  12.898  13.048 -0.1217 -0.3675  0.0331
29669W        W46516   3.945   0.662  14.575 -0.0776 -0.1729 -0.1328
29670W        W46517   3.086  10.424   0.110 -0.0344  0.3519  0.0035
29671W        W46518   7.046  16.702  15.754  0.0360  0.1804 -0.0451
29672W        W46519  15.713   7.507   1.016  0.2914  0.1140 -0.0416
29673W        W46520  11.408   6.130  15.418  0.1163 -0.7328 -0.3214
29674W        W46521  13.021   8.059   2.516 -0.3351  0.0882 -0.0064
29675W        W46522  12.480   7.243   1.832  0.0252 -0.1136 -0.4007
29676W        W46523  12.600  14.869  13.858 -0.1347 -0.0075 -0.1399
29677W        W46524   0.062   0.612  14.720  0.0526  0.3133  0.3241
29678W        W46525   4.203   5.585  13.625  0.2349  0.0856 -0.0530
29679W        W46526  18.767   2.686  13.623 -0.0126 -0.0430  0.2807
29680W        W46527  13.954   9.708  13.339 -0.2576 -0.2559 -0.1797
29681W        W46528   9.625   3.073  12.607  0.0860 -0.0645 -0.0282
29682W        W46529  10.638   0.870  14.352  0.0330  0.0933  0.3210
29683W        W46530   6.366   2.092  11.207  0.3295  0.1931 -0.2286
29684W        W46531  18.057   7.029  13.412 -0.2973 -0.0042  0.4012
29685W        W46532  12.880  12.371   4.013 -0.1908  0.3321 -0.1941
29686W        W46533   8.206   0.397  14.419 -0.2315  0.0266  0.2437
29687W        W46534   4.140   4.256   2.654 -0.0375 -0.3310  0.0948
29688W        W46535  11.132  10.300   1.993 -0.0574  0.2489  0.0580
29689W        W46536  11.974  12.270   3.851 -0.0960  0.0899  0.0723
29690W        W46537  11.682  17.714  12.817 -0.1964  0.0126 -0.2087
29691W        W46538   9.440  17.161  11.779  0.1688  0.1243 -0.1723
29692W        W46539  14.829  10.672   5.211  0.1891  0.1938  0.1593
29693W        W46540  12.582  10.087  12.660 -0.3685 -0.2036  0.0121
29694W        W46541   5.049  18.206  11.763 -0.1365 -0.0193 -0.0469
29695W        W46542  14.677   7.704   5.351 -0.5201  0.2786  0.1632
29696W        W46543   3.511  18.495   0.629  0.2193  0.3525  0.2195
29697W        W46544   5.779  10.472   2.151  0.1302  0.0021 -0.0845
29698W        W46545   9.225  13.138  14.097  0.2275 -0.1508 -0.0215
29699W        W46546   2.694  15.766   3.648 -0.1950  0.0427 -0.0462
29700W        W46547  17.780  13.395  13.473 -0.0016  0.3784  0.1972
29701W        W46548   3.129   6.807  12.495 -0.1381  0.1103  0.4585
29702W        W46549  15.761   5.511   1.962 -0.1601  0.3467  0.1332
29703W        W46550  17.155   1.774   4.037 -0.0757  0.1896 -0.2105
29704W        W46551   4.822   5.010   0.363  0.1766  0.3071 -0.0307
29705W        W46552   7.007   1.493  11.410  0.1259 -0.1029 -0.1777
29706W        W46553  18.043  15.587   0.303 -0.0608  0.0602  0.2000
29707W        W46554   3.798  18.486  10.914 -0.2578 -0.0315 -0.0960
29708W        W46555   2.184  10.552  13.878  0.2244 -0.0454  0.5279
29709W        W46556  14.889  11.634   4.587  0.3346 -0.1381  0.1860
29710W        W46557   3.988  17.793   3.576 -0.4369  0.0510 -0.1330
29711W        W46558   5.421   2.559   4.239 -0.0538  0.3040  0.3185
29712W        W46559   8.034  16.459  13.933 -0.0895  0.0579  0.0529
29713W        W46560   6.262   0.629   2.463 -0.1065  0.1048 -0.1876
29714W        W46561   7.281   7.765  14.980 -0.0312  0.0993 -0.0315
29715W        W46562   5.743  17.817  14.692 -0.3922  0.1750 -0.1154
29716W        W46563  11.032  16.628   6.004 -0.4574  0.0916 -0.4330
29717W        W46564  14.668   0.426  15.600 -0.2030  0.1126  0.0787
29718W        W46565   6.458  16.414  11.136  0.4178 -0.2893  0.0280
29719W        W46566   5.211  11.993   1.067  0.1593  0.1666 -0.0542
29720W        W46567   1.413  10.174  14.591 -0.0573 -0.3306  0.0372
29721W        W46568   0.093  10.078   1.353  0.1892  0.0021  0.2449
29722W        W46569  13.089  11.533  11.053  0.3296  0.4027 -0.2191
29723W        W46570   4.129   8.724  11.473  0.1163 -0.0458  0.0059
29724W        W46571  13.310   3.857   5.461 -0.1434  0.1957 -0.1251
29725W        W46572  10.099  17.576   0.749 -0.2348 -0.2895 -0.3367
29726W        W46573  14.873  18.203  13.418 -0.1641 -0.1450 -0.0121
29727W        W46574  14.413  12.976   4.749  0.0294 -0.0215 -0.4480
29728W        W46575   5.314   4.321  15.679 -0.1847 -0.1116  0.0704
29729W        W46576  12.964   1.289   5.607  0.1226 -0.1198  0.1844
29730W        W46577   9.961  13.838  13.046 -0.0924  0.0383 -0.1033
29731W        W46578   6.778   8.773  12.325  0.4439  0.1159 -0.2204
29732W        W46579   2.944   1.984   1.936  0.0801 -0.0596 -0.0383
29733W        W46580   4.902  12.199  12.310  0.0753 -0.1845  0.1946
29734W        W46581   6.311  11.536   0.354  0.3481  0.1374 -0.3443
29735W        W46582   9.577  10.914  14.175 -0.0924  0.2858  0.1599
29736W        W46583  11.217  11.945  11.823 -0.1436 -0.0423 -0.1041
29737W        W46584  13.944   5.456  12.717  0.3553 -0.0410 -0.2881
29738W        W46585   7.996  14.685  10.822 -0.2013  0.2086  0.1648
29739W        W46586   7.975   6.546  11.548 -0.0845  0.4840 -0.0940
29740W        W46587   7.023   3.145  12.468 -0.0022  0.1107  0.1438
29741W        W46588  16.260  13.389  13.591 -0.4355 -0.0097 -0.2420
29742W        W46589  10.864   9.908  15.583  0.1177  0.4231  0.3023
29743W        W46590  17.277   5.292   1.742 -0.1495  0.1515  0.0800
29744W        W46591  10.728   7.074  12.904 -0.0488  0.1162 -0.1191
29745W        W46592  15.881   1.066  15.241 -0.1703 -0.3011 -0.2571
29746W        W46593   7.785   5.628  13.288  0.1264  0.1261  0.0019
29747W        W46594  13.148   0.116  11.124  0.2208 -0.2466  0.0287
29748W        W46595   5.729  15.311  11.868 -0.0488 -0.1527  0.2478
29749W        W46596  18.603  10.464   5.074 -0.4162 -0.0224  0.1059
29750W        W46597   1.591  16.868   0.868 -0.2909 -0.0886  0.1893
29751W        W46598  10.095   5.142  11.849 -0.1628  0.0104 -0.0301
29752W        W46599  16.434   0.801   4.652 -0.0424  0.3990  0.2142
29753W        W46600  12.375  12.433   1.304 -0.3296 -0.2119  0.1074
29754W        W46601  10.082  11.206   4.628  0.2160 -0.1465 -0.0978
29755W        W46602  12.884  16.192   3.194 -0.0006 -0.2625 -0.1721
29756W        W46603   5.197   7.376   3.231  0.0604 -0.1344 -0.0516
29757W        W46604  12.269  16.562  15.722  0.0275 -0.1159  0.1734
29758W        W46605  12.545   5.872  12.701  0.2149  0.2979 -0.0126
29759W        W46606  11.077  13.238  11.668  0.1630  0.2155  0.2574
29760W        W46607   8.679  11.693  11.735  0.1409 -0.1062  0.1565
29761W        W46608   2.485   3.928   2.072 -0.1111 -0.2820 -0.1806
29762W        W46609   4.921   0.559   3.737  0.0564  0.0670  0.0678
29763W        W46610   4.213  14.224   3.053  0.0881  0.0728 -0.2389
29764W        W46611  12.205   2.377   0.017  0.0989  0.3506  0.2138
29765W        W46612   3.758   2.632   3.357 -0.0168 -0.1496  0.0695
29766W        W46613   5.519  12.679  12.526  0.2542  0.4059 -0.0210
29767W        W46614   3.587   0.131   4.940 -0.0508  0.4711  0.1950
29768W        W46615   2.962   8.624  13.109 -0.0526  0.1142  0.0380
29769W        W46616   1.001  15.202  11.987 -0.1928 -0.1047 -0.3502
29770W        W46617  15.190   8.998  14.801  0.0024  0.0933 -0.0457
29771W        W46618   3.268  14.276   1.462  0.1069  0.4622  0.1786
29772W        W46619  11.244  14.093   1.224 -0.2739 -0.1725  0.2094
29773W        W46620  16.641   6.288   4.170  0.2902 -0.1604 -0.0032
29774W        W46621   8.112   0.346  13.225 -0.0503  0.2026 -0.2528
29775W        W46622  13.097  15.111  14.926  0.1414  0.1770 -0.0074
29776W        W46623   3.060  18.292  12.864 -0.2827 -0.0223 -0.2484
29777W        W46624  15.514  11.479  11.868  0.0832 -0.2416  0.1056
29778W        W46625  17.158  15.226  14.224 -0.2257  0.1509 -0.0452
29779W        W46626   7.430   8.226   1.664 -0.2950 -0.0392  0.4161
29780W        W46627   2.760  18.061  15.746 -0.2572  0.0910 -0.1637
29781W        W46628  13.568   5.808   2.357 -0.0038  0.2794 -0.0050
29782W        W46629  18.228  18.718   0.654 -0.0791 -0.3838  0.1600
29783W        W46630   4.012   7.069  14.504  0.0528 -0.5781  0.2308
29784W        W46631   0.316   7.803   5.134  0.0804  0.1488  0.0682
29785W        W46632   8.391  17.853  15.339  0.1642 -0.0105  0.0164
29786W        W46633  10.866  12.774  11.542 -0.0177 -0.0128  0.1422
29787W        W46634   6.198  17.162   1.283  0.2311 -0.0233  0.0597
29788W        W46635  12.573   0.034   4.734  0.2365 -0.2279 -0.0334
29789W        W46636   0.560  13.153   3.150  0.0793 -0.0288  0.1561
29790W        W46637  15.281   0.564   4.380  0.1995  0.0229 -0.0793
29791W        W46638   8.768   1.946  15.504 -0.1420  0.0996  0.1485
29792W        W46639  18.009  16.489   1.356  0.1761 -0.0578  0.1116
29793W        W46640   2.622  16.791   1.162 -0.1443  0.0435  0.1540
29794W        W46641  10.096  13.712   4.116 -0.1252  0.0234 -0.2844
29795W        W46642  13.677  11.252  11.813 -0.3134  0.0024  0.4687
29796W        W46643  17.536  18.609   1.152 -0.2122 -0.0246  0.1621
29797W        W46644   4.302  18.758   4.131  0.0181 -0.1336  0.1721
29798W        W46645  16.764   9.821   4.123 -0.1338 -0.0321 -0.0231
29799W        W46646   2.958  18.667  12.330 -0.2034 -0.1715  0.1439
29800W        W46647   7.361  10.610   2.173 -0.1566  0.2068  0.1279
29801W        W46648   8.585  12.793  10.667 -0.0948  0.0033  0.0382
29802W        W46649   3.901   7.176  13.009 -0.0933 -0.3714  0.1482
29803W        W46650   7.607   9.196  14.261  0.4678 -0.1611  0.0241
29804W        W46651   3.328   0.371   3.376  0.0477 -0.0180 -0.4522
29805W        W46652   5.162  11.291   0.188  0.0549  0.2230  0.2595
29806W        W46653  13.795   3.695  12.137  0.0374  0.3645 -0.2018
29807W        W46654  16.322   5.132   0.206 -0.0996 -0.2065  0.1675
29808W        W46655   5.773  14.994   3.132 -0.0546  0.0542 -0.0921
29809W        W46656  11.808   0.801  12.560 -0.1686  0.3835  0.1124
29810W        W46657  11.978   4.821   1.252 -0.0193 -0.0921 -0.0298
29811W        W46658  10.935   0.742  15.310  0.1436  0.2694  0.1768
29812W        W46659   8.875  15.931   4.329  0.3598 -0.1165  0.3349
29813W        W46660  14.134  12.838  15.721 -0.0761  0.2357  0.0937
29814W        W46661  18.436   0.652  14.652 -0.1872 -0.0878  0.0319
29815W        W46662  18.846  13.744  15.156 -0.2900  0.0034 -0.2818
29816W        W46663  16.994  17.050   3.755  0.1588  0.2202 -0.1465
29817W        W46664  18.731  13.521   0.536  0.1616  0.0918  0.1073
29818W        W46665  14.137   6.306   1.813 -0.0391  0.3144 -0.0877
29819W        W46666  13.145   9.262  15.229 -0.0632 -0.0283 -0.2986
29820W        W46667   7.471  12.251   3.100 -0.2381  0.1772  0.1086
29821W        W46668  15.123   2.810  14.017  0.0241 -0.2847  0.1086
29822W        W46669  10.494   7.805   3.253 -0.0949 -0.2060 -0.2612
29823W        W46670   8.964  13.810  14.100  0.1168  0.0941  0.4484
29824W        W46671  16.135  13.456  12.124  0.3186  0.1175  0.3098
29825W        W46672  16.563   7.197   0.847  0.4942  0.1890  0.0520
29826W        W46673   4.127   3.149   1.812  0.2966 -0.0165  0.4479
29827W        W46674  15.039   4.125  11.679 -0.2021  0.2891  0.0258
29828W        W46675   6.344  14.829   5.781  0.0802 -0.1263  0.4008
29829W        W46676  16.130   8.371   1.403 -0.0036  0.0846 -0.3082
29830W        W46677  15.551   4.194  14.088 -0.2233 -0.2517  0.0050
29831W        W46678  16.037   1.532  13.829  0.1999  0.0265  0.2198
29832W        W46679   5.345   0.843   4.106  0.0093 -0.1803 -0.1172
29833W        W46680  16.751  12.707  11.911  0.4008  0.0902 -0.0042
29834W        W46681  12.004  18.022  12.079  0.1679 -0.1748  0.0842
29835W        W46682   6.361   2.791  12.445 -0.0894 -0.1356  0.4885
29836W        W46683   5.190  16.331   4.013 -0.1086 -0.4748  0.1041
29837W        W46684  13.341   7.489   0.590  0.6232  0.0693  0.2275
29838W        W46685   0.384   0.181   1.965  0.0258 -0.1933  0.1953
29839W        W46686   7.412   6.063   0.465 -0.2340 -0.2067 -0.2062
29840W        W46687   7.038  11.814  12.817  0.0456  0.1331  0.0787
29841W        W46688  10.911   8.634   3.969 -0.1289  0.2824  0.0447
29842W        W46689   8.230   4.633  10.946  0.2907  0.0205 -0.1475
29843W        W46690   0.797   0.685   3.046 -0.4252  0.0674 -0.0604
29844W        W46691  10.886  12.356  12.979  0.1345  0.1654  0.1765
29845W        W46692   8.876   6.020   2.390 -0.0454 -0.1261 -0.1801
29846W        W46693   5.728  11.339  12.121  0.0188 -0.2343 -0.0159
29847W        W46694   5.551  17.138  12.885  0.1826 -0.3237 -0.0620
29848W        W46695   8.848  16.240  12.696 -0.1554  0.0855 -0.0586
29849W        W46696   2.076  17.137  11.573 -0.0342  0.0981 -0.4407
29850W        W46697  17.438   6.274   5.558 -0.1240  0.2016 -0.0073
29851W        W46698   6.587  12.230  14.254  0.0494  0.1209  0.2346
29852W        W46699   2.248   5.120   1.301  0.1121  0.0961  0.2952
29853W        W46700  13.126   9.776   5.940  0.2557 -0.2116 -0.0091
29854W        W46701  13.078   0.221   1.248  0.0968 -0.0401 -0.0401
29855W        W46702  16.686   4.544  15.277 -0.1490  0.0348 -0.0129
29856W        W46703   1.475  16.267  14.785 -0.1495  0.0604  0.1614
29857W        W46704   1.516   1.758   4.193 -0.0541 -0.1640 -0.1229
29858W        W46705  12.044   4.023  13.359  0.0624 -0.1789 -0.0132
29859W        W46706   1.803  13.924  12.965  0.3302 -0.0657  0.0248
29860W        W46707   7.484  15.235  13.649 -0.2670 -0.0606 -0.0915
29861W        W46708   9.211   9.985   1.895  0.2390 -0.4023  0.1014
29862W        W46709   1.660   3.657   3.322 -0.2880  0.0095  0.1309
29863W        W46710   3.372  15.582   4.498 -0.2126  0.1722 -0.0761
29864W        W46711   4.569   6.395  13.450  0.0728 -0.1881 -0.2346
29865W        W46712  18.445  16.273   3.118  0.2096  0.0181  0.2050
29866W        W46713   3.711  12.419  12.572  0.0170 -0.1096 -0.2472
29867W        W46714  11.346   5.493  11.786 -0.1806 -0.1247  0.3936
29868W        W46715   6.239  12.821  10.742 -0.0032  0.1095 -0.0222
29869W        W46716  11.461  13.297  15.003  0.2602 -0.0149 -0.0879
29870W        W46717  16.670  15.006   3.009 -0.0015 -0.0252 -0.0704
29871W        W46718  18.388  14.794  12.640 -0.1958 -0.1297 -0.0161
29872W        W46719   6.933   1.241  10.913 -0.2332 -0.1497  0.2813
29873W        W46720  15.300  15.172  14.361 -0.1055 -0.2123  0.1278
29874W        W46721   7.130  16.257   0.918  0.0399 -0.0619  0.3902
29875W        W46722  17.740   5.346   2.657  0.0650 -0.0076 -0.0661
29876W        W46723  17.583  18.564   4.789  0.1241  0.0038  0.0917
29877W        W46724  16.312  14.687   3.132  0.0024  0.1181 -0.0765
29878W        W46725   6.838  17.468   2.440  0.3975 -0.1497 -0.2902
29879W        W46726   4.872  12.963  13.059  0.2083 -0.1758  0.0546
29880W        W46727  18.793  10.705   4.068 -0.0949 -0.4707 -0.0313
29881W        W46728   2.043   8.727   0.793 -0.2723  0.1243 -0.1373
29882W        W46729  11.125  18.752   3.395 -0.1534  0.1387  0.1303
29883W        W46730  16.490  14.002  12.725 -0.2051 -0.4157  0.2471
29884W        W46731   1.657   7.746  12.295  0.1596 -0.0173 -0.1941
29885W        W46732  13.251   8.413  12.869  0.1445  0.0174  0.2817
29886W        W46733  18.601   0.123   0.417  0.1338 -0.3780 -0.1494
29887W        W46734   1.395   5.813   5.272  0.0663 -0.0572 -0.0487
29888W        W46735  15.466  13.803   1.029  0.1105 -0.0066  0.1561
29889W        W46736  17.213  12.649  13.251  0.2031  0.0894 -0.2539
29890W        W46737  13.180   7.065   6.243  0.1328 -0.1665 -0.1729
29891W        W46738   4.939  10.382   3.179  0.2677 -0.2922  0.0006
29892W        W46739  10.902   1.597   1.999 -0.0603  0.0871  0.3377
29893W        W46740  16.551   3.875  14.766  0.1483  0.0779 -0.1296
29894W        W46741  12.717  15.506   1.157 -0.2187  0.0273 -0.1677
29895W        W46742  15.817  16.133   3.348  0.4005 -0.0263  0.0913
29896W        W46743  11.222  18.499   1.126 -0.2313 -0.0745 -0.0137
29897W        W46744  11.441   0.719  13.404  0.1145 -0.1110 -0.2810
29898W        W46745  10.998   8.871   0.922  0.3511  0.0454  0.1119
29899W        W46746  10.622   5.765   1.653 -0.1193 -0.0663  0.1738
29900W        W46747  12.194   2.006  14.024 -0.1235  0.3334  0.1038
29901W        W46748  11.300  11.552  13.043  0.0661  0.0230  0.1806
29902W        W46749  17.144  14.271  10.930 -0.1586 -0.0691 -0.0268
29903W        W46750  13.930   1.624   3.505 -0.3046  0.0913  0.3129
29904W        W46751   1.050   6.210  10.832 -0.1559 -0.1694  0.2913
29905W        W46752  12.243   2.126  14.943  0.0015 -0.1150  0.0126
29906W        W46753   5.351  17.159   1.879 -0.4850  0.3747  0.3007
29907W        W46754   8.385  16.898  10.630  0.2189 -0.0310 -0.0987
29908W        W46755  16.255   9.385  13.256  0.0538  0.0915  0.0357
29909W        W46756   2.300  10.858   3.751 -0.0656 -0.2316  0.4345
29910W        W46757  17.612   1.025  14.085  0.1302  0.2679  0.0045
29911W        W46758   2.353   2.234   0.548  0.2556  0.1001  0.1205
29912W        W46759   2.315  13.051   3.446 -0.3947  0.1264  0.1979
29913W        W46760   6.247  16.936  11.184  0.0110  0.1866  0.0027
29914W        W46761   3.082   3.007  15.224 -0.4412  0.5454 -0.2837
29915W        W46762   6.373  11.420   2.876  0.1268  0.1267 -0.0484
29916W        W46763  17.107  16.587   5.363 -0.1782 -0.1718 -0.0002
29917W        W46764   6.480  17.038   1.790  0.0595  0.0417  0.0354
29918W        W46765   4.034  17.903  13.709 -0.0861 -0.0282  0.2149
29919W        W46766   1.458   0.962  15.102 -0.3891  0.4861 -0.3512
29920W        W46767   8.749   5.718   4.818 -0.2121 -0.2597  0.0666
29921W        W46768  13.863   2.346   1.602  0.2700  0.2553  0.0395
29922W        W46769   4.389  15.678  13.109 -0.0105 -0.2957  0.0203
29923W        W46770  13.756   5.514  14.442  0.6314 -0.0254  0.1017
29924W        W46771  12.898  11.379   4.124  0.1646  0.2816 -0.1356
29925W        W46772  18.077   3.609   5.108 -0.0114 -0.0800  0.1652
29926W        W46773   7.343  18.639  10.957 -0.0025  0.0394  0.0660
29927W        W46774  18.473   3.726  15.494 -0.0043 -0.2566  0.1101
29928W        W46775   6.050  10.537  15.103 -0.1960  0.0741  0.2520
29929W        W46776   7.004  13.859  12.622  0.0705  0.2802  0.0066
29930W        W46777   6.521   8.544   4.424  0.1652 -0.0033  0.1672
29931W        W46778   0.020  11.487   3.700 -0.3134 -0.0093  0.0310
29932W        W46779  16.204  10.262  15.012 -0.0857 -0.2020  0.0975
29933W        W46780  10.338   4.524  13.727  0.1500  0.2948  0.0405
29934W        W46781   0.974  12.396   1.165 -0.3855 -0.3904 -0.0302
29935W        W46782  14.208  18.007   4.468 -0.0223 -0.0777  0.1800
29936W        W46783  13.376   4.862  15.601 -0.0617 -0.0788  0.0946
29937W        W46784   8.176  18.780   0.736 -0.4278 -0.0651 -0.0565
29938W        W46785   2.222  15.112   2.655 -0.1534  0.0489  0.0047
29939W        W46786   0.821  12.745  14.373 -0.2982  0.1555 -0.0923
29940W        W46787   4.753  10.796   1.569 -0.1364 -0.0790  0.0586
29941W        W46788   2.564   4.657  13.735 -0.0174 -0.3769 -0.1985
29942W        W46789  17.685   3.443  13.901  0.4058  0.0453  0.0369
29943W        W46790  15.608   9.090  14.507  0.0639 -0.0919 -0.0137
29944W        W46791  16.775   8.964  15.055  0.0761  0.0516 -0.0924
29945W        W46792   1.936  11.961   4.375 -0.2640  0.2992  0.2018
29946W        W46793   5.549   6.775  15.642  0.0055 -0.0392  0.1970
29947W        W46794   9.140   9.057   5.058 -0.1477  0.0737 -0.0015
29948W        W46795   3.230   6.690   1.961 -0.0251 -0.1027  0.1213
29949W        W46796  10.034   8.694  11.077  0.1486  0.0759 -0.2649
29950W        W46797   0.635  12.003  10.822 -0.3149  0.2192 -0.2374
29951W        W46798  10.476   5.292  15.172  0.1060  0.1925 -0.1400
29952W        W46799   8.541  15.630  13.536 -0.0050 -0.0178  0.1963
29953W        W46800  15.803   3.636   5.185 -0.2923  0.2930  0.0670
29954W        W46801   5.003   9.852   0.218  0.0565  0.0068  0.0164
29955W        W46802  13.679   9.302   4.625 -0.2653 -0.0376 -0.0555
29956W        W46803   9.876   0.779   1.082  0.2108  0.1317  0.0679
29957W        W46804  13.662   9.305  12.035 -0.1491 -0.0438  0.1409
29958W        W46805   2.164   5.872   4.919  0.3984 -0.0258  0.2779
29959W        W46806  10.998  10.476  11.481 -0.1965  0.0283 -0.0521
29960W        W46807  13.249   7.350   0.080 -0.1148  0.1297  0.0742
29961W        W46808  11.751  10.988   1.446  0.1275  0.0146 -0.0763
29962W        W46809   7.692  17.044   4.893  0.0693  0.0341  0.2876
29963W        W46810  15.133   6.409   4.122 -0.3332 -0.1979  0.0396
29964W        W46811   5.965  11.858   0.647  0.2073 -0.0872  0.2455
29965W        W46812  15.127  14.614   1.913 -0.1681  0.1952 -0.3235
29966W        W46813  14.597  10.688   2.089 -0.0110 -0.0528  0.1840
29967W        W46814   9.693  15.193   3.519  0.1091  0.0935  0.0220
29968W        W46815  15.999   3.969   1.203 -0.1884  0.0402 -0.0559
29969W        W46816  14.702  18.197  12.908 -0.0810  0.0971 -0.0570
29970W        W46817   0.024  10.871   2.968 -0.1040 -0.3147  0.4526
29971W        W46818  12.487  15.362  13.969 -0.0797 -0.0894  0.2205
29972W        W46819   0.053  15.877  11.356 -0.2983 -0.1902 -0.0880
29973W        W46820   9.663   4.351  13.017  0.2726  0.1296  0.1112
29974W        W46821   5.902   4.667  11.293 -0.0022  0.2103 -0.0172
29975W        W46822   5.477  18.752   2.452 -0.0394  0.6730 -0.2197
29976W        W46823   8.094   1.035  11.329  0.2194 -0.4090 -0.0786
29977W        W46824  12.932   3.703   2.032  0.1972  0.4533 -0.1161
29978W        W46825   6.515   6.425   0.374 -0.2617  0.4569 -0.1811
29979W        W46826  17.252   9.415  13.213 -0.2666  0.2992  0.0495
29980W        W46827   7.776   3.124  11.071 -0.1461  0.1662  0.2050
29981W        W46828  18.620  10.837  11.853 -0.2518  0.0614  0.2754
29982W        W46829  14.584  16.331  13.346  0.1037 -0.0299 -0.1789
29983W        W46830   0.104   6.305  11.520  0.1915  0.1495  0.0821
29984W        W46831  12.681  12.885   2.097  0.3312 -0.1137 -0.1916
29985W        W46832   4.678   1.541  12.126  0.0702 -0.0740 -0.0859
29986W        W46833   4.154   9.940   3.118 -0.0324  0.0744 -0.4499
29987W        W46834   9.903  15.230  14.164  0.0323  0.1673 -0.0181
29988W        W46835   3.900   9.462   2.954  0.0612 -0.2967  0.0817
29989W        W46836  12.194  16.605   0.665 -0.0998 -0.1002  0.2027
29990W        W46837   1.861   4.932  12.152  0.2563 -0.3108  0.2279
29991W        W46838  13.755   1.922   1.963 -0.2494  0.0062 -0.0424
29992W        W46839  14.599   5.155  13.128 -0.2313  0.3060 -0.1541
29993W        W46840  16.445  12.351   2.930 -0.0770 -0.0197  0.2063
29994W        W46841   7.456   6.765  15.295  0.4095  0.3178 -0.2928
29995W        W46842   8.646  17.426  14.428 -0.1375 -0.1609 -0.2724
29996W        W46843  13.609   8.088  12.666  0.1200 -0.0617 -0.1113
29997W        W46844   6.660  11.055  11.966  0.1238  0.0120  0.0915
29998W        W46845  13.461  10.738   3.497 -0.0398  0.0981  0.1183
29999W        W46846   3.528  18.102  12.986 -0.0162 -0.1495  0.1722
30000W        W46847  14.078  16.852   1.797 -0.0741  0.0610  0.0017
30001W        W46848   7.376   5.569   2.561 -0.3447  0.1293 -0.3251
30002W        W46849  12.877   2.371   3.053 -0.4277  0.1376  0.0086
30003W        W46850   3.643   4.655  14.600 -0.0085  0.2735 -0.0704
30004W        W46851  17.754   1.511  13.791 -0.0739  0.0101 -0.0165
30005W        W46852  17.210   9.187  14.875  0.2824  0.1280 -0.0356
30006W        W46853   8.919   9.862  14.819  0.1124 -0.0027 -0.0485
30007W        W46854   6.376  14.388  13.780 -0.1205  0.2022 -0.1353
30008W        W46855   3.034   9.327   1.539 -0.0734 -0.1357  0.2723
30009W        W46856   5.146   7.877   3.205 -0.0176 -0.4003  0.0711
30010W        W46857  12.826   0.690   2.927 -0.0166 -0.2897 -0.0981
30011W        W46858  15.063  18.451   4.862 -0.0257 -0.0148  0.2964
30012W        W46859   4.538   5.702  13.978 -0.1067  0.1459  0.2192
30013W        W46860  16.618   0.966  14.277  0.1768 -0.1104 -0.2155
30014W        W46861   5.147   6.531  15.322 -0.0712 -0.1012  0.1661
30015W        W46862  15.464   3.057   1.369 -0.0243 -0.2483 -0.5189
30016W        W46863   2.869  14.290  14.085  0.1226 -0.1437  0.2341
30017W        W46864  15.347   1.360  11.891  0.0181 -0.3005 -0.0987
30018W        W46865  17.510   7.478   3.903  0.3057  0.2584 -0.0985
30019W        W46866   0.226   6.833   2.924 -0.1583 -0.1344 -0.0561
30020W        W46867   3.046   1.205  13.446  0.3694  0.0308  0.0268
30021W        W46868   6.820  10.902  14.360 -0.1575  0.0379  0.0849
30022W        W46869   6.529   4.822  14.943  0.0195 -0.1001 -0.1432
30023W        W46870  10.047  18.839  15.688 -0.0906 -0.1711  0.0519
30024W        W46871   1.651  15.175   1.754 -0.2252 -0.1983 -0.0141
30025W        W46872  10.086   5.957  14.205  0.3684 -0.1165 -0.0150
30026W        W46873   2.821   6.161   0.393  0.1017  0.0887 -0.1169
30027W        W46874  13.185  10.088  13.931  0.0613 -0.0910  0.1521
30028W        W46875   1.762  13.057   2.396  0.1556  0.0025 -0.3217
30029W        W46876   2.636   9.462   4.271  0.0514  0.0306  0.0645
30030W        W46877   5.595   3.228  14.980 -0.2313 -0.0352  0.2170
30031W        W46878  18.394  16.458   4.898  0.2148  0.2245 -0.3141
30032W        W46879   5.471   4.480  12.628 -0.3170 -0.2739  0.3266
30033W        W46880  13.354   1.894   0.983 -0.1732  0.2444  0.0580
30034W        W46881   2.009   2.434   4.605 -0.1424  0.1801 -0.1094
30035W        W46882  16.055  10.909  12.897  0.1776  0.0930  0.0051
30036W        W46883  14.149  16.878   0.062 -0.1094  0.3217 -0.0188
30037W        W46884   4.376   6.329   1.214  0.3923  0.1810  0.0562
30038W        W46885  11.425   0.714  13.902  0.1769  0.3139  0.1967
30039W        W46886   3.204  13.239  14.319 -0.1551 -0.2147  0.2594
30040W        W46887  18.453  15.448   2.377  0.1601 -0.2214 -0.0057
30041W        W46888  13.921   7.499   0.354 -0.0580 -0.2862 -0.0279
30042W        W46889  12.526   1.553  11.725  0.2155  0.0818 -0.1955
30043W        W46890   0.789  10.019   0.235  0.0582  0.0317 -0.1612
30044W        W46891   1.877   9.399  12.709  0.0328 -0.1230  0.2828
30045W        W46892  12.821  16.495   1.206 -0.2566 -0.0928  0.2500
30046W        W46893   0.336   7.870  11.636 -0.3118 -0.1438 -0.1434
30047W        W46894   0.491  17.796   1.431  0.0188  0.2345 -0.0427
30048W        W46895   4.098   0.313  11.707  0.4033 -0.1078  0.3921
30049W        W46896  18.289   4.951   4.411 -0.2812  0.0474  0.1203
30050W        W46897   2.772  16.922  13.363  0.1298 -0.0510  0.3098
30051W        W46898  13.180  15.572  11.314 -0.0815  0.2212 -0.4123
30052W        W46899  13.379  11.580  12.818  0.1152  0.3309  0.1941
30053W        W46900   2.265   6.148   5.319  0.1826  0.1309 -0.0132
30054W        W46901  13.742   5.965  12.719  0.0835 -0.2453  0.2377
30055W        W46902  16.933  17.755  10.236  0.1062  0.0105 -0.2068
30056W        W46903  11.589  13.651  12.268  0.2419  0.2459  0.1251
30057W        W46904   6.882  18.022  13.250 -0.2793  0.0927  0.1335
30058W        W46905   9.370   0.085  12.855  0.1972  0.1745 -0.0583
30059W        W46906  16.851  14.887   5.329  0.0071 -0.1094  0.0708
30060W        W46907   3.635   5.434   6.140  0.1995 -0.0121  0.1003
30061W        W46908   8.408   1.747  15.226 -0.1303 -0.4514  0.0738
30062W        W46909   5.915  18.299  14.416 -0.0830 -0.2458  0.2506
30063W        W46910  11.266  11.929  14.835  0.0834  0.1155  0.0990
30064W        W46911   1.554  15.148  12.063  0.0289  0.3966  0.2188
30065W        W46912  11.096  12.586   4.016  0.0844  0.2627  0.0056
30066W        W46913  10.079  10.466   2.964 -0.2196 -0.1118 -0.2737
30067W        W46914   9.940  17.795  12.862  0.0459 -0.1476  0.1340
30068W        W46915  14.938  11.034   3.527 -0.0593  0.0769  0.1114
30069W        W46916   4.281  11.860   4.132  0.1015  0.1586 -0.2524
30070W        W46917   1.475   3.215   3.684  0.0684 -0.2382  0.1456
30071W        W46918  16.412  10.692  13.213  0.1619  0.0349 -0.0743
30072W        W46919  10.281   3.251   3.366  0.3657  0.3264 -0.0071
30073W        W46920   7.146   3.814  13.263 -0.0028  0.0487  0.1588
30074W        W46921   7.263   8.370   0.816 -0.4733  0.0674  0.1626
30075W        W46922  13.567   9.663   2.538  0.0528 -0.0787  0.1129
30076W        W46923  15.695  12.410  13.185  0.1360  0.0389  0.2088
30077W        W46924  10.277   3.341  11.993 -0.0984 -0.2498 -0.3734
30078W        W46925   4.480   4.084   6.069  0.0373 -0.2724  0.0295
30079W        W46926   4.748   6.855  11.423  0.2024  0.1135 -0.1546
30080W        W46927   4.697  16.995  14.280  0.2520 -0.2817  0.0426
30081W        W46928   6.404   5.591   3.665 -0.0510  0.1305 -0.2566
30082W        W46929   7.977   9.911  14.127 -0.3712  0.0234  0.1328
30083W        W46930  12.398   7.896   3.373  0.2612 -0.1385 -0.0773
30084W        W46931  13.857   3.476   4.565 -0.0523  0.0052 -0.0153
30085W        W46932   2.334  11.000  15.609 -0.3186 -0.5908 -0.0613
30086W        W46933  10.256  13.627  12.609  0.0254  0.1074  0.1622
30087W        W46934  14.303   2.255  14.685 -0.0096  0.1209  0.1536
30088W        W46935   4.917   0.462   4.308  0.0703  0.0215 -0.0889
30089W        W46936   8.134   0.947   2.842  0.2258  0.0109  0.0207
30090W        W46937   4.042   1.911  15.672 -0.0450  0.2645  0.3381
30091W        W46938  13.220  17.279  15.407  0.1389  0.0954 -0.0368
30092W        W46939   6.427   4.700   1.519 -0.1463 -0.1319 -0.1393
30093W        W46940  10.736  15.685   2.750  0.2836 -0.1275 -0.1816
30094W        W46941  16.987   6.205   2.241 -0.1928  0.1130  0.0813
30095W        W46942   2.172  15.335   3.203  0.3173  0.0827 -0.0290
30096W        W46943   5.170   8.566  14.971  0.2905  0.1892 -0.2867
30097W        W46944  16.193   2.160   2.982  0.1270  0.0530  0.0574
30098W        W46945   9.047   2.338   3.661 -0.0165 -0.1149  0.4463
30099W        W46946  17.737   5.484   5.085 -0.0958 -0.1396  0.1241
30100W        W46947   9.779   4.179   5.922 -0.0083 -0.2930  0.0245
30101W        W46948  11.279   4.001  10.512  0.2683  0.1621  0.0653
30102W        W46949   6.598   5.101  11.857  0.1686 -0.1760  0.0419
30103W        W46950   5.385  16.440  14.112 -0.1630 -0.0626  0.1511
30104W        W46951   9.521   9.172  13.505  0.2553 -0.3940  0.2344
30105W        W46952   7.061   1.952  13.539 -0.0217  0.2183 -0.3288
30106W        W46953  14.469  18.715   2.233 -0.0610  0.1273  0.1843
30107W        W46954  15.638  16.315  15.212  0.0619  0.2416 -0.0460
30108W        W46955  17.191   7.674   0.042  0.1735 -0.1120  0.1070
30109W        W46956   5.192  15.206  13.955  0.0349  0.0804  0.3971
30110W        W46957   4.898   8.627  10.923 -0.1725  0.1057  0.1067
30111W        W46958  16.927   0.271  13.421 -0.2649  0.2486  0.0630
30112W        W46959  10.309   5.743  12.788 -0.0688 -0.4545 -0.1651
30113W        W46960  14.055   4.980   2.161  0.0632 -0.0785  0.2393
30114W        W46961  12.769  10.459   2.815  0.1648 -0.0155  0.1579
30115W        W46962   1.493  18.541  13.478 -0.0123 -0.0185 -0.0608
30116W        W46963  12.514   6.327   2.763  0.3893  0.5663  0.3099
30117W        W46964  10.282   0.625   3.941  0.0038 -0.0963 -0.0637
30118W        W46965   4.946  10.236  12.768 -0.4932 -0.1153  0.1145
30119W        W46966   4.758   0.721   3.235 -0.0447 -0.4173 -0.2947
30120W        W46967   8.630   1.935   0.707 -0.2712  0.2148 -0.1009
30121W        W46968   4.914   0.028   1.152  0.0684 -0.0976  0.0328
30122W        W46969  11.639  13.551  14.108  0.0680 -0.0238 -0.0431
30123W        W46970  15.595   5.735  11.224  0.0954  0.0089 -0.0583
30124W        W46971   5.298   6.181  12.292 -0.0999 -0.0832  0.1018
30125W        W46972   0.081   5.189   5.572  0.3461 -0.3326 -0.2671
30126W        W46973   7.791   6.166   3.518 -0.1546 -0.0691 -0.0942
30127W        W46974  17.856   1.046   1.327 -0.1277 -0.1110  0.3022
30128W        W46975  14.989  12.786  15.392  0.1726  0.1509 -0.1791
30129W        W46976  11.426  11.368   1.551 -0.3734  0.1513 -0.0964
30130W        W46977   2.525   1.564   1.732 -0.0995 -0.0390 -0.1201
30131W        W46978  14.419  14.380   2.849  0.0854 -0.0959 -0.1266
30132W        W46979   1.320   5.078   4.364 -0.0950 -0.0647  0.1694
30133W        W46980  18.399  14.039  15.254  0.1827  0.2295  0.0980
30134W        W46981   4.201   0.407   4.107  0.0583 -0.1665 -0.0003
30135W        W46982  18.389  15.284  12.521  0.1404 -0.0265 -0.1724
30136W        W46983  10.717  11.421   0.322 -0.1217  0.0395 -0.0730
30137W        W46984   3.338  15.355  12.441  0.0941 -0.2258  0.0307
30138W        W46985  14.287   5.827   3.660  0.1249 -0.0970  0.1984
30139W        W46986   5.172  16.122   1.255 -0.0837  0.1492 -0.3831
30140W        W46987   3.136   0.578  14.097  0.1285 -0.1340 -0.0605
30141W        W46988  15.791  10.490  14.237  0.1621  0.2390 -0.0172
30142W        W46989  15.476  17.377   3.060 -0.0775  0.0421  0.0703
30143W        W46990  10.786  11.202  11.208  0.1200 -0.1689  0.4340
30144W        W46991   3.013  14.549   3.669  0.1809 -0.0036  0.0393
30145W        W46992  15.286   2.970   0.855 -0.0652  0.0559  0.0157
30146W        W46993  15.495   6.043  15.117 -0.1489 -0.0163  0.3287
30147W        W46994  12.110   1.937   2.953  0.1678 -0.0433  0.3535
30148W        W46995  11.122  17.678   1.764 -0.0354 -0.3056  0.2166
30149W        W46996   7.891   8.948   0.233 -0.1907  0.0869 -0.0281
30150W        W46997  12.965   5.865  13.596  0.2321 -0.1105  0.3888
30151W        W46998  14.005   7.139   5.300  0.0125  0.2340  0.4308
30152W        W46999   5.991   1.083  14.992 -0.0509  0.1932  0.3772
30153W        W47000   9.343  18.844  15.027 -0.0030 -0.3826  0.1227
30154W        W47001  17.003   5.548   2.832 -0.1752  0.1166  0.2622
30155W        W47002  18.773   8.567   4.955  0.0408  0.2771 -0.0214
30156W        W47003   8.247   1.647   2.713 -0.0206 -0.3480  0.4096
30157W        W47004   0.271   8.179  14.465  0.0070  0.0472  0.0210
30158W        W47005   6.992  10.828  13.212  0.1004 -0.0696  0.0098
30159W        W47006  18.368  13.149   0.253 -0.1741 -0.2520 -0.0273
30160W        W47007  10.929   7.519   1.585 -0.0059  0.1042 -0.0267
30161W        W47008  14.478  17.473   2.128 -0.4882  0.0721  0.1962
30162W        W47009   4.521   1.838   0.870 -0.1881 -0.1562  0.2551
30163W        W47010  14.979   9.670   0.137  0.0080  0.0701 -0.1288
30164W        W47011  17.566   6.905   4.947 -0.1912  0.5641 -0.0567
30165W        W47012   0.182  14.425   4.799 -0.2147 -0.2032  0.2175
30166W        W47013   3.361   3.635   5.197 -0.1678 -0.4116  0.1223
30167W        W47014   1.094  12.348  14.507  0.0098 -0.1816 -0.0780
30168W        W47015  12.512   3.775  11.181 -0.0631 -0.0884 -0.1679
30169W        W47016   7.808  11.590   5.587 -0.3633 -0.2615  0.1331
30170W        W47017  18.089   3.892   5.543 -0.0021 -0.0879 -0.2603
30171W        W47018   1.531  14.304   4.528  0.2183  0.1754 -0.0771
30172W        W47019   5.042  14.830  11.160 -0.0859  0.1183  0.2207
30173W        W47020   4.536  16.809   3.855 -0.0677 -0.1044 -0.0172
30174W        W47021  14.402  10.790   4.949 -0.3133 -0.0643 -0.3316
30175W        W47022   7.915  16.011   3.245  0.1338 -0.2297 -0.2171
30176W        W47023  12.763  10.493   0.763  0.4400 -0.1569 -0.6184
30177W        W47024   7.368   3.477  11.132  0.0916 -0.2211  0.0946
30178W        W47025  13.768  16.075   0.187  0.2844  0.5173 -0.0102
30179W        W47026  10.306  18.221   0.123  0.2009  0.0496 -0.0720
30180W        W47027   4.678   8.195  14.948 -0.1613  0.2303 -0.3221
30181W        W47028   3.884   6.288   1.347  0.3866 -0.2287 -0.0198
30182W        W47029   1.649   6.414   1.322 -0.1274  0.0324 -0.2638
30183W        W47030  13.031   3.231   0.945 -0.0116  0.1288 -0.0344
30184W        W47031  10.196   3.573  13.282 -0.1353 -0.3145 -0.0469
30185W        W47032   7.308   1.339   2.911  0.4212  0.0613  0.3072
30186W        W47033   1.198  16.725  13.970 -0.0041  0.0337 -0.2770
30187W        W47034   2.620  13.701  11.764 -0.0758 -0.1413 -0.0113
30188W        W47035  14.262  16.800   4.949  0.1921  0.2075 -0.1642
30189W        W47036   0.068  17.657  13.953 -0.2406 -0.1073  0.0586
30190W        W47037   0.693  17.154   4.373 -0.1626  0.1710  0.4614
30191W        W47038   3.056  16.925   3.175  0.2260 -0.2527  0.2550
30192W        W47039   1.020  17.921  15.502  0.0613 -0.1574 -0.2481
30193W        W47040   3.763  11.215  15.763 -0.2509  0.1152  0.0733
30194W        W47041   1.141   9.200   5.317 -0.0457 -0.1240 -0.1039
30195W        W47042   9.266  16.111   0.320  0.0831 -0.3496 -0.1301
30196W        W47043  18.022   6.537   4.241  0.2314 -0.0169 -0.0542
30197W        W47044   3.436   1.630  12.200 -0.3278  0.0918 -0.3165
30198W        W47045   8.517   6.815  15.049 -0.0850 -0.2053 -0.6513
30199W        W47046  16.260  10.391  13.597  0.0705 -0.2853  0.1073
30200W        W47047  16.489  13.857   2.489  0.0633  0.1874  0.0132
30201W        W47048  10.176  11.399   4.164  0.0156 -0.0437 -0.1173
30202W        W47049  11.510   0.106   3.607  0.0928 -0.3341  0.1458
30203W        W47050   1.232  11.130   3.605 -0.0814  0.2546 -0.0251
30204W        W47051  16.453   7.328  12.609  0.1024  0.0857 -0.2211
30205W        W47052   2.884  15.220  12.806 -0.0053  0.1073  0.0980
30206W        W47053   4.479  12.892  11.229 -0.1699 -0.4272 -0.0910
30207W        W47054  16.426  11.967   3.359 -0.2300  0.0687  0.2194
30208W        W47055  17.365  12.661   1.789 -0.0171 -0.1974  0.0648
30209W        W47056  14.998   2.023  13.866 -0.2156  0.2987 -0.0314
30210W        W47057   7.885   0.807  14.183  0.0827  0.0559  0.1716
30211W        W47058  17.591  12.019   2.114 -0.1881 -0.0663 -0.2128
30212W        W47059   2.585  13.408  15.202  0.2817  0.1324 -0.2595
30213W        W47060  11.870  15.863  10.804  0.0786  0.0251  0.1941
30214W        W47061  13.317   7.342   1.130 -0.1623 -0.0299  0.0850
30215W        W47062  12.969   6.393  13.486 -0.3316  0.1170  0.2361
30216W        W47063  10.019  10.997   3.897  0.0234 -0.0847 -0.0865
30217W        W47064   0.899   4.375   0.671  0.1592  0.1685  0.2715
30218W        W47065  15.157   1.799  12.316 -0.0246 -0.2883 -0.1044
30219W        W47066  18.353  17.565   3.879 -0.2253 -0.0500  0.0598
30220W        W47067  10.193   7.832  12.975 -0.0843 -0.2112  0.1855
30221W        W47068   0.412  18.216   0.420  0.0166  0.2828  0.1256
30222W        W47069  12.639   8.487  13.880 -0.2089 -0.0668  0.2020
30223W        W47070   5.828   2.505   4.658 -0.1085  0.3326 -0.0689
30224W        W47071   7.106   3.096   3.526  0.6984 -0.0352  0.3009
30225W        W47072  17.221   7.022  15.772  0.1007 -0.0760 -0.0625
30226W        W47073   0.861   1.411  13.051 -0.0389  0.0343 -0.1720
30227W        W47074  14.511   1.054  14.656  0.0665  0.5046 -0.1257
30228W        W47075   6.291   7.802   0.410  0.0044  0.2244 -0.0796
30229W        W47076   1.903   8.700  13.398 -0.1071  0.1254  0.1286
30230W        W47077  10.108   0.380  13.351  0.4115 -0.1629  0.0197
30231W        W47078   3.776   1.153  14.244 -0.1605 -0.1806 -0.1406
30232W        W47079   0.248   7.292   5.293  0.0394 -0.0829 -0.0257
30233W        W47080   2.725  14.420  12.672  0.1093  0.1156  0.1269
30234W        W47081   3.117  17.191  12.561 -0.0341 -0.0720 -0.1303
30235W        W47082   7.828   9.598   2.388 -0.0449 -0.1552 -0.1687
30236W        W47083   1.148   2.747   3.096  0.0461 -0.0437 -0.2375
30237W        W47084   0.429  10.320  12.809 -0.1141  0.1871 -0.0484
30238W        W47085   5.305   6.743   6.048 -0.0776  0.1308  0.5045
30239W        W47086  17.043   0.620   2.318  0.3688  0.1992 -0.0273
30240W        W47087   2.230   3.087   0.926 -0.3959 -0.1465  0.0133
30241W        W47088  14.601   3.464   5.250 -0.0898 -0.1299  0.2250
30242W        W47089   9.499   6.647  14.555 -0.4069  0.0016  0.1886
30243W        W47090   9.675   6.368  14.948 -0.1019  0.1079  0.3252
30244W        W47091  14.621   7.428   2.594 -0.0558  0.0896  0.1752
30245W        W47092   9.007   4.626   4.649  0.2720 -0.0262  0.3248
30246W        W47093  17.621   2.018   4.125  0.0161  0.0763  0.2407
30247W        W47094   5.898   6.046   0.000  0.1840 -0.1323  0.0650
30248W        W47095   1.742  15.430  10.255  0.2149 -0.2930 -0.0186
30249W        W47096   4.193   6.140  11.761  0.0152  0.2889 -0.2872
30250W        W47097  13.146   3.947  12.861 -0.1230 -0.1770  0.0773
30251W        W47098   8.067   0.794   3.391 -0.0335  0.0580  0.2084
30252W        W47099   2.928   6.274   2.512  0.0991  0.3184 -0.3162
30253W        W47100  17.644   5.063  15.015  0.0155 -0.1008  0.2195
30254W        W47101  17.096   3.061  12.175  0.2414  0.0023 -0.0714
30255W        W47102   9.376  14.326   3.758 -0.0292  0.2112 -0.1806
30256W        W47103   3.286   8.767   2.121  0.1300 -0.0629 -0.5206
30257W        W47104   2.272   2.206  15.519  0.2047 -0.0408  0.0752
30258W        W47105   1.058  15.832  10.863 -0.0473  0.1208 -0.1161
30259W        W47106  13.436   6.715   4.091 -0.1757 -0.0467  0.0302
30260W        W47107   7.699  12.715   0.017  0.1834  0.3102 -0.5055
30261W        W47108   6.691  11.819   1.137  0.1970 -0.1408  0.0773
30262W        W47109   7.640  15.986  15.130 -0.2049 -0.1480  0.3363
30263W        W47110   2.382   5.182  13.744 -0.1044  0.0899  0.3494
30264W        W47111   2.852   4.193   0.431  0.2148 -0.3051 -0.1092
30265W        W47112  11.489   9.591  15.609  0.2187 -0.0630 -0.0340
30266W        W47113   5.981   8.423  11.429  0.0579  0.1569  0.0177
30267W        W47114  11.840   3.355  15.353 -0.2557 -0.2232  0.0112
30268W        W47115  18.432  17.151  13.449  0.1813 -0.1470  0.2834
30269W        W47116  17.240  11.285   2.423 -0.2665 -0.1898  0.3553
30270W        W47117  13.337   1.725  14.933  0.0808  0.1312 -0.0905
30271W        W47118   8.423   0.457  10.212  0.1164  0.0006  0.3433
30272W        W47119   1.379   8.145  14.635 -0.0870  0.1287 -0.1498
30273W        W47120  15.013  17.796  14.162 -0.1212  0.3635 -0.0703
30274W        W47121   9.991   8.002   1.500 -0.1371 -0.0118 -0.1035
30275W        W47122   9.037   5.318   3.543  0.1695 -0.5276 -0.4574
30276W        W47123   1.496  14.504  14.365 -0.1457  0.2450 -0.3905
30277W        W47124  16.184   7.333   5.637 -0.2967 -0.2026 -0.0676
30278W        W47125  18.794  13.369   2.459 -0.0087  0.0211  0.0196
30279W        W47126  16.683  18.821   3.775 -0.1974 -0.0914 -0.3352
30280W        W47127  13.280   1.354   1.926  0.1097  0.2497  0.0639
30281W        W47128   1.275   5.592  13.086  0.2409 -0.0159 -0.2042
30282W        W47129   6.280  14.416  14.248 -0.0906  0.3507 -0.4669
30283W        W47130   7.957   9.504   2.861  0.0054  0.1477  0.1541
30284W        W47131  14.508  10.012  12.838  0.2211 -0.1147 -0.1555
30285W        W47132   4.333  10.898   1.890  0.0542  0.2033 -0.1361
30286W        W47133  14.215   5.823  15.573 -0.1420  0.2007 -0.0808
30287W        W47134  17.169  18.273   4.989  0.2076 -0.2313  0.2605
30288W        W47135  18.017   8.579   4.590 -0.0688  0.1464  0.0741
30289W        W47136  18.155   4.495   1.962 -0.0441  0.0039  0.1921
30290W        W47137   0.671  17.833  15.105  0.0514  0.1375 -0.1409
30291W        W47138  10.189  12.790   3.539  0.1443  0.2768  0.2402
30292W        W47139   9.288   1.002   3.493 -0.1963  0.3817  0.0279
30293W        W47140   7.127   7.134   0.575 -0.0789 -0.1106  0.0794
30294W        W47141   6.236   3.320   0.592  0.1233  0.0965 -0.2231
30295W        W47142  13.688  12.773  12.538  0.2696  0.0100  0.0745
30296W        W47143  12.874  12.089   2.777 -0.0216 -0.0314  0.2870
30297W        W47144  13.202   9.075  11.813  0.1765  0.0630  0.0511
30298W        W47145   4.461   9.452  11.055  0.0040 -0.0093 -0.2689
30299W        W47146  10.222  12.341  15.007 -0.2140 -0.4074  0.0932
30300W        W47147  17.385   2.726   5.611 -0.0848  0.0464 -0.0051
30301W        W47148  14.794   7.263   4.410  0.0786  0.0470 -0.6386
30302W        W47149  12.974   6.730  13.862  0.0050  0.0017 -0.1031
30303W        W47150   7.733   3.013   2.235  0.1226 -0.2383  0.1419
30304W        W47151  11.018  13.903  10.789 -0.0318  0.2261 -0.3857
30305W        W47152   7.846   7.832  13.208  0.0096  0.2029  0.0792
30306W        W47153   6.810  11.099   3.940 -0.2246 -0.0464  0.2477
30307W        W47154   5.294  18.160   0.866  0.0942  0.2185  0.1547
30308W        W47155   1.510  13.280   1.895 -0.1603 -0.0757  0.0113
30309W        W47156   1.945   4.403  13.214  0.2256 -0.1526  0.1351
30310W        W47157   0.789   7.921   1.079  0.2364 -0.0705  0.2908
30311W        W47158   4.924   6.468   4.890 -0.1835 -0.0111 -0.1143
30312W        W47159   4.626   4.055   4.261  0.0447 -0.1368 -0.0262
30313W        W47160   7.347  14.484   3.695  0.0641 -0.0945  0.1650
30314W        W47161  12.567  10.231   1.568  0.0232  0.0076 -0.0235
30315W        W47162  14.342  14.195   5.434 -0.3397  0.0617 -0.3691
30316W        W47163  14.779   5.937   4.433 -0.0546  0.0035  0.1364
30317W        W47164   9.774   2.019  15.487 -0.0565 -0.2022 -0.0832
30318W        W47165  14.432   4.178  10.168 -0.3333 -0.1041  0.2728
30319W        W47166  15.413  17.125   5.585  0.0138 -0.2486  0.1523
30320W        W47167   0.360  13.266   0.300 -0.0175 -0.0459 -0.0302
30321W        W47168  17.320  15.122  15.355 -0.2949  0.0363 -0.1886
30322W        W47169   7.313   5.176   2.864  0.1277 -0.0092  0.1098
30323W        W47170  18.437   4.988   0.878  0.0815 -0.0106  0.1488
30324W        W47171   6.554   9.990   4.735 -0.0087  0.0252 -0.1385
30325W        W47172   2.433  17.848   2.722  0.0858  0.0677  0.1218
30326W        W47173  14.973   7.179  14.458 -0.1350  0.2813 -0.2297
30327W        W47174   6.519  12.150  12.661  0.0749 -0.2732 -0.2579
30328W        W47175   2.716  16.507  15.649  0.0170  0.2609  0.2383
30329W        W47176   7.977  17.865  13.810  0.0766 -0.0030 -0.1899
30330W        W47177  15.611   8.130  15.771  0.1487  0.1440 -0.3264
30331W        W47178   5.378   6.743  13.190  0.1229  0.0731 -0.3016
30332W        W47179   6.898   6.041   0.661 -0.0095 -0.0042 -0.0337
30333W        W47180  15.019  12.451   3.301  0.1787 -0.1098 -0.1421
30334W        W47181  14.441   4.016   4.910 -0.1724  0.1694 -0.3656
30335W        W47182  12.564  17.109  11.607 -0.0198  0.0842 -0.4642
30336W        W47183  15.051  16.306  13.095  0.2457 -0.1733  0.0293
30337W        W47184   6.115   2.818  13.949  0.1984  0.1407  0.1746
30338W        W47185  16.003  12.980   5.650  0.0185 -0.4644 -0.1215
30339W        W47186  18.840  10.789   4.548 -0.1491  0.0092  0.1117
30340W        W47187  10.798   9.152   5.569  0.0468  0.2489  0.2155
30341W        W47188  14.213  12.611   3.457  0.1523 -0.2118 -0.1214
30342W        W47189   4.143  18.064   4.572  0.3110 -0.3307  0.1117
30343W        W47190  12.953   9.728  13.490 -0.5809  0.1433  0.0942
30344W        W47191   2.235   8.201   4.821 -0.1563 -0.0854 -0.0970
30345W        W47192  17.295  14.467   4.638  0.1907 -0.1186  0.1762
30346W        W47193  14.210  18.104  11.913 -0.2922 -0.1648  0.2633
30347W        W47194   4.846  13.607  15.252  0.0651  0.0587  0.0656
30348W        W47195   5.613  13.372  15.699  0.2134 -0.1383  0.0760
30349W        W47196   8.816   1.216   3.816 -0.1638  0.0543 -0.0853
30350W        W47197   9.988   8.030   3.224  0.0626  0.2548 -0.0051
30351W        W47198  13.607   0.671  13.589 -0.0040 -0.2767 -0.0297
30352W        W47199  12.716  11.017   4.961 -0.0456  0.0098 -0.0028
30353W        W47200   2.889   2.442   3.534  0.1609  0.2075 -0.2736
30354W        W47201   6.143  14.360   1.384  0.0790  0.0269 -0.1554
30355W        W47202  15.806  17.085   1.168  0.4897 -0.3773 -0.0086
30356W        W47203   5.099  12.941  12.471 -0.0563 -0.1924  0.2807
30357W        W47204  11.796  16.482   2.773 -0.0215 -0.0918  0.3459
30358W        W47205   2.868   1.654   3.860  0.2580  0.2891  0.0420
30359W        W47206  14.414   0.390  14.325 -0.3381 -0.0188  0.1045
30360W        W47207  12.404   3.236  11.103  0.2151 -0.0842 -0.2658
30361W        W47208   8.931   2.899  11.919  0.2431 -0.3690 -0.1982
30362W        W47209   4.003   4.420  12.064 -0.1079  0.4642 -0.0591
30363W        W47210   0.584   8.193  13.980  0.1554  0.4323  0.1870
30364W        W47211   3.722   5.454   1.353  0.0540 -0.1167  0.1829
30365W        W47212  10.363   1.655  11.253 -0.2144  0.0222 -0.1132
30366W        W47213   6.424   3.104  14.382  0.0980 -0.2032 -0.0049
30367W        W47214  13.034   6.923  13.315  0.1229  0.1931 -0.2027
30368W        W47215  10.491  12.800   5.163 -0.0427  0.2059 -0.1488
30369W        W47216  16.475   3.346  13.460  0.1094  0.2244 -0.3038
30370W        W47217   9.945  14.358  13.185 -0.0616 -0.0450 -0.1344
30371W        W47218  16.417  18.385  11.792  0.1560 -0.0504  0.1321
30372W        W47219   5.915   0.972   0.232 -0.0131 -0.3186  0.1334
30373W        W47220  17.435   2.148  12.671 -0.0662  0.0978  0.0938
30374W        W47221   6.919   5.182   0.188 -0.2183 -0.3289  0.0148
30375W        W47222   1.607   4.792   3.822  0.0743 -0.3558 -0.0661
30376W        W47223  15.663   7.054   0.664 -0.0471 -0.1743 -0.0567
30377W        W47224   5.605  11.343   4.678 -0.0718  0.1618  0.3667
30378W        W47225   2.163  16.121   2.012  0.0550  0.1236  0.1745
30379W        W47226  12.153   7.462  14.507 -0.0969  0.4702  0.0654
30380W        W47227   1.806  18.035   3.417  0.3408 -0.0993 -0.0186
30381W        W47228  10.259  17.958   4.128  0.1391  0.0582 -0.1345
30382W        W47229   1.957   9.769  13.747  0.0975 -0.1774 -0.1471
30383W        W47230   5.858   8.806   1.635  0.1142  0.1131 -0.0142
30384W        W47231   9.109   4.707   2.916  0.3619  0.0546 -0.0277
30385W        W47232  15.753  18.052   1.948 -0.0198  0.0827  0.0324
30386W        W47233   7.632  17.646  13.393 -0.0056  0.2143  0.3140
30387W        W47234   0.984  10.698   1.095 -0.0251 -0.1253 -0.3301
30388W        W47235  13.189  17.103   0.638 -0.2791 -0.1599 -0.2432
30389W        W47236  13.933  17.327   1.451 -0.2494  0.0832 -0.1071
30390W        W47237  12.898  18.341   1.610  0.0436 -0.0166 -0.2481
30391W        W47238  11.866   8.701   3.754  0.4740  0.1422  0.0071
30392W        W47239  14.704   6.242   0.504 -0.1462  0.3698 -0.1977
30393W        W47240   2.144   4.176   3.985 -0.1403  0.0777 -0.0212
30394W        W47241  11.735  14.892   0.863 -0.3386  0.0428 -0.1502
30395W        W47242  15.713   0.726  10.798 -0.0500  0.0892  0.2265
30396W        W47243  11.189  17.197   4.543  0.1468 -0.0823  0.1684
30397W        W47244  18.381   1.635  10.110 -0.1489  0.3002  0.2918
30398W        W47245   2.833   3.550   1.691 -0.3089 -0.0845  0.3427
30399W        W47246   5.227  18.853  13.739 -0.4460  0.0882  0.2743
30400W        W47247   9.986  14.173  11.125 -0.0754 -0.0258  0.3483
30401W        W47248   8.195   6.065   2.737  0.0673 -0.3980  0.1342
30402W        W47249   7.563  18.682  15.375  0.0554 -0.0656  0.0046
30403W        W47250  10.944  18.104  12.320 -0.3015 -0.0449 -0.1518
30404W        W47251  12.477   0.194  15.259  0.2013  0.2250 -0.2065
30405W        W47252   7.572  17.767   0.664  0.0762  0.1607  0.2276
30406W        W47253  16.713  13.906   0.497  0.1133 -0.1192 -0.2551
30407W        W47254   9.022   2.821   2.663  0.0105  0.0997 -0.1491
30408W        W47255   7.493  10.326  11.808 -0.2579 -0.1342  0.2993
30409W        W47256   6.700   5.161  15.520  0.1111  0.1987 -0.2792
30410W        W47257   3.570  16.273   3.248  0.0369  0.5675  0.1468
30411W        W47258   1.096   0.576  11.299  0.0353  0.0568 -0.2805
30412W        W47259  11.441  16.842   1.623  0.1842 -0.0250 -0.0681
30413W        W47260  18.516   1.135   0.268  0.1749  0.0018  0.0157
30414W        W47261  18.191  12.443  13.154  0.1526  0.0622 -0.3830
30415W        W47262   8.838  11.586  13.925  0.2746 -0.1521 -0.3836
30416W        W47263  16.658  16.156   3.725  0.1551  0.3354  0.1423
30417W        W47264   6.612   6.453  12.569  0.0475  0.3393 -0.2494
30418W        W47265  15.031  13.759   2.606 -0.4377  0.0022 -0.0776
30419W        W47266  11.987  14.669   4.611 -0.0361  0.1268 -0.3715
30420W        W47267  11.140   7.558  13.021  0.3448 -0.0314 -0.1501
30421W        W47268  11.186   3.391   4.210 -0.0166 -0.3269 -0.1489
30422W        W47269  14.028  13.033   3.328 -0.0781 -0.0691 -0.2369
30423W        W47270  17.385   1.468  15.314 -0.0203  0.1307 -0.0231
30424W        W47271   9.988  18.633   1.776 -0.1063 -0.1819  0.0635
30425W        W47272  13.777   1.298  12.788 -0.2170 -0.4609 -0.1795
30426W        W47273   6.228   2.980  10.992 -0.1496 -0.2059 -0.0383
30427W        W47274   7.180   0.237   1.934 -0.0426  0.1434  0.4462
30428W        W47275  15.521   1.073   4.604 -0.0582  0.2006  0.0300
30429W        W47276   5.347   0.015   3.972 -0.0113 -0.2304 -0.0983
30430W        W47277   0.982  10.977   0.576 -0.0720  0.0487 -0.1313
30431W        W47278  15.004   5.470  15.594 -0.1389  0.4068  0.0262
30432W        W47279   9.959   5.444   3.649 -0.0311 -0.2897  0.1022
30433W        W47280   7.494  11.301  14.985  0.3122  0.1177  0.0245
30434W        W47281  18.628   8.870   3.538 -0.0705  0.2005 -0.0719
30435W        W47282   0.192   3.869   0.511 -0.1362  0.1579 -0.1242
30436W        W47283  17.736  12.258   1.581  0.2991  0.0282  0.0150
30437W        W47284  15.533   9.144  15.739  0.0743  0.0930  0.1667
30438W        W47285  18.465   9.237   3.188  0.0920  0.2293  0.0036
30439W        W47286  12.938   7.436  13.240 -0.1856 -0.2995 -0.1544
30440W        W47287   6.384   0.277  11.899  0.3709  0.0923 -0.0187
30441W        W47288  10.480   5.255   4.081 -0.2492 -0.2037 -0.1370
30442W        W47289   2.164   9.079  14.087  0.0143  0.3523  0.1745
30443W        W47290   4.886   2.297  14.746 -0.3068  0.2881 -0.0324
30444W        W47291   7.224   2.105   3.313 -0.0939  0.1689  0.1660
30445W        W47292  12.640  10.322  15.189  0.1503  0.1407 -0.0088
30446W        W47293   9.710   8.166   3.599  0.3204  0.4199 -0.0879
30447W        W47294  13.096   2.452  11.086  0.2223 -0.0166 -0.2406
30448W        W47295   5.497  15.696   1.086  0.2250  0.1546  0.1452
30449W        W47296  15.554   2.157  14.554  0.0704  0.0311 -0.1257
30450W        W47297   3.414  15.188   0.406  0.2845 -0.0355 -0.1292
30451W        W47298   1.339  15.183  15.106  0.3141  0.1815  0.3141
30452W        W47299  17.012  17.152  12.231  0.0999  0.3617 -0.1854
30453W        W47300   0.327   3.052   4.712 -0.0629 -0.1003 -0.5413
30454W        W47301   6.084  18.356  12.997  0.2405 -0.1357 -0.0796
30455W        W47302  16.591   7.178   2.061  0.3400 -0.3387  0.1464
30456W        W47303   6.361   4.134   5.319 -0.3503 -0.3982 -0.0690
30457W        W47304   6.744   7.851  13.936  0.0882 -0.0397  0.0241
30458W        W47305  11.184   4.358   0.972  0.1136  0.0632 -0.1272
30459W        W47306   9.947   2.561   4.268  0.0963  0.1390  0.1978
30460W        W47307   9.277  11.841  13.998 -0.0907  0.3826 -0.1434
30461W        W47308   9.169  17.495  14.278 -0.1068 -0.4116  0.0271
30462W        W47309  14.703   8.437  13.572  0.1586 -0.0222  0.0304
30463W        W47310   3.050  11.779  11.431 -0.0734  0.1853 -0.0107
30464W        W47311   6.304   3.830   2.197 -0.2956 -0.2229 -0.0545
30465W        W47312  16.277  16.342   2.006  0.0602 -0.2414 -0.1527
30466W        W47313  13.304  13.244   0.883  0.3577  0.0880  0.3126
30467W        W47314   1.120   1.482   3.449  0.3803  0.0245 -0.0826
30468W        W47315  18.305  13.519  15.177  0.0334  0.1008 -0.1998
30469W        W47316   0.871  12.245   4.378  0.0055  0.1992  0.0420
30470W        W47317   1.522  11.297   1.519 -0.1826 -0.1754 -0.1061
30471W        W47318  14.171  17.910  12.449 -0.0778 -0.1729  0.2898
30472W        W47319   9.549   7.352  12.169 -0.0344 -0.0919  0.1119
30473W        W47320   2.555   3.378   5.718 -0.1026  0.2655 -0.2344
30474W        W47321   6.780   1.509   5.037 -0.4219  0.0885  0.1489
30475W        W47322   2.126  16.016   1.482  0.5891  0.1607  0.4123
30476W        W47323   4.013  12.984  13.177 -0.0218  0.2353  0.0179
30477W        W47324  11.323   1.282   3.005  0.1628  0.0349 -0.0646
30478W        W47325   6.245   6.899  13.144 -0.1010 -0.2841 -0.3247
30479W        W47326  18.291   1.374   5.087 -0.0302 -0.0647  0.0154
30480W        W47327  16.551   8.029   4.548  0.0499 -0.1055 -0.2417
30481W        W47328   8.423   1.054   0.511 -0.2295  0.0321 -0.1497
30482W        W47329  11.202   0.140  13.947  0.0592  0.0830 -0.6483
30483W        W47330   3.430   3.512  15.108  0.2186  0.1290  0.0629
30484W        W47331   5.518  12.526   3.418  0.0901  0.0663  0.1246
30485W        W47332   6.011   8.188  14.250 -0.2072  0.1665  0.1038
30486W        W47333   8.198  10.349   1.998 -0.0147 -0.0261  0.3026
30487W        W47334   4.379   4.268   3.139  0.0527 -0.5943 -0.0781
30488W        W47335   5.557   8.142   5.459  0.0658 -0.1945 -0.2452
30489W        W47336  11.555  10.197   1.056 -0.0279  0.0892 -0.0325
30490W        W47337  10.855  12.481  11.947  0.3763 -0.1605  0.2979
30491W        W47338  18.765   3.711   2.220  0.2845  0.2189 -0.0792
30492W        W47339  12.553   9.418  13.951 -0.1055  0.0059 -0.0998
30493W        W47340  16.784   2.329   1.084 -0.1384 -0.1902  0.0997
30494W        W47341   4.783   7.587   3.390 -0.0198  0.1598  0.2528
30495W        W47342   1.375  12.368   2.145 -0.1795  0.1300 -0.0806
30496W        W47343   2.356  12.778   1.646 -0.1891 -0.0384 -0.2140
30497W        W47344   7.056   8.197  13.152 -0.3435 -0.3020  0.2973
30498W        W47345  17.191  14.043   0.634  0.2900 -0.0319 -0.0325
30499W        W47346   5.694  16.335   4.126  0.1258  0.1613  0.2801
30500W        W47347   2.707  16.156   3.337 -0.1815  0.0702  0.2354
30501W        W47348  16.333   5.548   4.963 -0.1467  0.3386  0.1477
30502W        W47349   7.016   2.521  10.839 -0.2422  0.2051 -0.1773
30503W        W47350  13.886  18.598   3.228 -0.4157 -0.0561  0.2652
30504W        W47351   0.909  16.539  13.021  0.3284  0.4901 -0.2520
30505W        W47352   2.357   1.244   1.319 -0.3795  0.0165 -0.4414
30506W        W47353   1.769  10.929   2.906  0.0994  0.0122  0.1651
30507W        W47354  15.809   1.061   4.013  0.3231 -0.3706 -0.0391
30508W        W47355  12.063   6.515  11.499 -0.0076 -0.1750  0.1119
30509W        W47356   1.285  11.351   0.085  0.2773 -0.0572 -0.1567
30510W        W47357   9.122  12.518   3.685  0.1466 -0.0811  0.2357
30511W        W47358   0.108  17.827  12.333  0.4212  0.0592  0.1213
30512W        W47359   0.888  13.773  13.649 -0.1949 -0.0615 -0.0642
30513W        W47360  11.437   7.173   2.167 -0.2110  0.0693 -0.1635
30514W        W47361   4.879  12.404   1.323  0.3412  0.0919  0.0011
30515W        W47362   5.745   0.534   4.835  0.2461 -0.0750 -0.2463
30516W        W47363   1.355  12.840   0.304  0.2517 -0.1954 -0.5677
30517W        W47364   5.281  14.436  14.167 -0.1611  0.2738 -0.0700
30518W        W47365  10.011   4.978   4.817 -0.0796 -0.0704 -0.2825
30519W        W47366  17.976  12.406  10.880  0.0182 -0.1441  0.2000
30520W        W47367   5.161   6.776   3.368 -0.5604 -0.2419 -0.2927
30521W        W47368   2.850  13.616  13.610 -0.0834  0.0203 -0.3969
30522W        W47369   9.976  11.087   2.128  0.0483  0.1151 -0.1840
30523W        W47370   5.075   7.839   0.796  0.1892  0.1987 -0.0025
30524W        W47371   9.182   8.922  13.785 -0.0803 -0.0429  0.1480
30525W        W47372  14.733  11.435   0.052  0.0366  0.3624 -0.1288
30526W        W47373   4.304  10.220   0.633 -0.0339 -0.2880 -0.0289
30527W        W47374  16.030  10.452  12.582  0.0193  0.1017  0.1960
30528W        W47375   0.939  12.747   2.992  0.2905 -0.1911  0.0339
30529W        W47376  15.414  14.828   4.291  0.1164  0.4222 -0.0636
30530W        W47377   6.598  16.144   0.556 -0.0986 -0.2793 -0.0070
30531W        W47378  12.329  12.238  10.588  0.0409 -0.0540  0.0084
30532W        W47379   3.835   5.367  13.173  0.0820 -0.0659 -0.1001
30533W        W47380   8.658   3.165  14.816  0.3380 -0.1487 -0.1089
30534W        W47381  16.459  16.376  14.702  0.1573  0.3408  0.2637
30535W        W47382   9.100  14.196  10.878  0.0788 -0.0107  0.3255
30536W        W47383  13.636  10.351   3.783 -0.4218 -0.0457 -0.0580
30537W        W47384  15.781   1.078  13.648 -0.0534  0.1206 -0.1177
30538W        W47385   7.417  18.154  14.037 -0.1446  0.3380 -0.1999
30539W        W47386   2.475   8.730   3.636 -0.0729 -0.0933 -0.1240
30540W        W47387  17.302   2.010  15.232  0.2850  0.0351 -0.0095
30541W        W47388  16.311   4.207   2.973 -0.3782 -0.0259  0.0317
30542W        W47389  10.037  15.114  14.683  0.2124  0.1170 -0.0193
30543W        W47390   8.357  15.102  11.817 -0.3177 -0.0040  0.2115
30544W        W47391  15.897   0.276  14.312 -0.0481 -0.1429 -0.2505
30545W        W47392   2.062   6.792   3.789 -0.1991 -0.0750 -0.2855
30546W        W47393  16.713  17.478   4.450 -0.2565  0.0952  0.1298
30547W        W47394   2.501  11.252   5.078  0.1105 -0.1230 -0.2352
30548W        W47395   2.994   1.714  12.193  0.1564  0.1549 -0.3541
30549W        W47396   3.427   0.521   0.175 -0.0509  0.3055  0.2097
30550W        W47397  14.216   3.049  11.655 -0.0640  0.2579  0.2992
30551W        W47398  17.104   8.877  13.859  0.0079 -0.2160  0.0993
30552W        W47399   3.567   7.249  15.340  0.4564 -0.3020 -0.1301
30553W        W47400   6.771   4.331   1.434 -0.1463 -0.0164  0.0102
30554W        W47401   1.485   3.818  15.562  0.0152  0.1272  0.0592
30555W        W47402   2.887   0.665  14.630  0.0047 -0.1097 -0.1199
30556W        W47403  10.258   8.737   9.414  0.0361 -0.4194  0.0183
30557W        W47404  10.162  17.050   0.777 -0.2804 -0.2725 -0.2223
30558W        W47405   8.112   6.617  12.841 -0.4536 -0.2663  0.1872
30559W        W47406   8.176   3.385  14.422 -0.1444  0.2223  0.0426
30560W        W47407   3.642  12.901  12.769 -0.2138 -0.0760  0.2263
30561W        W47408   6.343  18.463   0.009 -0.1052 -0.1598 -0.2810
30562W        W47409   6.733  15.877  10.985 -0.0909  0.1501 -0.3548
30563W        W47410  12.864   4.244   3.690  0.0148  0.1208  0.3298
30564W        W47411  10.526   9.115  13.906 -0.0877  0.3607  0.1726
30565W        W47412  10.421   5.074   1.795  0.3752  0.1187 -0.3170
30566W        W47413  12.287   8.338   1.739  0.2579 -0.0600 -0.0380
30567W        W47414   0.898   6.560  15.360  0.2634  0.0768  0.0921
30568W        W47415   6.941   1.250  14.844  0.1781  0.1615  0.0188
30569W        W47416   3.668   1.560  13.308  0.0468  0.2299  0.3087
30570W        W47417  13.003   7.712   1.946  0.2015 -0.3929  0.2377
30571W        W47418  10.012  13.201   0.412 -0.2239  0.1741  0.2568
30572W        W47419   2.562   1.635  11.870  0.1054 -0.0614  0.1281
30573W        W47420  14.194   1.588  14.753 -0.1450 -0.1423 -0.3095
30574W        W47421   4.477   0.077  10.894  0.1116 -0.0890 -0.2639
30575W        W47422   5.608   8.325  15.033 -0.0049 -0.3915 -0.0291
30576W        W47423   7.429  17.359   1.471 -0.1337  0.4540 -0.0082
30577W        W47424   6.529  10.833   3.481 -0.1971 -0.0948  0.0928
30578W        W47425   3.957  15.218  14.710  0.2261  0.0664  0.0560
30579W        W47426  14.354   2.106   1.493  0.0393 -0.1755  0.1495
30580W        W47427   0.097   2.515   4.728 -0.3157  0.2353  0.3966
30581W        W47428   4.736  11.880   4.475 -0.1048  0.1191 -0.0089
30582W        W47429  15.855  12.611   1.065  0.0289 -0.1516  0.2449
30583W        W47430   0.242  18.428   2.513 -0.3429  0.0702  0.1000
30584W        W47431  10.559  12.506  10.976  0.1035 -0.0401  0.1309
30585W        W47432   9.122  11.441   1.867  0.3102  0.0530  0.1687
30586W        W47433  11.435   9.481  11.359 -0.3150 -0.0826 -0.2144
30587W        W47434  16.629   8.540   4.657 -0.0826 -0.0055  0.1377
30588W        W47435  16.512  13.144   2.955 -0.0505  0.2295 -0.0153
30589W        W47436   3.845   3.185   0.003 -0.1654 -0.2398 -0.1527
30590W        W47437   7.117  17.068   2.556  0.2449  0.1046 -0.1423
30591W        W47438  17.486   7.233  11.792  0.0089 -0.2493 -0.4390
30592W        W47439   7.526  13.763  14.569 -0.1194 -0.4824 -0.0994
30593W        W47440   4.469   7.343   4.920 -0.1332  0.0968 -0.2235
30594W        W47441  10.072   2.173  10.880 -0.0400 -0.0504  0.1304
30595W        W47442  13.383   2.152   5.146  0.2171  0.0357 -0.2387
30596W        W47443   9.778  10.015  12.068 -0.0278  0.2529  0.4324
30597W        W47444  17.157   0.202  14.876  0.0557  0.0078  0.2219
30598W        W47445  12.644  12.858  11.244 -0.0257 -0.1925 -0.0542
30599W        W47446  11.454   3.997   2.183  0.1961 -0.2443  0.2127
30600W        W47447   9.189  14.338   2.089 -0.2715  0.1267  0.0303
30601W        W47448  17.641  10.726  11.793  0.1528  0.0255 -0.0497
30602W        W47449  17.681   2.306   5.396  0.0545 -0.1039 -0.0004
30603W        W47450  17.631  18.399  12.208  0.1982  0.2772  0.2324
30604W        W47451  16.967   4.976  11.552 -0.0804 -0.0705  0.0777
30605W        W47452   6.606  13.780   3.740 -0.1924  0.1181 -0.1488
30606W        W47453   3.709   3.727   0.657 -0.1540  0.1775 -0.2597
30607W        W47454  17.076   6.703   4.851  0.0772 -0.0337 -0.1852
30608W        W47455  11.284   5.002   1.853  0.1571  0.2509  0.0185
30609W        W47456   6.668  13.001  12.724 -0.2399  0.0855  0.1284
30610W        W47457   8.666   3.732  11.985  0.0474 -0.4350  0.0151
30611W        W47458   8.038   8.264   0.304 -0.0275 -0.0023  0.1732
30612W        W47459  17.953   0.600  15.312 -0.1152 -0.0623 -0.0949
30613W        W47460  10.719  14.589  13.801  0.0924  0.1454 -0.1003
30614W        W47461  13.771  14.868   1.881  0.1542  0.5057 -0.0759
30615W        W47462   8.121  15.695  14.308  0.2212  0.1712  0.0372
30616W        W47463   5.010   3.752   4.071 -0.0411 -0.1049 -0.2420
30617W        W47464   5.970  10.593  14.148  0.2975  0.0407  0.2000
30618W        W47465  12.482  14.587   5.907  0.0837  0.1118 -0.0794
30619W        W47466   4.293  14.049  11.219  0.1959  0.1045 -0.1459
30620W        W47467   1.325   1.843   3.722 -0.1226 -0.0999  0.0070
30621W        W47468   6.669   6.579   2.703  0.0609 -0.1099  0.0864
30622W        W47469  12.105  18.426   3.981 -0.0343 -0.0206  0.0470
30623W        W47470   2.251  11.141  13.210  0.0261 -0.0716 -0.3791
30624W        W47471  11.586  17.554  13.692  0.0272  0.2849 -0.1097
30625W        W47472  14.071  11.866  15.591 -0.2171 -0.2302  0.0985
30626W        W47473   4.708   4.830  15.375 -0.0583  0.1080 -0.1966
30627W        W47474   9.205   4.646  15.695 -0.0793  0.0924  0.3311
30628W        W47475  18.818  10.094   3.596  0.1516  0.1344  0.0488
30629W        W47476   2.678   4.490  12.462  0.0407 -0.3079  0.2593
30630W        W47477  13.063   8.792  13.172  0.1405 -0.1602 -0.0938
30631W        W47478  10.117   1.711  15.301 -0.0958 -0.0216 -0.0773
30632W        W47479   1.322  10.290   1.161  0.1000  0.2598 -0.1659
30633W        W47480   6.855   3.107   1.383  0.0300 -0.3467  0.2244
30634W        W47481   8.976  18.784   1.921 -0.0836  0.1288 -0.1737
30635W        W47482  18.796  14.987  14.217 -0.0905 -0.1393  0.2046
30636W        W47483  10.206   3.354  11.089  0.4997 -0.0185  0.2937
30637W        W47484   8.049   5.798   1.177  0.2486 -0.0792 -0.0089
30638W        W47485   5.337   3.660  12.523 -0.1833 -0.1623  0.3497
30639W        W47486  10.677   1.350   1.114  0.0557 -0.1619  0.1834
30640W        W47487   9.775  11.223   1.281  0.0482  0.2233 -0.0206
30641W        W47488   1.915   3.452   2.765  0.3222  0.0474  0.0202
30642W        W47489  11.679  14.808  13.702  0.1315 -0.1743  0.3993
30643W        W47490   4.986   2.728   2.078 -0.1674 -0.0414 -0.1609
30644W        W47491  11.229   2.891  15.342 -0.3843  0.2363  0.2668
30645W        W47492  17.298  12.984  14.613  0.0433 -0.2115  0.0639
30646W        W47493  14.682  17.316  11.825  0.1149  0.1529 -0.0259
30647W        W47494   7.409   2.816  13.294  0.2429  0.2704 -0.1497
30648W        W47495   5.087   8.118  13.057  0.1640  0.1790 -0.1722
30649W        W47496  12.512   5.869   0.547 -0.1062 -0.1366 -0.2073
30650W        W47497  11.805   9.314  14.069 -0.1140  0.0826  0.2752
30651W        W47498   1.879  16.156  12.176 -0.3337  0.3205 -0.0848
30652W        W47499  13.076  16.393   3.925 -0.1593 -0.2978  0.2935
30653W        W47500   4.578   9.436  11.782 -0.2581  0.1488 -0.0803
30654W        W47501   0.545  10.580  13.878 -0.1283  0.1321  0.3504
30655W        W47502  17.600   9.653   3.874  0.0592  0.1711  0.3284
30656W        W47503  12.614   3.985   0.810  0.3418 -0.1010 -0.2445
30657W        W47504   9.452  15.118   0.303  0.2177  0.0574  0.0245
30658W        W47505   8.620   0.154   2.281  0.1084 -0.0614  0.1912
30659W        W47506  17.733   4.882   4.153 -0.1147  0.1588  0.2090
30660W        W47507  10.995   7.512   2.109  0.0493 -0.2521 -0.0717
30661W        W47508  17.692   3.158  12.944 -0.2776 -0.0015  0.0974
30662W        W47509   1.846   5.606  15.033  0.1508 -0.1288  0.1085
30663W        W47510  10.695  10.734   1.868  0.0389 -0.0475  0.2442
30664W        W47511   1.894  17.690  12.483 -0.2894 -0.1215  0.1012
30665W        W47512  13.672   6.912  11.317 -0.0754 -0.1974  0.1623
30666W        W47513   0.396   0.977  11.734 -0.1659  0.0264 -0.0842
30667W        W47514   5.045  12.947   2.865  0.0130  0.2969 -0.0872
30668W        W47515   4.176   6.089  13.776  0.3698  0.3818 -0.1030
30669W        W47516  15.989   8.136  11.993  0.2494 -0.5324  0.0652
30670W        W47517  18.778   5.950   2.434  0.3158 -0.1419  0.2541
30671W        W47518   1.055  16.178   3.725  0.0729  0.1998  0.2044
30672W        W47519   0.639   5.903   0.363  0.1087  0.0627  0.3338
30673W        W47520  13.563   9.039  13.997 -0.0742  0.1133  0.1327
30674W        W47521  18.278  11.398   1.387 -0.2407 -0.2045 -0.0640
30675W        W47522   7.952  11.248  12.351  0.1633 -0.0771  0.1567
30676W        W47523   5.791   8.237   3.114  0.1539 -0.4979 -0.0023
30677W        W47524   9.699   7.339  10.721  0.1846  0.1378  0.1585
30678W        W47525   6.392   6.423   3.233  0.2270 -0.1956  0.1045
30679W        W47526  17.118   3.136   0.569  0.2958 -0.1681 -0.4366
30680W        W47527   6.877   9.890   4.329  0.1913  0.2300  0.0368
30681W        W47528  15.911  11.614   1.355  0.2456 -0.0246  0.2686
30682W        W47529   8.127   7.674   3.731  0.0412  0.1170 -0.2399
30683W        W47530   3.754   9.254  11.583 -0.0882  0.1584  0.0408
30684W        W47531   3.788  15.209  11.726 -0.1042 -0.2082 -0.2554
30685W        W47532  11.274   9.787   1.165 -0.0132  0.0092 -0.1019
30686W        W47533  12.949   1.667   3.086 -0.0706 -0.0769  0.0143
30687W        W47534  14.527   9.247   2.653 -0.1854 -0.0306 -0.0886
30688W        W47535   1.499  18.830   3.474  0.0731 -0.3246  0.3679
30689W        W47536  10.945   0.724   4.657  0.0273  0.1348  0.2694
30690W        W47537  10.429   5.543  11.893  0.3611 -0.2960  0.0582
30691W        W47538   2.205   8.585  12.334 -0.0329  0.1936  0.0428
30692W        W47539   5.358  13.090  15.315  0.0262 -0.2196  0.1493
30693W        W47540   0.442   4.278   3.898  0.1344  0.1076 -0.2871
30694W        W47541  17.112  10.956   3.480  0.0185 -0.4484  0.0948
30695W        W47542  17.054   9.225  11.698  0.4715 -0.0362  0.0005
30696W        W47543   1.757  18.052  15.038 -0.2784 -0.2926 -0.2152
30697W        W47544   9.082   6.992   4.197  0.0226 -0.3046  0.2317
30698W        W47545  11.653   9.501   5.837  0.2868  0.0757  0.2738
30699W        W47546   8.983   9.430  13.488  0.3710 -0.0936  0.0128
30700W        W47547   4.824   9.806  12.201 -0.1745 -0.0212  0.1643
30701W        W47548  11.768  10.411   1.901 -0.2546 -0.2146  0.1344
30702W        W47549  12.292  13.403  13.580 -0.2729 -0.2130  0.1152
30703W        W47550  12.890   0.434   2.107 -0.0058 -0.1162 -0.1931
30704W        W47551   4.086   9.308  13.547 -0.2679  0.0129 -0.0982
30705W        W47552  13.586  10.974   1.285 -0.0646 -0.4341 -0.4353
30706W        W47553  18.737   0.792   4.713  0.1444  0.3110  0.1395
30707W        W47554   6.623   9.884   0.472 -0.3485 -0.3388  0.4328
30708W        W47555   8.677   8.418  11.042  0.2093  0.0603  0.3355
30709W        W47556   4.640  11.720   3.509  0.1442 -0.2086 -0.2523
30710W        W47557  14.728  13.721   4.349  0.1667  0.0310 -0.0425
30711W        W47558  18.499   6.626  14.909  0.1630  0.0609 -0.2112
30712W        W47559  12.136   7.067   1.413  0.5084 -0.1250 -0.1761
30713W        W47560   6.331   8.257   0.630 -0.1471 -0.4150  0.2960
30714W        W47561  14.482  14.511   6.032  0.0327 -0.0964 -0.2421
30715W        W47562   4.514  15.267  11.590 -0.0423  0.0900  0.0368
30716W        W47563   8.181  17.943   3.887 -0.0398  0.0161  0.2437
30717W        W47564   2.954  15.146  14.316  0.0145 -0.2942 -0.2145
30718W        W47565  18.379  13.548  15.739 -0.0123 -0.2194  0.1097
30719W        W47566  17.029  16.483   0.817 -0.0189  0.0250  0.0009
30720W        W47567   0.784   2.322   2.999  0.0691  0.0188 -0.1625
30721W        W47568   4.698  13.132   4.133  0.0431  0.0698  0.0791
30722W        W47569  18.320   3.524  12.379 -0.0454  0.1930 -0.0173
30723W        W47570  15.188   5.825  13.368  0.1256  0.0011 -0.0997
30724W        W47571   3.187  15.015  14.757  0.3084 -0.0582  0.0847
30725W        W47572  12.129  10.911  14.049  0.1596  0.0345 -0.1553
30726W        W47573   0.666   2.274  12.709 -0.1763  0.2186 -0.2005
30727W        W47574  10.822   6.524   3.112 -0.2224 -0.4019  0.0487
30728W        W47575  11.548  13.711   1.253 -0.1934 -0.2011  0.2215
30729W        W47576  10.144  11.266  12.396 -0.1568  0.2677  0.2602
30730W        W47577   0.309   0.674   3.839 -0.2262  0.0009 -0.2323
30731W        W47578   0.522   1.926  15.210  0.0105  0.2326  0.0448
30732W        W47579   9.527  17.644   0.098  0.2114 -0.0791  0.0541
30733W        W47580  11.531  13.366   3.849  0.1948  0.0827  0.0616
30734W        W47581   8.545  16.712   4.338  0.2378 -0.0241  0.1396
30735W        W47582   0.510  17.542   2.462 -0.3064 -0.3602 -0.1212
30736W        W47583  17.072  11.379   4.356 -0.3824 -0.2479 -0.0281
30737W        W47584  15.815   5.358   0.357 -0.2660 -0.1389  0.1190
30738W        W47585   8.264   7.417   4.948 -0.1326 -0.2470 -0.2631
30739W        W47586   1.224   4.786  11.479  0.4943  0.2269  0.3717
30740W        W47587   6.453  12.436   3.953  0.2683  0.0637  0.1158
30741W        W47588   8.974  15.655   4.740 -0.0827 -0.0484 -0.2161
30742W        W47589  17.448  15.989   3.169 -0.0589 -0.0917 -0.1115
30743W        W47590   8.832   1.044  15.670 -0.3133  0.0096 -0.1226
30744W        W47591   9.079  11.883   1.472 -0.1744 -0.2029 -0.0851
30745W        W47592  13.219   5.244   3.568  0.2562  0.4151 -0.0942
30746W        W47593   1.127  15.676  11.831 -0.1015 -0.1426  0.1174
30747W        W47594  15.926  14.592   0.107 -0.0357 -0.3292  0.5995
30748W        W47595  14.409  17.056   1.117  0.0911  0.0683  0.2298
30749W        W47596  13.655   3.065   2.565  0.0950  0.2879  0.1308
30750W        W47597   8.241   5.326  12.356  0.1658  0.1256  0.0379
30751W        W47598  12.462  18.453  14.000  0.0557  0.1529  0.3942
30752W        W47599  15.889   0.981   2.299 -0.1160  0.1533  0.2290
30753W        W47600   2.415  16.690   0.360 -0.1132 -0.0632  0.2413
30754W        W47601   2.506   3.907  14.317  0.0823  0.1381 -0.0784
30755W        W47602   7.231   6.126   3.469  0.0145 -0.1516 -0.1486
30756W        W47603  11.154   2.387  12.795 -0.0118  0.2481 -0.0134
30757W        W47604   9.728  16.131  15.507 -0.1657 -0.1682  0.1073
30758W        W47605   3.064   6.029  12.587 -0.1185 -0.1390  0.0630
30759W        W47606   8.950   8.555   4.733 -0.2927 -0.3112 -0.4507
30760W        W47607  13.430  12.086   3.356 -0.0319  0.0388  0.1948
30761W        W47608  16.972   7.520   0.474  0.1144 -0.0531 -0.0097
30762W        W47609  17.088  12.979   1.528 -0.4493  0.1569 -0.0511
30763W        W47610   1.683  10.579  11.036  0.1314 -0.1621  0.0851
30764W        W47611  12.342   0.308   1.734 -0.1417 -0.0009 -0.1611
30765W        W47612   6.680  16.927  11.805  0.1151 -0.1546 -0.0143
30766W        W47613   8.672   4.379   0.602 -0.2086  0.2033 -0.2206
30767W        W47614   5.535  10.681  13.968 -0.1583 -0.0742 -0.0625
30768W        W47615  10.782  10.236   0.410  0.1536 -0.0461 -0.2250
30769W        W47616   0.087  11.475  15.055  0.3395  0.1345  0.3344
30770W        W47617  12.171  18.436   0.759  0.0689 -0.1615  0.0180
30771W        W47618  18.662   4.539   0.773 -0.2224 -0.2632  0.3392
30772W        W47619  10.411   4.855   1.295 -0.2421 -0.1521 -0.1666
30773W        W47620  13.435  15.000   5.228 -0.0764 -0.2000 -0.0453
30774W        W47621   5.461   5.913  13.472 -0.3912 -0.1856 -0.0771
30775W        W47622   8.622   2.114  12.638 -0.1331  0.1406 -0.4104
30776W        W47623  13.633   8.948   5.078  0.0670  0.1476  0.3675
30777W        W47624   3.122  11.586  14.589  0.3567 -0.2838 -0.2295
30778W        W47625  10.685  11.248   3.410 -0.3429 -0.0345 -0.0635
30779W        W47626   9.737   0.189   1.505  0.1718 -0.0523 -0.4255
30780W        W47627   7.127  18.601   5.655 -0.0281 -0.1605  0.0084
30781W        W47628  17.675   7.119   5.407  0.2198  0.0604  0.3790
30782W        W47629  16.553  13.517  11.873  0.1495  0.0825  0.1559
30783W        W47630   6.549   2.681   0.112 -0.0079 -0.3874 -0.0158
30784W        W47631  14.480  17.041  13.223 -0.0227 -0.3009 -0.0599
30785W        W47632   5.824   2.510   0.551 -0.2823 -0.1717 -0.0633
30786W        W47633  14.114   1.955   1.066  0.1535 -0.0450  0.1166
30787W        W47634  14.570  18.225  13.847  0.1954  0.2295 -0.0506
30788W        W47635   4.273  13.330   0.898  0.0834 -0.0176  0.4616
30789W        W47636  16.100   7.107   2.551 -0.1268  0.1754  0.2490
30790W        W47637  10.102   4.104   3.621 -0.3031  0.3666 -0.4201
30791W        W47638   1.901  10.537   1.914  0.2651  0.1479 -0.2708
30792W        W47639   5.043   8.636  12.819  0.0922  0.0860 -0.0147
30793W        W47640  15.684   4.900   0.278  0.1391 -0.2852  0.0531
30794W        W47641   9.398  13.986   1.202  0.0782  0.1388 -0.0065
30795W        W47642   8.021  15.764   2.851  0.0033 -0.1957  0.1318
30796W        W47643  15.487   6.651  15.475  0.3258 -0.4393 -0.4140
30797W        W47644  12.167  16.229  13.560  0.1720 -0.2466 -0.0070
30798W        W47645  16.641   6.195   3.685  0.2057 -0.1443  0.0898
30799W        W47646  15.220   4.302  14.830  0.1967  0.1138 -0.1712
30800W        W47647   7.162   4.833  15.043  0.0531  0.1154 -0.0613
30801W        W47648  10.500   4.431  11.336 -0.4245  0.2169  0.0732
30802W        W47649  14.057  11.822  11.274  0.1566  0.0908  0.1195
30803W        W47650  17.106   5.721   1.876 -0.1498  0.0651  0.4694
30804W        W47651   1.621   2.836   4.598  0.3839  0.0365  0.2631
30805W        W47652   9.629   5.823  11.439  0.0992 -0.1564 -0.1523
30806W        W47653  17.368  17.601   4.878  0.2870  0.3700 -0.2432
30807W        W47654   4.493   2.944   2.104  0.1176  0.0935  0.3157
30808W        W47655  15.893   3.912   0.637 -0.0630  0.0328 -0.1263
30809W        W47656   6.398   4.258   1.109  0.3630 -0.1485  0.3042
30810W        W47657  13.171  15.039  11.209  0.1589  0.2508  0.1716
30811W        W47658  14.232  12.226  15.269  0.3336  0.0998 -0.0433
30812W        W47659  14.410   1.019   4.302 -0.3602 -0.1239  0.0191
30813W        W47660   4.378  16.056   3.337  0.1546 -0.3736 -0.1698
30814W        W47661  18.493   3.361   1.397  0.0063 -0.1902 -0.2375
30815W        W47662   7.015  17.004   0.499  0.3179  0.0337 -0.4043
30816W        W47663   8.931  13.218  12.635  0.3695 -0.0988 -0.1898
30817W        W47664   7.516   2.407  10.928  0.0490 -0.1373 -0.0234
30818W        W47665   7.223  12.758  11.652  0.0564 -0.1770 -0.1432
30819W        W47666  10.328  10.624  13.889  0.1686 -0.1533  0.0393
30820W        W47667   6.637   1.963  13.732  0.1888 -0.2720  0.0509
30821W        W47668   4.360   7.171   2.010  0.0442 -0.1699 -0.1656
30822W        W47669  18.223   3.346   3.861 -0.1091 -0.1501 -0.0224
30823W        W47670  10.293   3.941  11.096 -0.0629 -0.1220 -0.2076
30824W        W47671   2.422  10.402  14.294 -0.0063 -0.0715 -0.5548
30825W        W47672  13.926  14.332   4.278 -0.0769  0.1840  0.2207
30826W        W47673   3.544  17.550   4.571  0.0346 -0.2889  0.1216
30827W        W47674   3.998  16.846  12.115  0.0491 -0.0818 -0.1795
30828W        W47675   8.815   3.818  13.462  0.0030 -0.0043  0.1053
30829W        W47676   0.012  16.909   1.874  0.3698  0.2478  0.1458
30830W        W47677  15.885  15.275  14.056  0.4378 -0.3086  0.3000
30831W        W47678   4.351   6.874   1.273 -0.4336  0.1123  0.4465
30832W        W47679  18.712   7.083   1.352 -0.3516  0.0955  0.1052
30833W        W47680  12.515   6.479   4.197 -0.0411  0.1390 -0.0470
30834W        W47681   6.340   7.512   5.385 -0.0355  0.0648  0.0970
30835W        W47682   4.778  12.717  11.619  0.0777 -0.1406 -0.1270
30836W        W47683  18.338   5.015  14.194  0.4008 -0.0554 -0.1399
30837W        W47684   2.068  16.849   4.074  0.5250  0.0149 -0.1612
30838W        W47685  13.584   9.223   0.697 -0.0394  0.2709  0.1256
30839W        W47686  11.812  16.069  12.501  0.0369 -0.1075 -0.1082
30840W        W47687  10.523  16.961  14.229 -0.1317  0.0190 -0.3017
30841W        W47688   4.418  15.457   3.610  0.0867  0.2418 -0.1889
30842W        W47689   4.078  11.908   4.573  0.1581 -0.1652 -0.1262
30843W        W47690   3.322  17.480  13.436  0.0400 -0.0183 -0.3439
30844W        W47691   8.601   0.078   0.477 -0.1315  0.2548 -0.0065
30845W        W47692   0.749  13.486  14.665  0.0599  0.0115  0.0991
30846W        W47693   8.330   6.313  14.021 -0.0849  0.3609  0.0939
30847W        W47694  11.514  15.788   5.028  0.1955 -0.1637 -0.0978
30848W        W47695   2.435  14.734  14.803  0.0124 -0.2161  0.0944
30849W        W47696   8.797   2.549  12.794  0.0057  0.3813  0.0354
30850W        W47697   7.421   8.310  12.661  0.0711  0.2583  0.0306
30851W        W47698   5.460  16.905  12.333 -0.4181 -0.2912 -0.2710
30852W        W47699  18.013   9.362   3.638 -0.2392  0.1937 -0.1562
30853W        W47700  15.148   0.570  12.235  0.3949 -0.2722 -0.3594
30854W        W47701  13.767   0.312   5.191 -0.1140  0.0163 -0.1506
30855W        W47702  14.924   5.307  12.170 -0.0876  0.0520 -0.2746
30856W        W47703   3.975  11.991  12.939  0.0993 -0.1273  0.0023
30857W        W47704  11.674  16.483  10.391 -0.2262 -0.2765 -0.0356
30858W        W47705   6.954   0.509  13.225  0.0062  0.3132  0.2727
30859W        W47706  18.807  12.533  11.353 -0.4509 -0.1593  0.0224
30860W        W47707  15.871   9.393   2.028 -0.1123 -0.0890 -0.0339
30861W        W47708   2.701  17.702   3.153  0.1759 -0.1228  0.1215
30862W        W47709  17.770  17.994   5.706  0.2874  0.0348 -0.0670
30863W        W47710   3.080  13.603  11.031 -0.0841  0.5158  0.2190
30864W        W47711  11.332   6.201  12.593  0.2341  0.0142  0.0918
30865W        W47712   0.441   9.268  14.662 -0.0124  0.0181 -0.1051
30866W        W47713   8.990  13.131  13.529  0.0878  0.1729 -0.0780
30867W        W47714   4.772   6.358  11.631  0.1471  0.0589  0.1084
30868W        W47715   3.377   0.031  11.136  0.1469  0.2595 -0.0161
30869W        W47716  11.271  14.529  13.813 -0.0057  0.1992  0.0574
30870W        W47717   9.245  18.440   0.619 -0.1918 -0.4548 -0.1026
30871W        W47718  12.420  18.712  11.535 -0.1060 -0.0561  0.0784
30872W        W47719   1.789   0.601   0.834 -0.0411 -0.0553  0.1234
30873W        W47720   4.295   5.554   1.702  0.0343  0.0177  0.2849
30874W        W47721  10.342   4.357  14.969  0.0857 -0.2311 -0.1018
30875W        W47722  11.013   7.965  14.863  0.0902  0.3296 -0.1330
30876W        W47723  15.175  18.080  11.503  0.0027  0.0800 -0.0160
30877W        W47724   7.931   8.352   2.926  0.3062  0.0483 -0.0728
30878W        W47725   1.665  13.114  12.989  0.2648 -0.0729  0.1603
30879W        W47726  13.960  15.419   3.218  0.0067  0.2865 -0.1342
30880W        W47727   1.129   4.488  11.054  0.0176  0.1379  0.0565
30881W        W47728  16.276   6.383   4.715  0.0294  0.0108  0.0284
30882W        W47729  12.921   2.644   4.062 -0.0010  0.5261  0.0126
30883W        W47730   6.230  17.716  15.175  0.0328 -0.2122  0.2894
30884W        W47731   5.362   7.964   2.746 -0.2035  0.0519 -0.1611
30885W        W47732   4.536  11.038  11.566 -0.1432 -0.0795 -0.1212
30886W        W47733  17.634   7.705  13.862 -0.0971 -0.1155  0.1193
30887W        W47734   2.862  13.210  11.949 -0.2290  0.0585  0.2503
30888W        W47735  14.711   3.667  14.468 -0.2283  0.1072 -0.0483
30889W        W47736   5.897   8.427  12.338 -0.1798  0.1413 -0.0283
30890W        W47737   3.640   2.493  14.588  0.0699 -0.3987  0.6205
30891W        W47738  15.982  15.922  15.496 -0.2238  0.2913 -0.0701
30892W        W47739   0.214   3.814   3.892 -0.0746 -0.3046 -0.1040
30893W        W47740   9.618   2.140  14.620  0.1609 -0.0442 -0.3940
30894W        W47741   7.159   8.720   1.230 -0.4340  0.0978  0.2260
30895W        W47742  12.599  12.943  11.716 -0.1966  0.2257 -0.0896
30896W        W47743  15.263   6.630   1.295  0.3291  0.1974  0.1068
30897W        W47744  13.199  10.453   3.944  0.1083 -0.2583 -0.0165
30898W        W47745   6.274  13.459  14.527 -0.3730  0.2825 -0.0357
30899W        W47746  17.689  12.573  13.166  0.3275 -0.0052  0.3684
30900W        W47747  16.100   0.176   2.966 -0.0721  0.0902  0.1699
30901W        W47748   9.060   7.441   0.430 -0.1819 -0.0863  0.2721
30902W        W47749   5.131  10.152  14.437  0.3355  0.3580 -0.0580
30903W        W47750  10.749   5.666  13.230  0.2015 -0.0664  0.5956
30904W        W47751   0.482   4.870   1.384  0.0764  0.1787 -0.0538
30905W        W47752   1.783  16.770   2.461 -0.2633  0.0945 -0.0859
30906W        W47753  18.826   3.104  15.268 -0.2249  0.5494  0.1658
30907W        W47754  16.306  12.666   1.836  0.0201 -0.0921 -0.1427
30908W        W47755   8.095  15.685  14.789 -0.1612  0.0354 -0.4308
30909W        W47756   7.403  17.771  10.438 -0.1949 -0.2497 -0.1157
30910W        W47757  18.632  13.020   4.959  0.1796  0.0819  0.2824
30911W        W47758   1.779  15.225  15.412  0.1983 -0.0452  0.0883
30912W        W47759   0.212   0.775   5.175  0.0832  0.4709 -0.1811
30913W        W47760   0.970  12.250   2.498 -0.0525 -0.0186 -0.2692
30914W        W47761   9.007   6.306   2.929  0.0249  0.1348 -0.0403
30915W        W47762   3.884   5.305  11.225  0.0042  0.0296  0.0067
30916W        W47763  17.021  17.715  10.708  0.2809 -0.0336 -0.2013
30917W        W47764  14.890  16.281  12.607  0.0750  0.0215  0.2806
30918W        W47765   1.479   8.410  11.266  0.0074 -0.1510  0.2207
30919W        W47766  18.695  14.257  14.899  0.0591 -0.3884 -0.2122
30920W        W47767  14.241   8.691  14.744  0.0033  0.3137 -0.1148
30921W        W47768   2.597  18.543   4.995  0.1997  0.0652 -0.1194
30922W        W47769  13.143   9.743   0.963  0.1927 -0.0744 -0.1180
30923W        W47770  13.570   2.807   5.834  0.3460 -0.1156 -0.2463
30924W        W47771   5.827  15.924  15.223  0.0522 -0.0347 -0.2057
30925W        W47772   9.106   8.659  12.090 -0.1474 -0.1649  0.0491
30926W        W47773   6.801  10.260  14.541  0.1045 -0.0074  0.0419
30927W        W47774  18.545   9.267  14.341 -0.2299  0.3488 -0.2273
30928W        W47775  10.119   2.293   3.446  0.1181 -0.0696 -0.4673
30929W        W47776  16.785  10.824   5.055 -0.3325  0.1002  0.3378
30930W        W47777  13.851   2.014  14.733 -0.3739  0.0794  0.0520
30931W        W47778  11.814  10.590  10.505 -0.0225  0.0201  0.0170
30932W        W47779  15.509   4.210  11.539  0.1515 -0.2973 -0.0626
30933W        W47780  17.808  14.369   1.596 -0.0078  0.3949  0.0135
30934W        W47781   2.982  16.420   3.028 -0.0799 -0.0030  0.0013
30935W        W47782   7.215  13.707   2.753  0.0262 -0.1484 -0.2506
30936W        W47783   3.124  17.709  15.388 -0.0707 -0.0930  0.0885
30937W        W47784  16.620   9.772   4.879 -0.2037 -0.0459 -0.3083
30938W        W47785   1.331  13.626  15.697 -0.1184  0.0194  0.2976
30939W        W47786   2.127  18.501   1.773  0.2044  0.3166 -0.0965
30940W        W47787  10.967  17.064   1.496  0.2156 -0.3942 -0.3124
30941W        W47788   3.571  17.186   1.717  0.1693  0.1484 -0.0677
30942W        W47789  14.072  17.925  14.188  0.1222 -0.2828 -0.0683
30943W        W47790  15.548   8.444  11.318 -0.1736  0.1716  0.1145
30944W        W47791  15.832  15.563  11.805  0.0432  0.1045  0.1998
30945W        W47792   9.404   6.010   4.916  0.2042 -0.1794  0.0106
30946W        W47793  12.721  17.309   1.107 -0.0653 -0.2293 -0.0170
30947W        W47794   6.537  18.299   4.795  0.1501 -0.0397 -0.0411
30948W        W47795   2.722  18.643   0.436  0.0403  0.2489 -0.2145
30949W        W47796  14.378   6.980   2.530 -0.2192 -0.0576 -0.1501
30950W        W47797  14.139  14.074  11.625 -0.2509 -0.0483 -0.1155
30951W        W47798   5.806   7.385   1.267  0.1596 -0.0685  0.0633
30952W        W47799   0.943   4.415  13.422  0.1734  0.1375  0.0781
30953W        W47800  18.450   5.322   0.482 -0.0814 -0.2178  0.2697
30954W        W47801  10.615   8.268   2.249  0.1361 -0.1294 -0.2209
30955W        W47802   5.649  15.878   4.435  0.0884 -0.0003  0.0432
30956W        W47803  17.044  16.520   3.848  0.1609  0.2170 -0.0285
30957W        W47804   6.063   4.773  11.844  0.4582 -0.0683 -0.1711
30958W        W47805  10.088   3.128  12.379 -0.0750  0.2067 -0.1129
30959W        W47806  10.976  10.374   2.619  0.2315 -0.2490  0.4701
30960W        W47807   2.479   3.790  13.502  0.0873 -0.2630 -0.1921
30961W        W47808  12.181   5.264   1.117 -0.2473 -0.1741 -0.4753
30962W        W47809  10.845  13.794  11.648  0.2974  0.1696  0.0029
30963W        W47810   2.742  14.249   0.195  0.1799 -0.0986 -0.1928
30964W        W47811   6.289   8.615   3.838 -0.3275  0.0956  0.0591
30965W        W47812   5.113  17.924  11.304  0.6561 -0.1202 -0.0165
30966W        W47813   9.867   0.640  12.492  0.1049  0.2722 -0.0900
30967W        W47814   9.750  16.525   2.371 -0.1541 -0.1806  0.1951
30968W        W47815   9.553   5.539   4.953  0.0177 -0.0865  0.3567
30969W        W47816  16.536  17.887   2.035  0.3139  0.1514  0.1281
30970W        W47817   2.526  18.351   0.891 -0.1134 -0.1615  0.3029
30971W        W47818  13.286   1.538   0.650  0.0253  0.0784  0.1175
30972W        W47819   4.109   3.417  14.163  0.2786 -0.2266 -0.0546
30973W        W47820  10.204   3.376   0.888 -0.2664 -0.2420  0.0357
30974W        W47821   4.457   8.827   0.245 -0.3671  0.0333 -0.1056
30975W        W47822   5.417   4.880  12.963 -0.1007 -0.1223  0.0857
30976W        W47823  17.844   9.476  13.355  0.3121  0.5845  0.1877
30977W        W47824  18.754   2.859  11.421 -0.0665  0.1214 -0.2108
30978W        W47825   4.570  17.226   2.444  0.2368  0.2469 -0.1678
30979W        W47826  17.338  12.443   0.388 -0.0491  0.0652 -0.1293
30980W        W47827  14.408   5.379  15.759  0.3241 -0.2649 -0.4690
30981W        W47828   1.151  18.403  11.663  0.2594 -0.3689 -0.0729
30982W        W47829  11.558   0.739  14.399 -0.0109 -0.2641  0.0432
30983W        W47830   4.607   2.409   1.867  0.0804 -0.4955 -0.1816
30984W        W47831   8.740   9.509  10.786  0.3812 -0.3855 -0.0161
30985W        W47832   3.743  13.833   2.360  0.0314  0.1762  0.0761
30986W        W47833   1.661   6.064  15.192 -0.1640 -0.1570  0.0625
30987W        W47834  18.498  15.335   2.955  0.1028  0.0516  0.1557
30988W        W47835   1.092   5.493   1.030 -0.0616 -0.1654  0.0602
30989W        W47836   8.238  18.672   2.932  0.1556  0.0764  0.2577
30990W        W47837   5.278  18.652  13.199  0.1134 -0.2562  0.0268
30991W        W47838   3.403   9.647   1.594  0.3735 -0.0113  0.0043
30992W        W47839   1.293   2.011   1.209 -0.2271 -0.1467  0.1180
30993W        W47840  13.691   5.806  11.270 -0.1849 -0.1119  0.4433
30994W        W47841   3.557  11.379   1.958 -0.2127 -0.1895 -0.0553
30995W        W47842   2.369   7.921  14.962  0.2781 -0.0637  0.2757
30996W        W47843  11.906   6.673   3.445  0.1757  0.3306  0.2146
30997W        W47844   8.156   2.543   9.856  0.2922  0.0829  0.1640
30998W        W47845  11.957   5.673  14.871  0.1720  0.3593 -0.0454
30999W        W47846   2.205  16.848  15.701 -0.1823  0.1599  0.0810
31000W        W47847  15.468   3.750  11.897 -0.0031 -0.1189 -0.0789
31001W        W47848  14.797   3.664   0.787  0.0409  0.1760 -0.0844
31002W        W47849  15.052   7.387   2.878 -0.1723  0.0998 -0.2100
31003W        W47850   5.773   2.897   1.537  0.1550 -0.1145 -0.0795
31004W        W47851   6.754   8.772   5.137  0.0143  0.0334  0.0998
31005W        W47852   3.620  17.742  15.456 -0.0403  0.0558 -0.1247
31006W        W47853   2.512   8.877   1.696 -0.3106 -0.0672  0.0227
31007W        W47854   2.218   4.089   1.033  0.1677 -0.1619 -0.0549
31008W        W47855   9.251  12.761   0.487 -0.3236 -0.1079  0.0979
31009W        W47856  16.652  14.689  14.797 -0.1006 -0.1272 -0.1608
31010W        W47857  14.229   4.448  11.286  0.2845 -0.0357 -0.0688
31011W        W47858  14.393   1.859  14.391 -0.0885 -0.2159 -0.0402
31012W        W47859  13.600   9.897  13.072  0.4750 -0.2990 -0.0530
31013W        W47860   6.558  11.678  12.780 -0.2856  0.0914 -0.1845
31014W        W47861   7.480   1.621  12.680  0.2163 -0.1104 -0.0071
31015W        W47862   7.909  17.781  15.595  0.0605  0.1486  0.0203
31016W        W47863  13.877  13.235   4.174 -0.0131 -0.1150  0.0324
31017W        W47864   6.832   7.132   1.031  0.2896 -0.2884  0.3657
31018W        W47865   1.956   1.671   2.487 -0.1946  0.2059 -0.1873
31019W        W47866  14.512   4.389   1.393 -0.0077  0.3252 -0.1383
31020W        W47867  18.847   3.626   4.552 -0.0791 -0.0270  0.2339
31021W        W47868  10.416   7.730   1.382  0.3044 -0.0524 -0.0385
31022W        W47869  14.678  17.530   3.430  0.2629 -0.1267 -0.1423
31023W        W47870  15.032   8.582   5.538 -0.0333  0.2258 -0.0578
31024W        W47871   1.170   0.227   3.828 -0.1498  0.0192 -0.0118
31025W        W47872  10.908   5.905  12.439  0.1432  0.2753 -0.2189
31026W        W47873  14.827   5.407  11.726 -0.2408  0.0780  0.0759
31027W        W47874   1.600  15.209   4.939  0.1651  0.1543 -0.0191
31028W        W47875   6.909  12.143  15.170  0.0566 -0.0714 -0.3128
31029W        W47876   4.114  11.131   2.399 -0.0950  0.2627  0.0178
31030W        W47877  11.209  16.625  12.244 -0.1756  0.1852 -0.1343
31031W        W47878   7.367  14.121   1.594 -0.2441 -0.2915  0.0153
31032W        W47879  17.891  11.152  11.992  0.0553 -0.0783 -0.0854
31033W        W47880  12.436  15.873  11.086  0.2345  0.2386  0.2304
31034W        W47881  13.740  15.119  15.488  0.0156 -0.0788 -0.0116
31035W        W47882  15.878  17.138  13.013 -0.3246  0.2226 -0.0829
31036W        W47883  15.052  10.605  12.904 -0.0332  0.2271  0.3076
31037W        W47884   7.733  16.874   1.877  0.2332  0.0513 -0.0198
31038W        W47885   5.288   0.531  12.994 -0.1832 -0.1322 -0.3188
31039W        W47886   1.746   8.218  13.536  0.2241 -0.1383  0.0504
31040W        W47887   3.811   8.017   3.669  0.3864  0.3271 -0.1522
31041W        W47888  14.986  12.226   0.165  0.3053 -0.3194  0.2151
31042W        W47889   0.830  18.339  13.462 -0.1326 -0.1080 -0.0653
31043W        W47890   2.062  11.948  13.723  0.0098 -0.0314  0.1303
31044W        W47891  13.802   1.235  15.502 -0.0921 -0.1666 -0.2457
31045W        W47892  12.049   3.467  11.969  0.2880  0.1502 -0.0574
31046W        W47893   7.893   3.025  14.681  0.1068  0.2317  0.0224
31047W        W47894  17.552  18.213  14.042  0.0096  0.5277 -0.0617
31048W        W47895   2.854   6.717  15.183 -0.1828  0.2364  0.0757
31049W        W47896   3.067   3.953   2.381 -0.0854  0.1870  0.1445
31050W        W47897  14.678  18.115   4.308  0.0968  0.0916 -0.2976
31051W        W47898   6.095   2.508   1.861 -0.0042  0.0136 -0.1789
31052W        W47899  16.021   2.341  14.828  0.0662 -0.0218 -0.5213
31053W        W47900   2.932   9.748  14.585  0.2067  0.1163 -0.0870
31054W        W47901   9.374  16.321  12.275  0.0070 -0.0085 -0.0177
31055W        W47902  16.000   8.255  14.591  0.1665  0.1250 -0.0142
31056W        W47903  13.718   5.362  11.759  0.1716  0.1924 -0.3125
31057W        W47904   9.213  18.775   3.382 -0.0918  0.1079 -0.2250
31058W        W47905   4.943   8.696   0.411 -0.1671 -0.1434 -0.2382
31059W        W47906   9.496  16.131   3.387  0.1956  0.1846  0.0210
31060W        W47907  17.324  10.640  14.576 -0.0871  0.1044 -0.2477
31061W        W47908   4.781   3.857  12.480 -0.0338 -0.0005 -0.3849
31062W        W47909   0.268   4.331  12.340 -0.2163 -0.2280  0.1417
31063W        W47910   6.499  13.365   0.199 -0.3636 -0.1313  0.0216
31064W        W47911  15.105  15.674   4.742 -0.2237  0.1841  0.2832
31065W        W47912   2.587  16.352  12.970  0.2145  0.0166 -0.2897
31066W        W47913   3.290  18.722  12.739  0.3973  0.0187 -0.0000
31067W        W47914   0.015   2.230  13.402  0.4263 -0.1359  0.2018
31068W        W47915   1.361   7.709  15.058  0.0224  0.0050  0.2253
31069W        W47916  13.976  17.241   0.916  0.0505 -0.0096 -0.0109
31070W        W47917  16.594  10.733   2.771  0.1770 -0.0399  0.0875
31071W        W47918  12.673   7.756  11.133  0.3325  0.3052  0.1026
31072W        W47919  14.770  12.789  13.457 -0.0713 -0.1144  0.1132
31073W        W47920   8.864   2.673   5.929 -0.5293 -0.0775  0.0107
31074W        W47921  16.029   7.780   5.445  0.4526  0.1507 -0.1115
31075W        W47922  18.082  15.365   3.197  0.1153 -0.1066 -0.4961
31076W        W47923   0.536  10.580   4.053 -0.0276 -0.1333 -0.0463
31077W        W47924   2.109  17.402  12.817 -0.1991 -0.0876  0.0235
31078W        W47925  16.859   3.676  13.559  0.2289  0.0107  0.0047
31079W        W47926  17.331   4.095   3.252 -0.4801  0.6152  0.0905
31080W        W47927   6.841   7.454  12.549  0.0969  0.0719  0.1955
31081W        W47928   4.897   1.248  12.795  0.3280 -0.1933 -0.0758
31082W        W47929   5.156  18.732   9.570 -0.0278  0.0377 -0.2064
31083W        W47930  17.844  18.491  12.851 -0.1753  0.1327  0.1714
31084W        W47931  18.691   0.636   5.429  0.2461  0.0778 -0.0387
31085W        W47932  17.625   6.120   4.135  0.2441  0.0457  0.0965
31086W        W47933  16.264  10.602   1.240 -0.0552  0.0296 -0.1250
31087W        W47934   4.611  17.489   0.949 -0.1686 -0.0986  0.1128
31088W        W47935  18.013  11.689  13.410  0.2454 -0.0228  0.0481
31089W        W47936   1.982  11.331   4.754  0.1782  0.0175  0.0738
31090W        W47937   6.168   7.446   1.691 -0.3215 -0.1569  0.0668
31091W        W47938   8.832   2.295   0.104 -0.0977  0.1517  0.1750
31092W        W47939  16.525  10.928  15.649 -0.1850  0.2340 -0.1074
31093W        W47940  10.497  11.796  15.061  0.5314  0.1182 -0.0021
31094W        W47941  12.627  16.723   2.332  0.1478 -0.0413 -0.1144
31095W        W47942  15.297   3.314  15.274  0.3136  0.0933  0.3353
31096W        W47943   6.425   0.807   1.590 -0.1525  0.1191  0.1443
31097W        W47944   2.921   9.595  11.216  0.0641 -0.1095  0.6480
31098W        W47945   0.395  15.059  15.133  0.0341 -0.0382 -0.1689
31099W        W47946   6.161  10.710   1.383  0.0748  0.5182  0.2854
31100W        W47947  11.445   3.839  12.521  0.0003  0.0224 -0.4159
31101W        W47948   1.294   7.862   0.112  0.0335 -0.2122  0.1526
31102W        W47949  15.025  10.757  13.758  0.1307  0.2129 -0.2090
31103W        W47950  18.002   5.566  15.382  0.3502 -0.1989  0.0156
31104W        W47951   6.476   3.498   2.903  0.0767  0.1272 -0.1770
31105W        W47952  13.759   5.323   4.357  0.0628  0.2669  0.5341
31106W        W47953   7.763   8.330   2.273  0.1501  0.3408 -0.0579
31107W        W47954   5.935   1.103   2.595 -0.1063  0.2183  0.2340
31108W        W47955  12.172  10.275   4.882 -0.0695  0.0046  0.1208
31109W        W47956   7.152   6.016  14.438 -0.1242  0.2647 -0.0729
31110W        W47957  16.990  17.835   4.697  0.2037 -0.1470 -0.1626
31111W        W47958  13.340   1.858  11.932  0.1364 -0.0079 -0.0168
31112W        W47959   3.962   5.700   0.705 -0.1419 -0.0127  0.1010
31113W        W47960  10.359   9.125   3.091  0.0398 -0.0514  0.0910
31114W        W47961  17.855  11.814  15.681  0.3067 -0.2903 -0.2212
31115W        W47962  15.478   9.310  13.698 -0.0807 -0.0921 -0.5900
31116W        W47963   8.542  16.956  12.064  0.1414 -0.2829 -0.1699
31117W        W47964  15.257   9.249   1.785 -0.1966  0.0845  0.1800
31118W        W47965   2.248  18.263   3.608  0.0152  0.0597 -0.1492
31119W        W47966  17.533   5.471  15.313  0.2647  0.4582  0.2437
31120W        W47967   5.240   2.212   2.332 -0.0478  0.0580 -0.0002
31121W        W47968   4.841   1.295  10.988 -0.0409 -0.0415  0.2027
31122W        W47969  17.302   9.760   0.847  0.0089  0.0659 -0.1781
31123W        W47970  14.296   3.982   0.606  0.1721 -0.0260 -0.0922
31124W        W47971  13.784  11.394  10.933 -0.4080  0.0344 -0.1619
31125W        W47972  16.751   3.949   5.339  0.0613  0.2032 -0.2955
31126W        W47973  14.958   9.136  15.265 -0.3702  0.2245  0.2111
31127W        W47974   3.567   2.509   4.538  0.0568  0.0049 -0.1028
31128W        W47975  13.450  16.974  13.296  0.2025  0.1748 -0.2822
31129W        W47976   8.933   9.717   3.496  0.2570 -0.1080  0.0615
31130W        W47977  18.224  15.005  12.094 -0.2154  0.1013  0.3664
31131W        W47978   6.804   8.458   0.507 -0.3595  0.3603  0.1566
31132W        W47979  15.800   3.709  12.720  0.1020  0.0700  0.0081
31133W        W47980   0.168   8.622  14.771  0.0694  0.0624  0.0773
31134W        W47981   7.805   7.354   1.624 -0.0984  0.0395  0.0882
31135W        W47982   5.852  16.140   0.369 -0.2717  0.0487 -0.0779
31136W        W47983   6.872   9.384   3.777  0.0361  0.1310  0.0280
31137W        W47984   6.266   0.862   3.043  0.1423 -0.0784 -0.1460
31138W        W47985   6.228  11.087   0.117 -0.5147  0.0351 -0.3169
31139W        W47986  10.026   5.434   3.130 -0.0604  0.0346  0.0539
31140W        W47987   4.510  16.543   4.774 -0.2142  0.0183 -0.1331
31141W        W47988   9.256   7.316   2.552  0.2043 -0.0071  0.0456
31142W        W47989   5.435  15.063   1.785 -0.1420  0.1778 -0.2205
31143W        W47990  10.423   1.951   4.627 -0.0793 -0.1466  0.0206
31144W        W47991   5.563  13.947   2.932  0.1991  0.0883 -0.0189
31145W        W47992   2.435   0.201  11.486 -0.0056 -0.1708 -0.5772
31146W        W47993  11.753   0.652   2.399  0.2113 -0.0945  0.0450
31147W        W47994  13.746  12.527  15.529 -0.0768  0.2538 -0.0022
31148W        W47995  18.444   0.575  12.412 -0.2331  0.0268 -0.0133
31149W        W47996  17.443   1.761   1.680 -0.0978 -0.1071  0.1566
31150W        W47997  10.935  17.781   0.601  0.1393 -0.1221 -0.1857
31151W        W47998  17.705   6.346  12.113  0.0852  0.0645  0.1849
31152W        W47999   7.492   3.793   1.392 -0.2024 -0.0613 -0.0037
31153W        W48000  16.657  15.867  11.207 -0.2346 -0.1067  0.2158
31154W        W48001   7.850   4.494   1.251 -0.1004 -0.2056 -0.0352
31155W        W48002   0.544   6.437   5.612  0.0052 -0.1624 -0.0213
31156W        W48003  10.430  14.192  13.041 -0.4215 -0.0426  0.2004
31157W        W48004  14.019  11.608   1.580  0.0387  0.0417  0.3644
31158W        W48005   0.316   7.652   0.975  0.4059 -0.1250  0.5112
31159W        W48006   5.281  12.068  10.819 -0.0498  0.1930 -0.0546
31160W        W48007   8.049  14.108   2.594 -0.1277  0.2412  0.0589
31161W        W48008   1.173  15.976  15.110  0.1273  0.1207  0.1808
31162W        W48009   4.160   3.322   2.951  0.0996  0.0217 -0.0222
31163W        W48010   1.319   8.487  12.321 -0.0443  0.0852  0.0258
31164W        W48011  12.432   5.775   4.085  0.2020 -0.0241  0.0776
31165W        W48012   0.248   5.226   2.000  0.3120 -0.0530 -0.2868
31166W        W48013   4.167   4.673  13.610  0.1701 -0.1370  0.2267
31167W        W48014  11.069   4.069   5.692 -0.0128  0.2299 -0.0393
31168W        W48015  13.244   9.709   4.112  0.0496  0.2604  0.2030
31169W        W48016   6.486  17.467   1.596  0.1861 -0.2009  0.1488
31170W        W48017  10.151  11.576   2.117  0.1972 -0.1683 -0.0105
31171W        W48018   3.237   3.946   2.920  0.3241 -0.2076 -0.4983
31172W        W48019   2.176   5.706  12.002  0.3434  0.2460  0.4824
31173W        W48020   3.349   9.248   1.198 -0.0404 -0.0711  0.2530
31174W        W48021   8.417   3.656  14.874  0.1306 -0.0138 -0.0407
31175W        W48022   2.781  13.520  12.325 -0.0715  0.0977 -0.0325
31176W        W48023  11.575  17.826   1.603 -0.0480 -0.0034 -0.0111
31177W        W48024   6.749  18.410  12.448  0.2655  0.0159  0.5263
31178W        W48025  17.837   6.560   3.256 -0.0542  0.2414  0.0862
31179W        W48026  13.137  17.298   1.516  0.1077 -0.3008 -0.1280
31180W        W48027   3.470   0.087   4.389  0.0531  0.3084  0.1514
31181W        W48028  10.395  16.708  10.953 -0.0740  0.1002 -0.0921
31182W        W48029  14.858   7.625  11.671 -0.0585 -0.2123 -0.0622
31183W        W48030   4.538  15.734  11.763  0.1946  0.2058 -0.0510
31184W        W48031   2.459   6.205  12.429 -0.1782  0.1743 -0.0014
31185W        W48032   7.476  17.232   4.465  0.1914 -0.0070 -0.0066
31186W        W48033   8.054   4.082   3.672 -0.0514 -0.0099  0.1256
31187W        W48034  18.280  16.456  11.312  0.0053 -0.0878 -0.1014
31188W        W48035   0.288  13.443   2.792 -0.3243 -0.2091 -0.2299
31189W        W48036  13.905  11.699   4.953 -0.1307 -0.2285 -0.2400
31190W        W48037   4.295   4.110  13.291  0.0799 -0.2424 -0.1180
31191W        W48038   5.893  10.351  12.796 -0.0038  0.1995 -0.1652
31192W        W48039  16.982  14.874   1.852 -0.1662  0.1150 -0.4521
31193W        W48040  11.990   1.478   1.646 -0.0621 -0.0701  0.0205
31194W        W48041   7.541  10.075  14.653 -0.1718  0.0832 -0.2618
31195W        W48042  14.029   8.308   0.636 -0.2725 -0.0785  0.0589
31196W        W48043  12.839   9.487   2.443 -0.3853  0.0906 -0.0316
31197W        W48044  14.923  16.514   2.810 -0.2127  0.1084 -0.2084
31198W        W48045   0.663   5.468  12.480 -0.0658  0.1428  0.1366
31199W        W48046   6.932  17.355   3.810 -0.5267  0.1065 -0.1697
31200W        W48047  14.951  12.207   2.263  0.0653 -0.0727 -0.4898
31201W        W48048  14.721   3.143   6.094 -0.0984 -0.0907  0.0200
31202W        W48049  15.687  10.126   3.238 -0.2187 -0.0914  0.0069
31203W        W48050  11.057   9.128   4.688 -0.0871  0.0446  0.0635
31204W        W48051   5.913  12.916   2.248  0.2115  0.4858  0.3608
31205W        W48052   7.164  10.492   1.704  0.1586 -0.3445  0.2080
31206W        W48053  15.039  11.878  15.596 -0.1773  0.3739 -0.2556
31207W        W48054   1.958  14.536   1.199  0.3019 -0.1699  0.4220
31208W        W48055  14.715   9.567  15.447 -0.2704  0.0106 -0.0439
31209W        W48056   2.139  11.293   3.479 -0.2067  0.0307 -0.0878
31210W        W48057   0.268   3.033   2.657  0.0076  0.0057  0.0969
31211W        W48058  11.775   2.954  12.705  0.4872 -0.0837  0.1252
31212W        W48059  12.979  11.639  12.456  0.1471 -0.0363  0.2724
31213W        W48060  15.504   0.366   0.420 -0.0854  0.1132 -0.2508
31214W        W48061   7.309  16.282   5.044 -0.2687 -0.0143 -0.0131
31215W        W48062  16.244  11.501   2.288 -0.3904  0.3661 -0.1334
31216W        W48063   7.039   4.066   2.254 -0.0002  0.2456 -0.2596
31217W        W48064  14.676   7.274  14.079 -0.1561  0.0500  0.1959
31218W        W48065  11.269  13.340   1.203  0.0730  0.1379  0.0106
31219W        W48066   9.310   8.476   0.280  0.1625 -0.2571 -0.0179
31220W        W48067   9.662  11.181   4.304 -0.1001  0.0503 -0.1004
31221W        W48068   5.193  16.916  13.343 -0.0537  0.2121 -0.1402
31222W        W48069  10.660   6.778  14.581  0.0746 -0.2986  0.1989
31223W        W48070   5.110   4.820  13.952  0.1003  0.1133 -0.0030
31224W        W48071  11.036  11.855  15.328 -0.2442  0.0518  0.0207
31225W        W48072  17.136  17.276   4.634  0.1141  0.1366 -0.3191
31226W        W48073   6.688   0.432   2.863 -0.0331 -0.2958  0.1370
31227W        W48074   8.844   1.398   1.652  0.0632  0.0102  0.0096
31228W        W48075   7.818  13.050  15.136 -0.1175  0.1177 -0.1214
31229W        W48076  10.868  10.111   1.504  0.0869 -0.0757 -0.2104
31230W        W48077   2.138   2.844   2.880  0.1094 -0.0883  0.3790
31231W        W48078   7.287   7.337   5.136  0.1655 -0.0731 -0.1333
31232W        W48079   5.538  18.375   2.736  0.3336 -0.2138 -0.2643
31233W        W48080   1.972  15.757  15.248  0.3109  0.1130  0.2821
31234W        W48081  18.832   4.016  13.083  0.0390 -0.1619  0.0525
31235W        W48082   2.135  10.105   0.232  0.0640  0.3541  0.0470
31236W        W48083   5.586  17.077   0.147  0.0559  0.2037  0.2271
31237W        W48084  14.818   4.188   0.728  0.2120  0.0169  0.0625
31238W        W48085  12.498  12.503   3.718 -0.0641 -0.0157 -0.3008
31239W        W48086  18.778   7.703  13.142 -0.0034 -0.0669  0.0537
31240W        W48087   9.011  15.537   5.648 -0.0526 -0.2437 -0.0383
31241W        W48088   7.516   5.763  14.365 -0.0035  0.3915  0.1905
31242W        W48089  16.733   0.924   2.751  0.0199 -0.3975  0.0337
31243W        W48090   1.185  13.164  15.626 -0.3490  0.1769 -0.3509
31244W        W48091   3.084   6.683  14.695  0.1316  0.1260 -0.0921
31245W        W48092  11.708  16.642   1.243  0.1071 -0.0904  0.1755
31246W        W48093   5.063   0.117   2.383  0.0493  0.3309  0.3448
31247W        W48094  10.944   0.633  13.240  0.0290 -0.2714  0.1313
31248W        W48095   0.790   1.902   3.650  0.0473 -0.0704  0.2678
31249W        W48096   1.076   5.317   2.471  0.1221  0.3466  0.0588
31250W        W48097  15.921  16.039   4.468  0.2197  0.3594  0.1312
31251W        W48098   3.033   9.914  10.812 -0.1077 -0.0272  0.0822
31252W        W48099   4.392  13.029   2.813 -0.1894 -0.1820 -0.3853
31253W        W48100  12.809   0.526   3.449 -0.2207  0.0320 -0.1487
31254W        W48101   2.012   9.940   4.820 -0.0744 -0.1483  0.0381
31255W        W48102   0.779   6.900  12.435 -0.2931  0.1021  0.0486
31256W        W48103   2.361   4.610   0.177  0.0519  0.2041 -0.0414
31257W        W48104  15.230   9.694  13.823  0.0881  0.0163 -0.1457
31258W        W48105  15.028  11.310   2.739 -0.0453  0.0671  0.1679
31259W        W48106   4.797  11.244  11.951 -0.3201 -0.0866  0.1442
31260W        W48107  11.694   8.896  13.567 -0.0150 -0.1607  0.4274
31261W        W48108  13.504  12.999   0.452  0.2871 -0.2548 -0.1742
31262W        W48109   6.479   4.047   4.802 -0.0870  0.3319 -0.0338
31263W        W48110   7.952   5.441   2.701  0.0472  0.2095 -0.1228
31264W        W48111   7.969  14.252   0.189 -0.2720 -0.2251  0.1474
31265W        W48112   0.079   7.497   4.793 -0.1127 -0.0248  0.0953
31266W        W48113   0.196  14.212   3.752  0.1417 -0.2364 -0.0981
31267W        W48114  16.564   5.908  15.337  0.2431  0.2987  0.3760
31268W        W48115   7.424   1.606  13.487 -0.1518  0.1008  0.2126
31269W        W48116   4.900   5.916  12.602  0.1400 -0.2580 -0.1035
31270W        W48117   6.403  16.775   3.964  0.4383  0.3360 -0.6145
31271W        W48118  18.457  12.662   3.060 -0.1297  0.0835 -0.0746
31272W        W48119  17.109  10.962  12.320 -0.0076  0.1048  0.2501
31273W        W48120  16.589   3.792  12.008  0.1206 -0.2097  0.0011
31274W        W48121  11.112  12.332  15.470 -0.0533  0.0551 -0.1599
31275W        W48122   0.579   4.662   2.956  0.2270  0.0146 -0.0558
31276W        W48123   4.729  16.301   1.824 -0.1883 -0.0829  0.0994
31277W        W48124  16.067   6.212   4.280  0.0468 -0.2293 -0.1250
31278W        W48125  17.523   2.806   2.077 -0.4508  0.1724  0.0841
31279W        W48126   0.556  17.061  10.658  0.1243  0.3038 -0.1897
31280W        W48127  14.682  13.234  13.698 -0.0281  0.2635 -0.0259
31281W        W48128   3.206   2.009   5.216 -0.0237 -0.0472 -0.1629
31282W        W48129   2.988  13.196   5.548 -0.0804 -0.0397 -0.2380
31283W        W48130   1.216   6.130  14.457 -0.0133  0.0680  0.3302
31284W        W48131   2.053   2.143  11.821 -0.1587  0.1064  0.1232
31285W        W48132   7.762  17.965  14.669 -0.1131  0.1570  0.2140
31286W        W48133   7.327   4.233   1.544 -0.0457 -0.2514 -0.1847
31287W        W48134   2.779   1.072   1.500  0.5073 -0.1845  0.2379
31288W        W48135  10.421   4.628  15.398  0.0629  0.0629 -0.0781
31289W        W48136   2.829   6.487  12.701 -0.2993  0.3785  0.0749
31290W        W48137   0.777  16.871  12.650  0.3326  0.2483  0.0936
31291W        W48138  13.340  14.468  13.168 -0.0483 -0.0212  0.2539
31292W        W48139   3.034  11.373   5.787  0.2390 -0.3618  0.1592
31293W        W48140  14.286   8.439  13.830  0.2860  0.0998  0.1110
31294W        W48141   3.432   9.818   4.337 -0.0376  0.0923  0.3406
31295W        W48142   0.617   0.274   0.025  0.0949 -0.1820  0.2442
31296W        W48143  10.697   8.014   0.776  0.0794 -0.5921  0.0385
31297W        W48144  17.234   5.743   2.436  0.1825 -0.4984 -0.0782
31298W        W48145  10.232   6.391   2.117 -0.3076  0.0362 -0.1097
31299W        W48146   9.796  14.396  13.693 -0.3469 -0.0938  0.0708
31300W        W48147  12.281  15.688   5.516  0.0609 -0.1006 -0.3708
31301W        W48148  18.437   4.977   3.757 -0.2030 -0.1255 -0.0849
31302W        W48149  12.949  14.529   2.911  0.2048  0.0485  0.1685
31303W        W48150   7.662  12.569  11.522  0.0030  0.0683  0.1518
31304W        W48151  17.690  16.986   1.501 -0.1639 -0.0056 -0.2467
31305W        W48152  17.419   6.198  14.864  0.1733 -0.0172 -0.1828
31306W        W48153  17.176  16.763   1.692 -0.0513 -0.0643  0.0636
31307W        W48154   6.642   2.380  13.955 -0.0752  0.2847 -0.0730
31308W        W48155  14.910   4.347   2.610 -0.0193 -0.2646  0.2006
31309W        W48156  17.907  16.328  12.004  0.1040  0.0007 -0.4422
31310W        W48157   5.334  12.919   1.585 -0.2175 -0.0440  0.0003
31311W        W48158  12.331  13.640  13.043  0.1943  0.1351  0.1073
31312W        W48159  14.949  15.432  15.465  0.1577 -0.0697 -0.0166
31313W        W48160  15.642  12.481   4.396  0.3003  0.3796  0.1117
31314W        W48161  18.662  10.828  14.289  0.1252 -0.1134 -0.4527
31315W        W48162   5.082   6.247  13.582 -0.0070 -0.1502 -0.3765
31316W        W48163  10.382  13.120   4.083  0.1380 -0.3487 -0.0850
31317W        W48164   1.072   3.984   1.925  0.1333 -0.1511  0.1296
31318W        W48165  14.411   0.738  15.164 -0.1431 -0.0188 -0.1422
31319W        W48166  11.990  11.557   5.251  0.0343  0.1800 -0.2692
31320W        W48167  14.134   9.977   0.463 -0.0081 -0.3855 -0.0990
31321W        W48168  12.491   7.391  15.229  0.0624  0.0296  0.1371
31322W        W48169   7.786   4.217   0.064 -0.1825 -0.0380  0.0838
31323W        W48170  16.724  17.706  14.068 -0.3542 -0.1281 -0.1899
31324W        W48171  10.728  17.224   5.088  0.1144 -0.1450 -0.0894
31325W        W48172   6.642   5.099  12.409  0.2437 -0.2021  0.0380
31326W        W48173   7.567  14.885  14.715 -0.0754 -0.1757  0.1094
31327W        W48174  14.640  10.424  13.851 -0.1772 -0.1889  0.0396
31328W        W48175  17.848   2.420  12.450 -0.3605  0.0235  0.1378
31329W        W48176   9.260   3.606  13.448 -0.0702  0.2121 -0.1151
31330W        W48177  10.253   4.196  10.705  0.2557 -0.0017 -0.0518
31331W        W48178  15.567  10.599   2.966  0.1519 -0.3880 -0.0370
31332W        W48179   6.714  18.353  14.497  0.0639  0.0203  0.0507
31333W        W48180   2.264  11.621  14.033  0.1830  0.2767 -0.5289
31334W        W48181  12.431   0.455   3.055 -0.0447 -0.1003 -0.2538
31335W        W48182   6.901   9.162   1.535 -0.5122 -0.4285 -0.2999
31336W        W48183  12.693   9.088  14.904 -0.1053 -0.0184  0.4068
31337W        W48184   4.727   8.232  15.483 -0.0159 -0.0832  0.0592
31338W        W48185   0.687  11.147   4.803  0.2071 -0.0108 -0.1460
31339W        W48186  10.223   7.939   0.916 -0.1056  0.0939 -0.0950
31340W        W48187   2.128  18.664  15.114  0.2273  0.0895  0.1411
31341W        W48188  12.931   1.645   2.595  0.0860  0.2072  0.0158
31342W        W48189   5.752   5.925   4.910  0.0769 -0.2754  0.0230
31343W        W48190   3.731   7.815   3.170 -0.2077  0.0204 -0.0682
31344W        W48191  14.615  15.421   0.256  0.2189 -0.0591  0.1758
31345W        W48192   3.159   9.348  11.582 -0.0227  0.1487  0.1955
31346W        W48193   4.565   7.368  11.298 -0.0837  0.1408 -0.1762
31347W        W48194  14.766   1.931   0.663  0.1432  0.3074 -0.0452
31348W        W48195  11.315  10.004  12.088 -0.1002  0.0825  0.0929
31349W        W48196  12.437  13.340   4.329  0.0344 -0.0499 -0.3032
31350W        W48197  17.855  16.141   3.733 -0.0347 -0.1853  0.1304
31351W        W48198   1.574  15.475   2.128  0.0585 -0.1376 -0.2768
31352W        W48199   5.696   5.181   1.547 -0.0738  0.0308  0.1910
31353W        W48200   3.561   7.171  13.915 -0.2256 -0.2445 -0.1299
31354W        W48201   4.531  12.610  13.258  0.1182 -0.5371  0.1790
31355W        W48202   6.655   7.716   3.338  0.0036 -0.1496 -0.1587
31356W        W48203   9.935   6.580   0.620  0.1752 -0.3840  0.1273
31357W        W48204  13.293  14.743   3.516  0.0337  0.1098  0.0155
31358W        W48205  12.916  10.930   0.475 -0.0377 -0.1973  0.1184
31359W        W48206  17.049   9.639  11.276 -0.0266  0.2033  0.1573
31360W        W48207   8.284  12.927   2.149 -0.2568 -0.4043 -0.1212
31361W        W48208   9.939  15.014  15.626 -0.0649 -0.0190  0.0567
31362W        W48209   6.812  13.445   2.727  0.2640 -0.0038 -0.1727
31363W        W48210   2.635  15.734   5.426  0.1445  0.1561  0.1646
31364W        W48211  16.760  13.334   2.507 -0.2593 -0.3443  0.1326
31365W        W48212  12.661  18.671  12.069 -0.2990 -0.4681  0.3296
31366W        W48213  16.038   6.987  13.445 -0.0819  0.2350  0.1495
31367W        W48214   7.765  14.692   5.161 -0.1830 -0.1157 -0.0922
31368W        W48215   6.093   3.289  12.418  0.0551  0.1209  0.1437
31369W        W48216  14.168  16.213   4.637  0.0596  0.2144 -0.6304
31370W        W48217   1.197   7.482  11.985 -0.0964 -0.3361  0.1863
31371W        W48218  16.068   8.627   5.311  0.4298 -0.1107  0.2359
31372W        W48219   7.806   7.161   3.115  0.0566  0.1099 -0.1510
31373W        W48220   1.862  18.170   2.355  0.1132 -0.1751  0.1259
31374W        W48221   6.592   5.195   9.918  0.2145  0.0625 -0.0702
31375W        W48222  11.612   9.872   2.758  0.0623  0.2004 -0.1601
31376W        W48223   8.848   1.335  11.273 -0.0196  0.0696 -0.1367
31377W        W48224  13.934   3.493   0.585  0.1813 -0.0006 -0.2049
31378W        W48225   4.770  11.788  11.965 -0.0515 -0.0166 -0.1563
31379W        W48226   1.215   1.056   4.892 -0.1574 -0.4987  0.1809
31380W        W48227   3.746   4.699   2.666 -0.0381  0.3116  0.3748
31381W        W48228  13.117  11.401  14.128  0.0185  0.0569 -0.1353
31382W        W48229  17.970  17.225   5.367 -0.0591 -0.1389 -0.1376
31383W        W48230   3.578   6.629  14.561  0.0276 -0.0736 -0.2985
31384W        W48231   5.964  12.865  12.625 -0.0009 -0.0851 -0.2067
31385W        W48232  12.169  18.454   4.584  0.1176 -0.2231 -0.1208
31386W        W48233   6.352   8.486   3.215 -0.0505  0.0878 -0.1116
31387W        W48234   5.995  10.858  13.712 -0.1628 -0.0734  0.0019
31388W        W48235  11.740  12.835   2.016  0.5513 -0.1123 -0.2176
31389W        W48236   9.525   6.221  12.674  0.1665  0.2580 -0.0410
31390W        W48237   7.232   5.123   0.967 -0.3560  0.0465 -0.0788
31391W        W48238   6.512   4.453   0.585  0.2882  0.2952  0.1619
31392W        W48239   7.815  16.180  13.053  0.1070 -0.0728 -0.0182
31393W        W48240  14.811   9.931  13.688 -0.0866 -0.2022 -0.5006
31394W        W48241  17.928  10.054   2.924  0.1505  0.1471  0.2626
31395W        W48242   6.849  13.081  13.796 -0.0511  0.2041 -0.0211
31396W        W48243   3.115  17.433  14.122  0.4477 -0.2430  0.2788
31397W        W48244   5.425   4.490   3.819  0.0626 -0.0383 -0.0038
31398W        W48245   0.206  11.747   5.816 -0.1247 -0.0257 -0.0093
31399W        W48246   9.211   7.973  14.970 -0.1274 -0.1770 -0.2381
31400W        W48247  10.950   6.043  12.956  0.0755 -0.0404 -0.0918
31401W        W48248  16.764  10.108   3.605 -0.1790 -0.0157 -0.1282
31402W        W48249   2.153  10.871   3.157 -0.0615  0.1502 -0.1335
31403W        W48250   4.689   9.155   2.649  0.0012  0.0025 -0.2544
31404W        W48251   5.913  14.124   5.098  0.0881  0.0271  0.1440
31405W        W48252  10.499   8.831  11.119 -0.1762 -0.0886  0.0795
31406W        W48253   8.484  11.101  12.489  0.4046 -0.0565 -0.2267
31407W        W48254  17.418   7.569   1.712  0.3068 -0.1336  0.3708
31408W        W48255   6.148  12.201   0.977 -0.1131  0.0814 -0.3414
31409W        W48256  18.011  18.035  14.187 -0.2231  0.2125 -0.1258
31410W        W48257  14.231   2.524   1.935 -0.2698 -0.2084 -0.0936
31411W        W48258   9.256  14.696  12.815 -0.4499 -0.4997 -0.1028
31412W        W48259  10.665   2.245   5.013  0.2897  0.1935  0.2185
31413W        W48260   3.725   8.438  12.742 -0.2072  0.0922 -0.1070
31414W        W48261   1.285  15.024  14.408  0.2085 -0.2532  0.2336
31415W        W48262  16.461   9.811  13.003 -0.2101  0.2646  0.0170
31416W        W48263   4.958  15.772  11.517 -0.0409  0.1544  0.0953
31417W        W48264   1.219   5.056  12.986 -0.1096  0.0247  0.1494
31418W        W48265   0.960   2.049  13.804  0.0358  0.1310 -0.2408
31419W        W48266   0.028   0.676  11.430 -0.1121 -0.2356  0.0972
31420W        W48267   9.851  17.802  13.414 -0.0999 -0.2030 -0.0916
31421W        W48268   3.541  17.662  13.866  0.1748 -0.2542 -0.0982
31422W        W48269  13.374   3.510  12.023  0.1215  0.1270 -0.0596
31423W        W48270   2.632  13.014  12.683 -0.3465 -0.1829  0.0559
31424W        W48271   3.084   3.878  15.073  0.3185  0.1095  0.0416
31425W        W48272   2.652   1.238   3.698  0.0403  0.3120 -0.2193
31426W        W48273   1.126   1.575   1.109  0.0442 -0.0586 -0.0584
31427W        W48274  17.452   4.582   3.810 -0.2173 -0.2912 -0.0945
31428W        W48275  12.524  17.315  14.854  0.1343 -0.1275  0.1605
31429W        W48276   9.861   9.557  10.732 -0.2570  0.0123 -0.2507
31430W        W48277  12.741  17.447  11.197  0.0667 -0.0286  0.3142
31431W        W48278  12.007  10.177   3.467  0.3116 -0.0457 -0.1697
31432W        W48279  14.986   8.479   2.160 -0.0325 -0.0290  0.1244
31433W        W48280   1.380  14.765   2.968 -0.0368 -0.2153 -0.0801
31434W        W48281  10.081   9.207   2.633  0.2910  0.0687 -0.1552
31435W        W48282   7.790   3.802   4.978 -0.0026  0.0131 -0.1180
31436W        W48283   2.163  14.907  13.259 -0.3936 -0.1453 -0.1534
31437W        W48284   4.420  14.654  12.517 -0.1099  0.0658 -0.1507
31438W        W48285  14.596   5.885   1.668 -0.1454 -0.0407 -0.0215
31439W        W48286  16.891   0.854   0.276  0.0588  0.1163 -0.1931
31440W        W48287   2.883  15.828   1.098  0.1454 -0.3336  0.0737
31441W        W48288   3.129  15.421   3.546  0.0797 -0.0871 -0.0796
31442W        W48289  13.036  11.159  12.650  0.1902  0.0811 -0.3197
31443W        W48290  11.408  10.815  15.705 -0.2359  0.0205 -0.4258
31444W        W48291   3.277   3.675  14.635  0.0280  0.2939 -0.1903
31445W        W48292   8.277  17.664   1.326  0.0100  0.1669  0.1530
31446W        W48293   6.430  11.413   3.973 -0.0745  0.1217 -0.0397
31447W        W48294  13.588   2.468   0.191 -0.3760 -0.2568  0.2665
31448W        W48295   0.455   5.939  15.585  0.1393  0.0273 -0.1735
31449W        W48296  12.657   3.530   2.928  0.2067 -0.0733  0.0020
31450W        W48297  12.119  17.418  12.840  0.1728  0.0026 -0.0851
31451W        W48298   6.509   9.303  12.386 -0.0580 -0.1511  0.2559
31452W        W48299   8.843   1.824   0.296 -0.5501  0.1024 -0.1422
31453W        W48300  18.073  15.825  10.019 -0.2119 -0.2052  0.1575
31454W        W48301   2.791   4.798   5.206 -0.4530  0.1874  0.0686
31455W        W48302   3.794   0.740  15.276 -0.1312 -0.0972 -0.2248
31456W        W48303  15.549  14.898   1.998  0.0928  0.1892  0.1705
31457W        W48304  16.121   2.912   4.154 -0.0183  0.1873  0.1408
31458W        W48305   9.990   5.377   0.685  0.3754  0.1258  0.0504
31459W        W48306   1.431  12.852   2.063 -0.4372  0.2623  0.2080
31460W        W48307   3.946   1.403  12.287 -0.0530 -0.0405  0.1230
31461W        W48308  14.983   9.800   2.382  0.1664 -0.2349 -0.0698
31462W        W48309   9.592  14.087  10.779  0.1590  0.0085 -0.0901
31463W        W48310  15.827  12.255   2.240  0.0209  0.0019  0.1085
31464W        W48311  14.962  14.328   1.046  0.2289 -0.0467 -0.2048
31465W        W48312  13.963  13.636   3.404  0.0018 -0.1085  0.1856
31466W        W48313  13.052   6.075  11.881 -0.1228  0.2196  0.1205
31467W        W48314  11.728   1.875  14.869  0.1047  0.2267 -0.1682
31468W        W48315   1.022   4.243  11.609  0.0498  0.0759 -0.0059
31469W        W48316   7.057   0.090  12.422  0.2842  0.1136 -0.1154
31470W        W48317   7.798   9.496   5.774  0.0031 -0.2651 -0.0241
31471W        W48318   6.566   8.526  13.793 -0.1300  0.2168 -0.2440
31472W        W48319   3.023  16.807   2.690  0.4604  0.1551  0.0502
31473W        W48320   5.805   6.797  13.969 -0.1007  0.0005  0.1676
31474W        W48321  10.884   3.568   4.855 -0.1972  0.0345 -0.3944
31475W        W48322  18.731  17.457   2.558  0.2648 -0.1979 -0.0425
31476W        W48323  12.264   4.395   6.136 -0.0297 -0.4317 -0.1806
31477W        W48324  12.659  16.925   1.494 -0.1861  0.4071  0.1153
31478W        W48325   7.045  15.125   3.840 -0.0329 -0.0154  0.0426
31479W        W48326   7.749   9.177  15.580 -0.0042 -0.2332 -0.3256
31480W        W48327  10.024  17.405   0.135 -0.1030  0.0678 -0.0769
31481W        W48328  15.734   3.720   3.947  0.1225 -0.4257  0.0611
31482W        W48329   6.747  16.958   2.203  0.1032 -0.0305  0.1058
31483W        W48330   4.710   6.656   4.102 -0.1734  0.3730 -0.1769
31484W        W48331   2.516   7.182   0.861 -0.2171 -0.3653 -0.0072
31485W        W48332  16.731   5.146  12.080  0.0088 -0.2925  0.0737
31486W        W48333   1.469   7.472  12.804 -0.5140 -0.0955  0.2714
31487W        W48334   6.537   8.943  10.616 -0.3869 -0.0778 -0.0160
31488W        W48335  10.551  12.530   0.566  0.1490  0.0871 -0.0909
31489W        W48336  18.458  18.790  15.570  0.2469 -0.1427  0.1122
31490W        W48337  18.486  11.721   2.818  0.0737  0.2305  0.1136
31491W        W48338   8.983  10.061  11.478  0.3027  0.1508 -0.2208
31492W        W48339   9.539  17.390   4.057  0.0195  0.0502 -0.1125
31493W        W48340   9.347  16.069   4.842  0.0170 -0.1016 -0.0466
31494W        W48341  14.425  16.040  14.731 -0.1307  0.2401  0.2654
31495W        W48342  16.967  17.551  11.271 -0.1776  0.3375 -0.0086
31496W        W48343   9.149   4.886   5.197  0.2838 -0.1101 -0.2305
31497W        W48344  10.556  11.801   1.485  0.1016 -0.0255 -0.2945
31498W        W48345  15.297   3.071  11.391 -0.0275  0.4336  0.1663
31499W        W48346  14.083  18.452  14.075 -0.1051  0.1427 -0.0287
31500W        W48347  17.646  17.992  13.117  0.1162 -0.3212  0.1637
31501W        W48348  14.254   4.886   3.522 -0.1149 -0.0355  0.2391
31502W        W48349  17.354  12.075   3.940  0.2618 -0.1003 -0.0827
31503W        W48350  17.103  15.616   2.992  0.3408 -0.1229  0.1739
31504W        W48351   5.846  13.825  13.263 -0.2282 -0.0554  0.1284
31505W        W48352  16.009  17.908  11.918  0.1211  0.1591 -0.1017
31506W        W48353  14.870  15.923  14.895 -0.2053 -0.5244 -0.0415
31507W        W48354   4.439   1.114   3.043  0.2273  0.1245  0.2370
31508W        W48355  15.478   5.989   4.990 -0.1119  0.3069  0.1175
31509W        W48356   3.947   2.867   2.919 -0.2582  0.0257 -0.1600
31510W        W48357   6.707   7.258   1.532  0.0710  0.1059 -0.1028
31511W        W48358   1.330   5.265  12.397 -0.1495 -0.0421 -0.0683
31512W        W48359  12.981  11.893  14.943 -0.2213 -0.0929 -0.1687
31513W        W48360  10.493  13.784   0.098  0.1429  0.0351 -0.4684
31514W        W48361   2.803  11.384   4.350  0.0407  0.0672  0.1556
31515W        W48362   0.439  10.049   4.504  0.2535  0.0049  0.0720
31516W        W48363   8.177   5.312   1.422 -0.1416 -0.2161 -0.1956
31517W        W48364  17.803  15.596   4.984  0.0148  0.2358 -0.0276
31518W        W48365   5.972  18.476   1.842 -0.0844 -0.2923  0.0639
31519W        W48366   1.987   6.322   4.666 -0.4721  0.1235  0.1349
31520W        W48367   2.369   2.566   5.137  0.0803  0.1567  0.2619
31521W        W48368  15.304   9.945   4.179 -0.2136 -0.0226 -0.1759
31522W        W48369  18.666   7.009  11.499 -0.0382 -0.1864 -0.1687
31523W        W48370   1.455  15.824   2.483  0.0456  0.0857 -0.2616
31524W        W48371   0.423  18.827  12.191  0.1449 -0.1748 -0.1327
31525W        W48372  12.294  14.705  10.976  0.1202 -0.1654  0.1499
31526W        W48373   9.628  18.277   1.982  0.1179 -0.3541 -0.1024
31527W        W48374  13.414  12.714   4.045  0.3416  0.1920 -0.5496
31528W        W48375   2.811   4.444  15.757 -0.2911  0.3969 -0.1657
31529W        W48376  10.381  15.090  11.660 -0.4243 -0.3147 -0.4183
31530W        W48377  16.737   0.299   1.091 -0.0881 -0.3914  0.0527
31531W        W48378  17.523   8.089   1.874  0.1311  0.2764 -0.0626
31532W        W48379  10.851   7.761   4.653  0.2165  0.1096  0.1113
31533W        W48380   9.478  10.838  11.611  0.4243 -0.3859  0.0161
31534W        W48381  11.394   0.266  15.283  0.2907 -0.1135  0.2202
31535W        W48382   7.437  10.480   4.566  0.6073  0.1329 -0.0058
31536W        W48383   8.327  12.006  15.600  0.1182 -0.1600  0.1600
31537W        W48384   0.342   7.211   2.506  0.0193 -0.3329  0.0474
31538W        W48385   2.100   7.360   4.128 -0.3539 -0.0036 -0.0930
31539W        W48386   8.409   4.282   1.491  0.2545 -0.2189  0.2272
31540W        W48387   7.168  17.975   3.062  0.2637  0.2154  0.1108
31541W        W48388  11.491  11.531  14.509 -0.1366 -0.5967 -0.4686
31542W        W48389   3.952  13.086   4.042 -0.2839  0.0253  0.4409
31543W        W48390  15.175   5.355   1.086  0.3640  0.0152  0.1296
31544W        W48391  16.799   3.048   5.490  0.0439 -0.0221 -0.4640
31545W        W48392   7.176  18.258  12.719 -0.2571  0.0487 -0.0206
31546W        W48393   5.358   3.691  15.036  0.0007  0.1688  0.1791
31547W        W48394   7.999  11.659  15.444 -0.1161 -0.1161 -0.4215
31548W        W48395  11.580   4.303   1.319  0.3814 -0.3937 -0.0508
31549W        W48396  17.658   5.795  14.958 -0.2845 -0.0176 -0.2384
31550W        W48397  16.364   5.305  14.432  0.0893  0.0653  0.3515
31551W        W48398  16.368  13.960  14.501  0.0203  0.0021 -0.1182
31552W        W48399   5.929  10.345  13.666 -0.3771  0.1678  0.2048
31553W        W48400   8.900   5.551   1.709  0.1392 -0.3029 -0.1366
31554W        W48401   6.035   8.172   4.672 -0.1574  0.2091 -0.1942
31555W        W48402  12.892   3.684   1.200 -0.1267  0.0800 -0.1072
31556W        W48403   8.775   8.483   2.349  0.0078  0.0107  0.2345
31557W        W48404   9.448   2.226   4.491  0.3634 -0.1808  0.1000
31558W        W48405  18.492   1.788  13.467 -0.1197 -0.1582  0.2249
31559W        W48406  17.979   3.189  11.600  0.0181  0.1157 -0.1652
31560W        W48407  13.698   7.610  12.541  0.0207 -0.1337 -0.0186
31561W        W48408  16.616   7.446   4.778  0.0192 -0.1239  0.0219
31562W        W48409  14.133   8.740   3.920 -0.1424  0.2317  0.1353
31563W        W48410   1.541  13.375  11.727 -0.0993  0.2847 -0.1272
31564W        W48411  18.730   6.554   1.604 -0.1314  0.1711 -0.0623
31565W        W48412   0.898   2.235   1.013  0.0529  0.2445  0.2077
31566W        W48413  14.164   5.327  14.254  0.1406  0.1854  0.0937
31567W        W48414   0.198  13.769   0.160 -0.0815  0.0070 -0.1151
31568W        W48415   4.074  11.524  14.476  0.1768  0.0567  0.4818
31569W        W48416  10.542   7.488   2.788 -0.0683  0.0971 -0.1704
31570W        W48417   4.745  15.534   2.883 -0.0555  0.0563 -0.0274
31571W        W48418  14.923  17.985   0.579 -0.0140 -0.2042 -0.0184
31572W        W48419  18.289   6.740   1.532  0.1376 -0.0329  0.3789
31573W        W48420   3.094  12.178  15.754 -0.1735 -0.3554  0.0358
31574W        W48421   2.274   6.992  13.135  0.4234  0.0960  0.2818
31575W        W48422   8.739   6.482   1.884 -0.2086  0.0705 -0.1768
31576W        W48423   4.855  17.584   0.433 -0.1556 -0.1073  0.3162
31577W        W48424   4.304   6.568  11.984  0.3435 -0.4273 -0.1649
31578W        W48425   2.361  15.457  15.078 -0.2030 -0.0207 -0.1336
31579W        W48426   9.993   8.268   2.779  0.1687  0.0827  0.1213
31580W        W48427  14.915   5.370  14.157 -0.0224  0.1480  0.2594
31581W        W48428  13.395  15.541   3.483 -0.0889  0.1335 -0.1747
31582W        W48429   0.529   0.877  12.770 -0.2681  0.1730 -0.0338
31583W        W48430  11.802   8.371   5.051  0.1559 -0.1317 -0.1551
31584W        W48431  18.110   3.703   4.592 -0.0101  0.1038  0.1942
31585W        W48432   9.250  12.055  14.523 -0.1108 -0.2563  0.0308
31586W        W48433  15.592  11.790  14.837  0.1162  0.1219  0.1196
31587W        W48434  10.516   2.532   1.235 -0.2067  0.3056 -0.0169
31588W        W48435   1.459  12.363   5.257  0.0562 -0.0572  0.1702
31589W        W48436   3.501   5.632   0.341 -0.1084 -0.1649 -0.4703
31590W        W48437  18.259  12.482  14.351 -0.1636  0.1590  0.2510
31591W        W48438   6.210  14.629   4.842 -0.1513  0.0360 -0.0321
31592W        W48439  18.613   6.653  13.216 -0.1220 -0.1044  0.2105
31593W        W48440  10.180  10.515  15.779  0.2577 -0.1666  0.3206
31594W        W48441   4.585   7.564   1.207  0.0292 -0.2575  0.0604
31595W        W48442  13.663  10.569   0.960 -0.1558 -0.2848  0.1074
31596W        W48443  11.697  11.209   0.690  0.0117 -0.1314  0.1759
31597W        W48444  12.146   6.782   4.258  0.1970  0.1877 -0.3600
31598W        W48445  14.052   0.353   5.639 -0.3186  0.1819  0.1890
31599W        W48446   0.591  18.807  13.595  0.3662  0.2756  0.0123
31600W        W48447   3.687   7.029   4.363  0.4333 -0.2128  0.0135
31601W        W48448   5.484   6.897  14.574  0.2272  0.0638 -0.0849
31602W        W48449  18.168  10.199   0.882  0.1505 -0.0236 -0.0031
31603W        W48450  12.548   6.090   5.007  0.3638 -0.0301 -0.0005
31604W        W48451  18.490   6.107  15.166  0.0095  0.0517  0.0205
31605W        W48452   2.139   6.812  14.695 -0.1371  0.0921  0.4377
31606W        W48453  14.060   1.156  13.174 -0.1709 -0.0132 -0.0330
31607W        W48454   3.484   5.423  13.852  0.0823  0.2324 -0.3086
31608W        W48455  15.474  14.017  14.613 -0.1458  0.2748  0.3024
31609W        W48456   4.870   5.938   5.185 -0.0159 -0.0515  0.0660
31610W        W48457   2.932  13.678   3.329 -0.4258  0.2044  0.2352
31611W        W48458   7.822   4.396   4.016 -0.2126  0.3142  0.1744
31612W        W48459  14.229  13.268  15.357 -0.2598  0.1738 -0.1209
31613W        W48460  12.799  16.011   4.041 -0.2924  0.0463 -0.0734
31614W        W48461  16.703  13.882  13.670 -0.1327 -0.0382 -0.1867
31615W        W48462   8.484  11.281  14.041 -0.0811  0.0935 -0.2172
31616W        W48463   1.305  12.693   0.893  0.1807  0.0389 -0.1057
31617W        W48464  13.592   0.265  10.828 -0.0481  0.0067  0.1017
31618W        W48465   9.778   4.588   1.172  0.0887 -0.0906  0.0273
31619W        W48466   4.508  14.789   1.642  0.0585  0.0375  0.0833
31620W        W48467   1.487   6.749  11.047  0.1634  0.1393  0.0957
31621W        W48468   6.696  13.122   1.802  0.3900 -0.0553  0.0616
31622W        W48469   6.409   1.946  14.719  0.2037  0.0438 -0.0466
31623W        W48470   1.353  16.596  12.099  0.2297 -0.4350  0.1987
31624W        W48471  13.142   6.746   0.269 -0.2873  0.1586  0.0963
31625W        W48472  13.315   8.615   1.565 -0.2690  0.1434 -0.2543
31626W        W48473  10.895  17.102  13.917 -0.1682  0.0268  0.1003
31627W        W48474  14.824  16.627   2.277  0.3654 -0.0644  0.1522
31628W        W48475   2.746  13.263  13.105  0.0047 -0.0372  0.4884
31629W        W48476  18.110   4.278  14.833  0.2453 -0.0183 -0.2006
31630W        W48477   7.528  12.056  13.773  0.0813  0.0127 -0.0178
31631W        W48478   5.981  14.931  15.046  0.0862  0.2804  0.1916
31632W        W48479   5.482   6.133   1.622 -0.0160 -0.2229 -0.0855
31633W        W48480  12.507   6.603  14.120  0.0160  0.1296  0.1128
31634W        W48481   6.440  10.247  14.951 -0.0201  0.0480 -0.3606
31635W        W48482   8.515  13.829   2.087  0.3418  0.0809 -0.2224
31636W        W48483  13.456  11.070   2.123  0.0923  0.0306  0.1454
31637W        W48484  14.926  18.595  13.993  0.0752 -0.2266  0.4155
31638W        W48485   2.050  10.499  11.851  0.0115 -0.1692  0.1779
31639W        W48486  15.119   9.392   2.832 -0.1333 -0.0010  0.1460
31640W        W48487  10.061  10.184  12.544  0.2250  0.2019  0.1160
31641W        W48488  14.474   9.454   4.079  0.3299  0.1448 -0.1931
31642W        W48489  13.005  12.567  11.780 -0.0661  0.0933 -0.0945
31643W        W48490  13.004  13.847  14.311 -0.3572 -0.1510 -0.0681
31644W        W48491   6.613  11.868   0.052 -0.0181  0.1530 -0.1608
31645W        W48492   6.354  15.509  13.293 -0.1647 -0.0783  0.3900
31646W        W48493  13.627  14.659  15.770 -0.3634  0.1145 -0.0837
31647W        W48494   2.531   4.626  11.609  0.1368 -0.5190  0.3000
31648W        W48495  10.567   2.781   0.077  0.1548 -0.0216 -0.0763
31649W        W48496  12.094  12.698   1.645  0.0925  0.0977 -0.1671
31650W        W48497   6.244   7.871  13.192  0.1516 -0.2678 -0.0595
31651W        W48498  16.392   9.942  12.071 -0.2594 -0.2821 -0.1014
31652W        W48499   8.349   6.896   4.949  0.1859  0.1128  0.0962
31653W        W48500   7.819   4.926   0.452 -0.1175  0.0819 -0.1867
31654W        W48501   5.196   9.826   2.131 -0.0460 -0.0008 -0.0310
31655W        W48502  11.910   1.377   4.733 -0.1179  0.2722 -0.1096
31656W        W48503   8.111   6.379  11.026  0.1086  0.0450  0.1579
31657W        W48504   4.640  13.806   1.784 -0.0270 -0.4412 -0.1753
31658W        W48505  17.301  14.402  14.930 -0.1520 -0.3105  0.2469
31659W        W48506   5.546  10.686  11.389  0.0239  0.1580  0.0523
31660W        W48507   5.034   9.727   4.633 -0.0017 -0.3385 -0.1209
31661W        W48508   2.394   1.147  14.672  0.3156 -0.3372  0.1421
31662W        W48509   6.387  18.090   2.976 -0.0552 -0.1265 -0.2056
31663W        W48510   7.268  17.469  12.415 -0.0432 -0.0629 -0.0760
31664W        W48511   2.995   1.365   0.628  0.1472 -0.0976  0.0009
31665W        W48512  12.471   6.798  11.813 -0.2145 -0.2268 -0.2056
31666W        W48513   7.775   1.550  10.176 -0.0342  0.0002 -0.3233
31667W        W48514  15.966   5.934  15.187  0.1242 -0.2762 -0.2161
31668W        W48515  17.639  10.390  13.040  0.0129  0.3587  0.0564
31669W        W48516  12.972  14.672   0.830 -0.1837 -0.1244  0.1878
31670W        W48517   4.503  17.355  14.881  0.2455  0.0167  0.1175
31671W        W48518   8.386   0.238  11.278 -0.0563 -0.2420  0.2162
31672W        W48519   0.662   6.664   2.039 -0.2206  0.0661 -0.0723
31673W        W48520  13.559   8.315   4.013  0.2969 -0.1807 -0.0678
31674W        W48521  12.555   7.030   2.293 -0.0502  0.1738 -0.1464
31675W        W48522   2.604   4.044   2.539  0.1926  0.0842  0.5033
31676W        W48523  15.060   4.184   0.149 -0.1247  0.0940 -0.1314
31677W        W48524   3.745  18.616  11.930 -0.0808  0.1822 -0.1264
31678W        W48525   0.750  17.316   2.820  0.0964 -0.1535 -0.0399
31679W        W48526   9.212  16.383   2.023 -0.1047 -0.2513 -0.1165
31680W        W48527   8.444  12.462  10.124 -0.0222 -0.1849  0.0831
31681W        W48528  15.260   0.940   6.335  0.0760 -0.2111  0.3267
31682W        W48529  12.494   5.474  12.363 -0.2571  0.1942  0.0116
31683W        W48530  10.776   9.241  14.949  0.0596 -0.0356 -0.4015
31684W        W48531  10.950   6.545  12.636 -0.0745 -0.0237 -0.0813
31685W        W48532   0.353   1.554   5.113 -0.0366  0.0191  0.0088
31686W        W48533  12.087   2.883   2.399 -0.0183  0.0274  0.0457
31687W        W48534  16.708   4.618   2.134  0.2989  0.0293 -0.0331
31688W        W48535   6.234   4.824   4.247 -0.0362 -0.1189 -0.0652
31689W        W48536   3.926   3.742  13.363  0.1346 -0.4132  0.0458
31690W        W48537   3.964  12.461  12.022  0.0619 -0.2120 -0.0633
31691W        W48538  14.426   2.185  15.557 -0.2428 -0.3642 -0.1164
31692W        W48539   6.621  17.674  12.004  0.1105  0.1063  0.2191
31693W        W48540   8.707   1.458   0.777  0.1634 -0.0140  0.1039
31694W        W48541  11.738   4.993  10.918  0.1427  0.0402 -0.1079
31695W        W48542  14.807   8.253   3.457 -0.1397  0.3820  0.1058
31696W        W48543   7.520   9.257   2.598  0.0705  0.1021  0.2722
31697W        W48544  16.664   4.601   3.409 -0.1805  0.1821 -0.1712
31698W        W48545   1.706  17.475   4.754  0.1505  0.2500  0.0205
31699W        W48546   4.282  15.291   2.559 -0.1044  0.2404  0.3553
31700W        W48547   2.708  17.383   0.500 -0.0105  0.1535 -0.1746
31701W        W48548   2.723  10.894  14.724 -0.3484 -0.1039 -0.1794
31702W        W48549   4.678   2.145   1.387  0.1238  0.1559 -0.0099
31703W        W48550  15.414   6.153   1.406  0.4104  0.2515  0.2824
31704W        W48551   4.729  18.573  15.333 -0.3247 -0.0578  0.1598
31705W        W48552   2.967  14.607  12.159  0.0744  0.1898  0.2054
31706W        W48553   7.712  16.048  14.068 -0.1266 -0.4451  0.0955
31707W        W48554  14.160  14.014   2.117  0.2332  0.0385  0.0599
31708W        W48555  18.272  17.430  12.112 -0.0348  0.0888  0.0443
31709W        W48556   5.781  16.738  11.486 -0.0568 -0.2186 -0.3263
31710W        W48557  16.499  17.526   5.799  0.0301 -0.0864  0.1269
31711W        W48558  14.875  13.155   2.061  0.1414 -0.0075  0.0745
31712W        W48559   6.497  12.108   2.118 -0.2381 -0.1877 -0.0503
31713W        W48560  16.676  16.699  13.197  0.2556 -0.0756 -0.1185
31714W        W48561   7.592   4.394   3.174 -0.0393  0.0411 -0.0694
31715W        W48562  14.022   6.916  10.371 -0.1463  0.0412  0.1876
31716W        W48563   9.198  15.216   4.952 -0.1079 -0.2389 -0.1475
31717W        W48564  15.672   7.033   4.443 -0.1697 -0.0531  0.0632
31718W        W48565  11.957   8.835  14.105 -0.0924  0.0629 -0.1909
31719W        W48566  12.929  13.051  14.129 -0.2233 -0.2669 -0.0580
31720W        W48567  18.388  18.098   3.852 -0.0596 -0.1301  0.0414
31721W        W48568   8.953   5.605  15.253  0.1873 -0.1048  0.1791
31722W        W48569  11.220   8.308  15.649  0.0828 -0.0804  0.0736
31723W        W48570  15.917   0.615  11.930 -0.2241  0.0858 -0.1844
31724W        W48571  11.524   6.607  12.830 -0.0490  0.0836 -0.1811
31725W        W48572  13.098  13.836   2.216 -0.2607 -0.0243  0.0485
31726W        W48573   8.324   5.661  13.300 -0.3827 -0.3280  0.0813
31727W        W48574  10.026  18.335   3.739 -0.0818 -0.1064 -0.5299
31728W        W48575   5.697  12.849   1.162  0.0416 -0.2033 -0.1730
31729W        W48576   8.375   5.982   3.245  0.0162 -0.2940 -0.1148
31730W        W48577   9.073  17.058  11.427 -0.0108 -0.2245 -0.0545
31731W        W48578   1.819   4.678   0.174  0.0843  0.1927 -0.0659
31732W        W48579  15.550  14.349  11.349  0.1518 -0.1431  0.1277
31733W        W48580   6.041  14.212  10.558  0.1024  0.1298 -0.5929
31734W        W48581   0.811   5.968  11.234 -0.0605  0.1433  0.2503
31735W        W48582  14.542   6.537   5.035 -0.1633  0.3195 -0.2313
31736W        W48583  11.598  12.879   3.245 -0.0241 -0.2191  0.0381
31737W        W48584  14.219   5.985   6.322 -0.0175  0.1785  0.1881
31738W        W48585   7.866  12.292  14.808 -0.0367 -0.0198  0.2133
31739W        W48586   8.182  10.803   0.458  0.1072  0.0597  0.1471
31740W        W48587  16.503  10.283  12.761  0.0208  0.3247  0.0109
31741W        W48588  16.436   1.553  12.016 -0.1961  0.1211  0.0013
31742W        W48589   2.790   3.145  12.988 -0.3377  0.0271  0.0817
31743W        W48590  10.789   1.232   5.383 -0.2055 -0.1027 -0.0206
31744W        W48591  10.540   6.085   2.342 -0.1734  0.2605 -0.0909
31745W        W48592   9.339   9.234   9.538 -0.3155  0.5261  0.2133
31746W        W48593   3.369   4.936  12.483  0.1110  0.1542  0.0922
31747W        W48594  18.368   5.657   3.229  0.2375 -0.1211  0.0732
31748W        W48595  16.118   0.711  14.979 -0.2179  0.0577  0.0778
31749W        W48596   0.944   2.183   5.301  0.0195 -0.2079 -0.0242
31750W        W48597  11.438   2.842   3.671  0.2512  0.0391 -0.3296
31751W        W48598   0.897  11.825  13.426 -0.1944 -0.1671 -0.2951
31752W        W48599   0.346   2.231  13.088 -0.0191 -0.0087  0.0642
31753W        W48600  12.846   1.071   0.166 -0.0159 -0.0500 -0.1237
31754W        W48601   0.662   7.559   2.859  0.0387  0.1898  0.1291
31755W        W48602  17.955  12.934  11.226  0.2462  0.1226 -0.2579
31756W        W48603   9.401   2.788   1.296 -0.3349 -0.0950  0.1266
31757W        W48604   4.690   6.204  13.903 -0.0484  0.1370 -0.1609
31758W        W48605   0.552  15.614   1.322 -0.0982 -0.1729  0.0657
31759W        W48606  17.803   3.265   1.631  0.1669  0.2089  0.3096
31760W        W48607   9.813   2.380   2.526 -0.0971  0.0821  0.1276
31761W        W48608   7.989   5.498  15.340 -0.1040 -0.2702  0.1143
31762W        W48609   4.133  15.275  13.223  0.1518  0.4337 -0.1601
31763W        W48610  12.063   3.595  14.349 -0.0464  0.1037  0.1835
31764W        W48611   3.901   1.163   2.915 -0.4065 -0.1367  0.0596
31765W        W48612  16.502   9.077   5.849 -0.1018  0.0467 -0.1827
31766W        W48613  12.884  12.023  15.460 -0.0954  0.0950 -0.0715
31767W        W48614  11.045   3.168  12.402  0.2921 -0.4953  0.0508
31768W        W48615  14.183  10.816  13.992  0.0231  0.0844 -0.4389
31769W        W48616   9.030  14.241  14.349 -0.0064  0.1592 -0.2943
31770W        W48617   8.305   6.205  15.761 -0.3696 -0.0355 -0.0435
31771W        W48618   0.741  13.349   5.815  0.0987 -0.0516  0.2352
31772W        W48619   3.278  16.982   0.896 -0.1878 -0.1322 -0.2659
31773W        W48620   5.311  16.774  10.285  0.1121  0.1674 -0.1263
31774W        W48621   4.905  10.759   5.230  0.0977  0.0770  0.1317
31775W        W48622   5.304  14.540   3.857  0.2486  0.0397  0.0830
31776W        W48623   6.478   3.334   2.448  0.0432  0.1618  0.0193
31777W        W48624  12.989  15.499  13.726 -0.2297 -0.1347 -0.0321
31778W        W48625  14.027   5.830   1.696 -0.1600 -0.0347  0.0363
31779W        W48626  18.355   3.556   0.702  0.0286  0.1287  0.0656
31780W        W48627  15.725   3.809  10.571 -0.1123  0.0754  0.1362
31781W        W48628  13.420  10.919  13.505 -0.0374  0.5353 -0.1037
31782W        W48629  10.943  14.816   2.258  0.0159 -0.0979 -0.0688
31783W        W48630   4.568  11.082  13.896  0.0536 -0.1152 -0.0840
31784W        W48631  17.783  13.278   2.418  0.2161 -0.0176  0.2996
31785W        W48632   5.912   3.847   4.129  0.0222 -0.0609 -0.4475
31786W        W48633   3.366  13.646   0.645 -0.0175 -0.0693 -0.1013
31787W        W48634  15.471   2.800   3.623 -0.0769 -0.2024  0.0853
31788W        W48635  12.040  10.994   1.036 -0.0405 -0.1658  0.2180
31789W        W48636  12.764   0.665   5.215  0.2606 -0.1704  0.2029
31790W        W48637   0.280  10.428   0.992  0.2156  0.1023 -0.0961
31791W        W48638  15.718  14.921  15.001 -0.1026  0.3272 -0.0584
31792W        W48639   2.272   7.426   5.044 -0.1170  0.0194 -0.0079
31793W        W48640   7.539   2.385   3.765 -0.2003  0.1525  0.2139
31794W        W48641   1.201   4.757  12.520 -0.4564 -0.1311  0.0744
31795W        W48642   9.963   7.111   4.870 -0.0556 -0.0744 -0.1267
31796W        W48643  13.638  11.299   5.297  0.0063  0.3142 -0.0217
31797W        W48644   0.318  11.551   0.227 -0.3238  0.1117  0.1435
31798W        W48645   3.008  11.414   4.762 -0.0776  0.1215 -0.1666
31799W        W48646  11.197  10.012  13.830  0.0648  0.1788 -0.0423
31800W        W48647  14.477  16.762   2.753  0.0190  0.1625  0.0703
31801W        W48648   2.178  10.811  11.433  0.1439  0.0664 -0.0397
31802W        W48649  10.949   7.910  15.342  0.1208 -0.2277  0.2042
31803W        W48650  17.914  13.035  15.778  0.1600 -0.0024  0.1243
31804W        W48651   5.850  14.780  12.562  0.0642 -0.0527 -0.2697
31805W        W48652   6.909   0.707  10.829  0.0565  0.1148  0.0259
31806W        W48653   0.018  15.422  14.955 -0.0315 -0.2550  0.0249
31807W        W48654  14.019   6.156  11.050  0.1387  0.3214 -0.1987
31808W        W48655  17.781  17.007   3.619  0.0582  0.3415  0.1447
31809W        W48656  12.697  14.563   2.170 -0.0591  0.3934  0.1490
31810W        W48657   9.938  13.202  10.719 -0.0494 -0.4294  0.0558
31811W        W48658   8.793  13.610   4.175  0.1760  0.2765  0.1894
31812W        W48659  15.979  10.831   2.067  0.2274  0.1394 -0.0960
31813W        W48660   4.123   3.824   0.984 -0.0464 -0.0046 -0.5725
31814W        W48661  14.501  15.817  12.053  0.1981 -0.2217 -0.0457
31815W        W48662   3.246   3.903   0.441  0.2951 -0.2546 -0.0766
31816W        W48663  15.498  14.639  12.495 -0.1110  0.1281 -0.1948
31817W        W48664  12.879  12.497   1.342  0.0340  0.0788 -0.0704
31818W        W48665   2.717  12.992   0.315 -0.1266 -0.1251 -0.1527
31819W        W48666  13.805  15.496   5.090  0.1171 -0.1345  0.0181
31820W        W48667  16.307   6.928  13.850 -0.0849  0.1677 -0.2971
31821W        W48668   5.612  12.380   4.940  0.1046  0.0425  0.4222
31822W        W48669   4.456  13.668  12.542 -0.0009 -0.0997 -0.2267
31823W        W48670   1.516   1.038   3.321  0.1443 -0.0061  0.3518
31824W        W48671  16.282  17.660  14.293 -0.0854  0.0956 -0.0877
31825W        W48672  14.563   1.701   2.339  0.0307 -0.1940 -0.1143
31826W        W48673   1.640  11.319   3.468  0.0365 -0.1595  0.0375
31827W        W48674   8.696  12.790  15.250  0.1089 -0.2261  0.0680
31828W        W48675   5.216  10.383   4.760 -0.2214 -0.0651  0.1132
31829W        W48676   7.120   7.017  14.156 -0.4211 -0.1894 -0.1994
31830W        W48677   2.099  12.370   0.166  0.2195  0.1688  0.2861
31831W        W48678  14.809   5.047  11.305 -0.2656  0.0876 -0.1773
31832W        W48679   8.650   9.144  11.756  0.1154 -0.2152  0.0706
31833W        W48680  15.722   0.922  14.699 -0.1524 -0.0123  0.2119
31834W        W48681  16.093   3.887   2.185 -0.1545 -0.1894  0.4589
31835W        W48682   6.033  16.829  14.764 -0.0723  0.0820 -0.3920
31836W        W48683  11.564   1.053  12.931  0.0288  0.1723  0.1383
31837W        W48684   6.223  16.217  15.287  0.1986 -0.1196  0.0315
31838W        W48685   9.242   0.624   4.340 -0.3281  0.2652  0.5490
31839W        W48686   1.765  13.455  12.690  0.0037 -0.0525  0.2249
31840W        W48687  16.436   1.226  13.333  0.0934  0.2280  0.0344
31841W        W48688  12.180  11.078   3.248 -0.0377  0.2305  0.2218
31842W        W48689   7.215  14.403  13.993  0.1017  0.0625  0.0171
31843W        W48690  13.489   3.933   2.447  0.5323  0.1740  0.0755
31844W        W48691   1.709   4.906  14.418  0.1138 -0.0864  0.3048
31845W        W48692   3.380   9.764  15.110 -0.4530 -0.1931  0.1444
31846W        W48693   9.896  10.732   0.904  0.1015  0.0762  0.1407
31847W        W48694   6.813  12.977  12.146  0.0735  0.1193 -0.3251
31848W        W48695  17.187  15.372   0.203  0.3618  0.1301 -0.1949
31849W        W48696   8.097  18.645  12.027 -0.1835  0.3229  0.1279
31850W        W48697  18.802   7.440   2.346  0.2193  0.0917 -0.0157
31851W        W48698  17.548  17.348  14.150 -0.1698  0.2799  0.4445
31852W        W48699   3.404   5.292   4.635 -0.2886  0.3603 -0.0999
31853W        W48700   7.539  17.528   4.848 -0.1111  0.2106  0.1753
31854W        W48701   0.439   2.514   0.639  0.0573  0.0370 -0.0924
31855W        W48702   3.275  14.757  15.312  0.3409  0.1422 -0.0070
31856W        W48703   6.318   3.950  14.961  0.2169  0.0448 -0.2827
31857W        W48704  14.171  15.282  15.265 -0.3043  0.4270 -0.0616
31858W        W48705   7.243   9.483  13.443  0.1193  0.0558 -0.3497
31859W        W48706   7.515   9.703  14.296 -0.0224 -0.0211  0.2315
31860W        W48707  12.165  14.472  13.167 -0.0114 -0.1428  0.1724
31861W        W48708   9.074  14.832   1.904 -0.2203 -0.0860  0.1169
31862W        W48709  17.100   1.654  14.903  0.2675  0.1182  0.0760
31863W        W48710   4.289   9.657   2.718  0.0771 -0.0300  0.1964
31864W        W48711  18.837  10.081  15.017 -0.1297  0.0306 -0.3225
31865W        W48712   9.741   2.637   2.034 -0.4289  0.0501 -0.4601
31866W        W48713  16.285  12.146   0.480 -0.0396  0.1636  0.0432
31867W        W48714  12.883  18.829   1.660  0.2078  0.3524  0.0779
31868W        W48715  10.427   5.169   2.993 -0.1356 -0.0649 -0.2689
31869W        W48716  10.474   9.856   0.552  0.0542  0.0579 -0.1040
31870W        W48717   9.946   4.101   1.206  0.1729  0.1402 -0.4647
31871W        W48718  12.113   5.552   2.661 -0.1193 -0.2658  0.0634
31872W        W48719  17.655  13.260   2.975  0.2472 -0.1870 -0.2183
31873W        W48720   7.609  17.547   3.148  0.2392 -0.0368 -0.1572
31874W        W48721   1.591   8.480  11.779 -0.0230 -0.0182  0.0675
31875W        W48722   0.559  15.968  15.613  0.0328 -0.2065 -0.2738
31876W        W48723   8.070   2.659   2.677  0.1416  0.1660  0.1109
31877W        W48724  12.745  16.626  15.374  0.5154 -0.0509  0.1298
31878W        W48725  18.680  16.127  13.787 -0.4905  0.1692 -0.0484
31879W        W48726  11.143   6.865  11.902 -0.0141  0.1593 -0.1873
31880W        W48727   9.212   5.087   0.698  0.2060 -0.1140  0.1699
31881W        W48728  18.843   6.035   1.692 -0.1214  0.3119 -0.2085
31882W        W48729  18.230   2.305  15.571  0.0198  0.1206  0.2318
31883W        W48730   4.876   9.261  11.379 -0.1992  0.1260 -0.1824
31884W        W48731  13.100   5.605  12.867  0.2050 -0.2147  0.3309
31885W        W48732  18.509   7.454   3.578 -0.1513  0.0250  0.0547
31886W        W48733  16.060  12.914  14.015 -0.1775 -0.2325  0.0896
31887W        W48734  16.042   9.153   4.860 -0.1391  0.1172  0.2494
31888W        W48735   3.485  11.472   5.326 -0.0348 -0.0077  0.3275
31889W        W48736  16.259  17.013   0.646  0.0229 -0.1248 -0.1374
31890W        W48737  15.141  14.267   3.183 -0.1510  0.0692 -0.1128
31891W        W48738   6.194  13.700  11.728 -0.0949 -0.0746  0.0101
31892W        W48739   7.051  13.514   0.380 -0.0777  0.1902  0.1961
31893W        W48740  11.771  18.323  14.583 -0.1198 -0.0829 -0.0930
31894W        W48741  10.611  12.743  12.793  0.0813 -0.0236 -0.2993
31895W        W48742   0.752  17.194  11.162 -0.1758  0.0923  0.0128
31896W        W48743  13.613  11.757   3.700 -0.2641  0.1134  0.0548
31897W        W48744   8.327  13.253   4.191  0.2280 -0.0651  0.3734
31898W        W48745   0.780   4.767   4.507 -0.2397  0.0169 -0.4298
31899W        W48746  16.165   7.816   3.458  0.1012 -0.1789  0.2097
31900W        W48747  13.815   6.328   4.723 -0.2364  0.0166  0.2132
31901W        W48748   6.966   9.728   5.022  0.1150  0.1526  0.2739
31902W        W48749  14.305   6.604   4.151 -0.3278 -0.1691  0.2982
31903W        W48750   1.362  17.157  14.252 -0.0196  0.1701 -0.0477
31904W        W48751   3.310   6.647   0.147  0.1173  0.1331  0.0345
31905W        W48752  16.872  10.630   0.808  0.0040 -0.0668  0.0079
31906W        W48753  13.780   6.283   2.670  0.0759 -0.0731  0.0816
31907W        W48754   8.389  11.308   1.314 -0.2797 -0.0292 -0.0035
31908W        W48755  18.536   1.294   5.577 -0.4958 -0.1709  0.1280
31909W        W48756  17.126   3.456  13.967  0.1499 -0.1847  0.0190
31910W        W48757   7.344  15.097  12.171  0.0230  0.0906 -0.1705
31911W        W48758   2.933   5.135   4.775  0.1842  0.0057 -0.1027
31912W        W48759   1.999   0.036  10.663  0.0256  0.1329  0.1224
31913W        W48760  14.587  10.132   3.548  0.2137  0.0124  0.0089
31914W        W48761   2.669  16.509  12.512  0.2082 -0.1989 -0.3391
31915W        W48762  14.659  13.599   5.844  0.3368 -0.2312 -0.3032
31916W        W48763  18.141   2.749   0.063 -0.0521 -0.0815 -0.2597
31917W        W48764   8.699   8.856   3.273 -0.1202  0.2584 -0.0231
31918W        W48765  14.324  15.328   4.102  0.0102  0.1858 -0.1708
31919W        W48766  15.444  18.324  13.421 -0.0459  0.1468  0.1677
31920W        W48767   3.875  18.070  12.622 -0.0020  0.3401 -0.2184
31921W        W48768   2.370   2.958  14.244  0.1629  0.2391 -0.1430
31922W        W48769  10.767   3.769  11.648 -0.5088 -0.1897 -0.0018
31923W        W48770   0.325   8.469  13.149  0.5394  0.2515 -0.2051
31924W        W48771   1.755  12.297  14.453 -0.1160  0.0101  0.0102
31925W        W48772   3.662   0.111  11.555 -0.0070  0.0588 -0.0901
31926W        W48773   0.168   4.141   5.727 -0.1462  0.2368  0.1019
31927W        W48774  13.867   1.754   5.874 -0.1311  0.2594  0.1169
31928W        W48775   5.513  16.648  13.040 -0.1257  0.0075 -0.1144
31929W        W48776  11.084   1.604  12.350 -0.3446 -0.0970 -0.1587
31930W        W48777  16.071   3.377   0.454 -0.0401  0.1114  0.1226
31931W        W48778   1.424  11.524  11.611 -0.1750  0.0940  0.2918
31932W        W48779  16.304  10.347   0.168 -0.1506  0.1038 -0.4285
31933W        W48780  13.735   8.791   5.737 -0.1541 -0.1346  0.0194
31934W        W48781  11.110   5.911  13.621 -0.1281  0.2104 -0.2708
31935W        W48782  18.143  16.957   4.488 -0.0415  0.3061  0.1814
31936W        W48783   2.984   1.398   1.156 -0.0447  0.4222 -0.0804
31937W        W48784   1.037   8.040  11.103 -0.1460 -0.1184  0.2207
31938W        W48785   9.812  17.299   4.458 -0.0487  0.1477 -0.1571
31939W        W48786   9.638  15.760  13.011 -0.0309  0.0432  0.1132
31940W        W48787   3.099   2.879  12.474  0.1037 -0.2183 -0.1100
31941W        W48788   1.314   9.080  13.662  0.2420 -0.0497 -0.0162
31942W        W48789  17.468   4.324   1.334  0.1619 -0.1283  0.0034
31943W        W48790   4.596   7.905  13.580  0.1768 -0.0544 -0.1407
31944W        W48791  16.187   6.881   1.875  0.4068 -0.0769  0.1480
31945W        W48792   1.816  15.052   4.011 -0.0134 -0.1306 -0.0335
31946W        W48793   0.597  12.126   0.764  0.2013 -0.1406  0.3362
31947W        W48794   2.542   4.195  11.445  0.0138 -0.2372 -0.3556
31948W        W48795  17.750  15.862   2.276  0.0242  0.0898  0.0402
31949W        W48796  15.242   9.693  13.340 -0.1551 -0.1222  0.2217
31950W        W48797  12.193   9.015   3.559 -0.0737 -0.1404  0.2310
31951W        W48798   4.472  14.085   4.046  0.0013 -0.0056  0.0172
31952W        W48799   1.575   1.151   2.464 -0.0762 -0.2361 -0.2487
31953W        W48800   6.713   7.929   0.249 -0.0139  0.1118 -0.0670
31954W        W48801  17.414  15.860   1.840  0.0441 -0.0954 -0.1048
31955W        W48802   7.491   3.621   4.600 -0.2998  0.2229  0.1349
31956W        W48803  18.315   9.875  12.500 -0.2881 -0.1688 -0.0582
31957W        W48804   9.914  10.129  14.680  0.2858  0.3082 -0.1123
31958W        W48805   2.565  10.697   0.293 -0.1078  0.0701  0.0594
31959W        W48806   6.636  16.610   0.276 -0.0155 -0.2051 -0.0367
31960W        W48807   3.849   2.354  15.729 -0.0870 -0.0859  0.1895
31961W        W48808  13.319  18.447  15.095  0.1947  0.0263 -0.1380
31962W        W48809   3.597  14.624   5.398 -0.1184  0.4259 -0.4163
31963W        W48810   2.870   7.577  12.574 -0.0194 -0.0851 -0.0788
31964W        W48811   8.983   2.544   3.143 -0.0796 -0.3222  0.0159
31965W        W48812  11.604   7.990   1.632  0.0768 -0.0304 -0.1480
31966W        W48813  15.159  15.532  13.552  0.0564 -0.1067 -0.0716
31967W        W48814  13.916   7.301   3.702 -0.0033  0.1400 -0.1051
31968W        W48815  10.470   9.327  12.130 -0.0454 -0.1979 -0.2068
31969W        W48816  13.986  11.233  14.210  0.0748  0.1573  0.1246
31970W        W48817   0.240  12.003  14.200  0.0899  0.1812 -0.2671
31971W        W48818   6.706   2.225  12.187 -0.1114 -0.2349 -0.2398
31972W        W48819  10.769   5.614   1.070  0.0279  0.2513  0.2072
31973W        W48820   9.823  16.688   0.978 -0.0710 -0.3878  0.3260
31974W        W48821   0.850   6.385  14.181  0.2759  0.2242  0.2498
31975W        W48822   4.203   9.641  12.630  0.0006  0.1155  0.2928
31976W        W48823  18.185  18.178   5.099  0.0437  0.0631  0.1125
31977W        W48824  11.574   0.887   5.864  0.0737  0.1555  0.2647
31978W        W48825   7.407   1.371   3.887 -0.1341 -0.1115 -0.1952
31979W        W48826  13.882  15.079   2.281  0.2326 -0.1188  0.1524
31980W        W48827  18.705   8.002   1.405 -0.0029  0.0855 -0.0130
31981W        W48828  13.117   7.513  11.957  0.0873  0.2032  0.0302
31982W        W48829  14.419  14.643  15.369 -0.2345  0.4082  0.1589
31983W        W48830   5.787   3.784  11.264 -0.2049 -0.2547 -0.0289
31984W        W48831   3.901   8.064   4.500 -0.0830  0.2770 -0.1427
31985W        W48832   4.297  11.583   1.615 -0.0080  0.3290  0.0038
31986W        W48833   0.926  16.453   0.937 -0.0544  0.3733 -0.0698
31987W        W48834   5.411  11.882   0.631  0.3707 -0.0122 -0.1667
31988W        W48835   0.186   6.418   1.955 -0.5886  0.0048 -0.0092
31989W        W48836   0.273   9.699   3.513  0.2360 -0.2218 -0.0092
31990W        W48837  16.161  16.586   5.158 -0.0498  0.1032  0.1350
31991W        W48838  14.607   8.972   3.971  0.0923  0.0582  0.1247
31992W        W48839   5.255   4.620  14.448 -0.0874  0.0427 -0.1045
31993W        W48840   8.620  10.100   2.664  0.1871  0.1365 -0.0572
31994W        W48841  13.791   5.525   1.285  0.1274  0.0277  0.2292
31995W        W48842   7.165  10.904   2.518  0.0494 -0.0824 -0.0604
31996W        W48843   8.940   7.920  10.030  0.2384  0.0107  0.3562
31997W        W48844  11.101  16.609   0.599  0.0728  0.2174 -0.0095
31998W        W48845  17.177  12.380   0.920  0.1146  0.3504  0.0727
31999W        W48846   2.069  17.434  11.120 -0.2811 -0.1288 -0.0702
32000W        W48847   0.090  18.139  14.312 -0.2980 -0.2251  0.0671
32001W        W48848  12.883  13.943   1.282  0.0656 -0.3714  0.1915
32002W        W48849  12.314  16.054   5.926  0.0254  0.0542  0.0404
32003W        W48850   5.241   6.916  11.695 -0.0153 -0.5436  0.2069
32004W        W48851  11.399   9.543  13.735  0.2388 -0.1257  0.1186
32005W        W48852   1.349   5.058   3.312  0.2898  0.2448 -0.1292
32006W        W48853   9.835   8.828   9.619  0.2152 -0.1538  0.2080
32007W        W48854   4.739   3.422  14.634 -0.0216  0.0336  0.0087
32008W        W48855  11.389   2.178  14.582  0.0505  0.1508  0.2934
32009W        W48856   5.500  13.486  13.328  0.0577 -0.0931  0.0656
32010W        W48857   5.484  12.701   0.594 -0.0939  0.1649 -0.0022
32011W        W48858  10.914  16.213  10.502  0.0091  0.1318  0.1740
32012W        W48859   9.638   5.388   0.159  0.4184  0.1431 -0.3630
32013W        W48860  11.274  16.239   1.898  0.3339  0.1123  0.3072
32014W        W48861  14.309  15.317   3.546 -0.0575  0.3748  0.2294
32015W        W48862   8.658   8.883   2.659 -0.1901 -0.2418  0.4510
32016W        W48863   8.833  16.381   3.166  0.0046 -0.0060  0.2884
32017W        W48864   3.850  15.085   5.909 -0.4296  0.1801  0.3238
32018W        W48865  10.422  13.330   1.870 -0.0439 -0.0039  0.0540
32019W        W48866  10.829  18.152  15.160  0.1328 -0.1213  0.0370
32020W        W48867   4.280  10.422   0.039 -0.2416  0.0139  0.3075
32021W        W48868   7.964  12.436   5.888 -0.4610 -0.0285  0.2053
32022W        W48869   1.004  14.311  13.748 -0.2369  0.1341 -0.1656
32023W        W48870   6.638   5.964  11.763  0.0777  0.0224  0.0630
32024W        W48871   3.119  10.156  13.648  0.4640  0.2210 -0.1288
32025W        W48872   2.411   5.952   3.970  0.1580 -0.1650 -0.1289
32026W        W48873   7.663   6.988   2.451 -0.1948  0.2881  0.0180
32027W        W48874   4.914   6.887  14.382 -0.0147  0.1919  0.1044
32028W        W48875   2.652   5.845   0.823  0.0267 -0.3695 -0.0750
32029W        W48876   5.461   0.375   2.569  0.2671  0.3807  0.0870
32030W        W48877  12.022   1.741   3.758  0.1737 -0.1491 -0.1339
32031W        W48878  11.414  18.342  13.398  0.0213 -0.3211 -0.0525
32032W        W48879   9.261  17.365  15.563 -0.0043  0.0047  0.0664
32033W        W48880   5.615   9.173  13.422 -0.3797 -0.0158  0.2452
32034W        W48881   0.790  16.477  13.903 -0.1075  0.3096 -0.0798
32035W        W48882   1.656  13.849  11.966  0.0736  0.0824  0.3157
32036W        W48883  12.991  13.332  11.065 -0.2694 -0.0033  0.0672
32037W        W48884  15.268  10.910   4.833 -0.0195 -0.1621  0.0738
32038W        W48885  17.098   1.173  11.519 -0.0260 -0.0999  0.5497
32039W        W48886  14.949   2.943   3.745 -0.3540 -0.0669  0.0687
32040W        W48887   6.791   5.685  13.115 -0.2445 -0.1481 -0.0398
32041W        W48888  18.197   5.420  12.806 -0.0248 -0.2002  0.0930
32042W        W48889   6.629   8.762  12.787 -0.1455 -0.1711  0.0414
32043W        W48890  12.197   9.122  11.378 -0.2893 -0.4403 -0.2094
32044W        W48891   5.948  18.156  15.082  0.0427  0.0767  0.0141
32045W        W48892  17.534  13.450  14.695  0.0309  0.2425 -0.0879
32046W        W48893  16.290   0.851   1.016  0.3963  0.4258  0.1187
32047W        W48894   8.492   8.013   1.222  0.0576 -0.0583  0.0309
32048W        W48895   5.553  17.029   2.815 -0.0162 -0.0367 -0.1791
32049W        W48896  15.967   6.751   3.503  0.0108 -0.0609 -0.4351
32050W        W48897  12.423  18.807  12.922  0.0249  0.1768  0.3308
32051W        W48898  17.564   7.683   4.455 -0.0554  0.1996 -0.0005
32052W        W48899   9.263   8.096   0.960  0.1010 -0.0547  0.1938
32053W        W48900  17.258   6.802  13.852 -0.2534  0.0508  0.0894
32054W        W48901  15.748  18.639   2.849 -0.1347 -0.0402  0.1289
32055W        W48902  10.753   7.081   0.946  0.1041 -0.0076  0.1319
32056W        W48903   4.876  17.101   1.489 -0.0578 -0.1737  0.0721
32057W        W48904   4.437   3.334   5.306  0.0468 -0.1981 -0.1336
32058W        W48905  16.482   7.385  14.668  0.1433 -0.0240 -0.0671
32059W        W48906   0.141   4.937   0.690 -0.2700  0.2427 -0.0569
32060W        W48907  12.906   3.203   5.824  0.2390  0.0915  0.1907
32061W        W48908   5.048   5.728  13.710  0.0718 -0.1554  0.0190
32062W        W48909   4.946   8.402  12.372  0.1235 -0.1681 -0.0139
32063W        W48910   1.285   3.295   1.348  0.2928  0.0035  0.1194
32064W        W48911   8.567  14.290  15.474 -0.1751  0.3720 -0.1047
32065W        W48912  13.308   4.990   1.874 -0.0274  0.0856  0.2810
32066W        W48913  16.320   6.042  13.468  0.2016  0.3459 -0.2120
32067W        W48914  16.520  16.601   3.911  0.1137  0.2277 -0.1519
32068W        W48915   8.622   3.601  12.563  0.3062 -0.2660  0.2791
32069W        W48916   4.678  17.389  13.447 -0.1385  0.0224 -0.0947
32070W        W48917  12.384   7.763  14.913  0.1660  0.3106 -0.0455
32071W        W48918  14.068   4.110   1.281 -0.0393  0.2066  0.4209
32072W        W48919   8.478   0.539   1.682 -0.1751  0.0743  0.1946
32073W        W48920  12.537   6.990   4.062 -0.0158 -0.0702 -0.0542
32074W        W48921  13.017   8.124   0.632  0.0744 -0.2344  0.1811
32075W        W48922  11.103  17.099  15.157  0.1370 -0.1028 -0.2855
32076W        W48923   6.791   7.354   5.119 -0.1458 -0.0224  0.0035
32077W        W48924   3.454  18.468   4.539  0.0035 -0.0638 -0.1713
32078W        W48925  12.476   0.618   2.111 -0.2579  0.0264 -0.0215
32079W        W48926   4.317  11.149  14.791  0.1454  0.0836 -0.1245
32080W        W48927   8.567   7.284  15.177 -0.0035 -0.0158  0.2501
32081W        W48928   5.716  15.060   0.487  0.0542  0.0299 -0.1084
32082W        W48929   5.022  17.840  14.971 -0.0780  0.0088 -0.2118
32083W        W48930   5.120  10.185   2.763 -0.1786 -0.2319  0.2701
32084W        W48931  15.394   4.165   2.928  0.0054  0.2883 -0.1153
32085W        W48932  14.566  18.546  15.004  0.6580 -0.0761  0.0021
32086W        W48933   9.897  13.382  14.652 -0.0202  0.1163  0.0681
32087W        W48934  14.640   1.356  15.008 -0.2608 -0.1366 -0.0392
32088W        W48935   6.853  13.574  13.037 -0.0159 -0.0606 -0.0154
32089W        W48936  13.656   4.662  13.613  0.2533  0.1832  0.1230
32090W        W48937   9.330   3.317   4.595  0.1511  0.2869  0.0404
32091W        W48938   4.900   3.145  15.640 -0.0495  0.0991  0.0630
32092W        W48939  18.865  16.946  12.797  0.1413  0.0929  0.0829
32093W        W48940  17.865   9.175   3.042 -0.1950 -0.0158 -0.0167
32094W        W48941  18.332   7.009   4.252 -0.3921 -0.1352  0.4186
32095W        W48942   3.720   7.193   4.899  0.2250 -0.2405  0.0661
32096W        W48943  10.466   5.785   0.719  0.0992 -0.0568  0.4057
32097W        W48944  13.861   0.664  15.068  0.0029 -0.2534 -0.0440
32098W        W48945   7.333  11.847   1.173  0.1274  0.1075  0.0290
32099W        W48946   7.492  11.220  12.628  0.3125 -0.1350 -0.2369
32100W        W48947   1.728   3.451  12.976 -0.1568 -0.2014 -0.1666
32101W        W48948   3.599  18.598   3.123  0.0349  0.2621  0.0152
32102W        W48949   9.050   0.150  12.041  0.0219 -0.0975  0.0778
32103W        W48950  14.985  12.703   2.204  0.1897  0.4086 -0.1253
32104W        W48951   5.903  11.221   2.834 -0.2720 -0.0890  0.0300
32105W        W48952  15.401  17.007  11.755 -0.1218  0.2691 -0.0019
32106W        W48953   1.650   5.025   4.796  0.0957 -0.2036 -0.2770
32107W        W48954  18.121   4.111  12.314 -0.0421  0.1027 -0.1031
32108W        W48955   1.501   7.392   5.426  0.2214  0.1148  0.1961
32109W        W48956   7.637  18.336   1.417 -0.2359  0.1877  0.1312
32110W        W48957  18.252  17.444  11.623  0.1716  0.0989  0.2125
32111W        W48958   1.979   3.564   1.416 -0.1077  0.4911  0.1256
32112W        W48959  10.183  16.536  15.218 -0.0070  0.0745  0.3822
32113W        W48960  17.096  13.002  11.684 -0.0811  0.0951  0.1761
32114W        W48961  18.799  13.139  14.859  0.0381 -0.3404  0.2312
32115W        W48962  11.194   9.007  14.738 -0.2077  0.0718  0.0241
32116W        W48963  12.764  12.299  15.060 -0.3519  0.1222  0.0871
32117W        W48964   9.659   9.499  15.175 -0.1404 -0.1737 -0.2022
32118W        W48965  11.461  11.319   3.815  0.0025 -0.0991  0.0900
32119W        W48966   6.493   0.998  14.697  0.3474 -0.2206  0.1412
32120W        W48967   0.170   8.504  14.035  0.1204  0.1310 -0.0703
32121W        W48968   7.012  12.742   3.739 -0.1043  0.0602  0.1318
32122W        W48969   5.292   4.646   4.888 -0.0965 -0.4149  0.1895
32123W        W48970   8.705  17.160   5.131 -0.0022 -0.1777 -0.0724
32124W        W48971  14.503  12.070   0.943 -0.1806  0.0129  0.3561
32125W        W48972   6.589   3.111  13.850 -0.0079 -0.0870  0.1310
32126W        W48973   7.703  15.859   0.941 -0.2700  0.2651  0.4202
32127W        W48974  12.463   3.638  15.127  0.0586 -0.0514  0.1663
32128W        W48975   0.739   6.610   3.232 -0.1137 -0.2350 -0.0470
32129W        W48976   8.003   2.347  13.215  0.0211 -0.1567 -0.1508
32130W        W48977   8.061  15.429   3.198  0.1555  0.1052  0.1904
32131W        W48978  14.787  10.721   4.565  0.1684 -0.0126  0.2796
32132W        W48979   3.363  12.817   5.416  0.0130  0.0884 -0.1882
32133W        W48980   1.213   8.777  11.581  0.1818 -0.0729 -0.3396
32134W        W48981   1.355   1.898   5.963  0.1492  0.2298  0.1247
32135W        W48982  15.359   8.113   4.755 -0.0510 -0.1600  0.4083
32136W        W48983   4.421   9.597  15.317  0.0825  0.1498 -0.1251
32137W        W48984   4.648  16.304   4.024  0.0635 -0.1422  0.2068
32138W        W48985  17.617   2.074   4.953  0.4198  0.1606  0.0433
32139W        W48986   9.346  17.015  14.379 -0.1959 -0.2241  0.0391
32140W        W48987  13.596  11.596  11.309 -0.4098 -0.0386 -0.3021
32141W        W48988  10.347  18.748  14.248  0.2574 -0.4545  0.1798
32142W        W48989   6.432   6.108  13.869 -0.2468 -0.0015  0.0339
32143W        W48990  12.893   1.949   0.604  0.1117  0.0761 -0.0845
32144W        W48991  12.437  15.797  13.623 -0.1295  0.0485  0.2314
32145W        W48992   6.595   1.761  11.551 -0.1287  0.0387  0.2993
32146W        W48993  10.968  18.563   2.298  0.3526 -0.2757  0.0046
32147W        W48994  16.517  15.220   0.387 -0.3269 -0.1609  0.1941
32148W        W48995  16.581   6.543   1.889 -0.0609 -0.0687  0.0626
32149W        W48996   5.036   1.898   0.046  0.2996 -0.0344 -0.2904
32150W        W48997  16.591   6.756   0.101  0.1175 -0.2368 -0.1728
32151W        W48998   9.760   2.432   0.940 -0.0552 -0.1336 -0.0624
32152W        W48999  12.727   7.617   2.340  0.1018 -0.0078 -0.0134
32153W        W49000  14.509  10.504  12.055 -0.2372  0.3140  0.0065
32154W        W49001   7.812   1.065   4.096  0.0357  0.1934 -0.4807
32155W        W49002  13.163   6.660   0.813 -0.1504  0.1436 -0.0142
32156W        W49003   6.266  14.828  13.941  0.0179 -0.1724  0.0027
32157W        W49004   7.542  14.580   0.125  0.1304 -0.2751 -0.2273
32158W        W49005  15.772  13.227   1.102 -0.1053  0.1079  0.1848
32159W        W49006  18.322  14.713   4.781 -0.2768  0.1574  0.1739
32160W        W49007  11.391  10.566   2.378 -0.2908 -0.0790  0.2053
32161W        W49008  11.109   4.875  14.986  0.2353  0.2612 -0.1341
32162W        W49009   4.854   9.715  13.649  0.2406  0.0805  0.0419
32163W        W49010  15.603   5.038  13.801  0.0042 -0.1113 -0.0575
32164W        W49011   1.814  15.959  13.102  0.2358  0.3209 -0.4823
32165W        W49012  18.244   8.143   2.575  0.2570  0.0383  0.0257
32166W        W49013  11.236   2.146  15.611  0.1612 -0.0856  0.1848
32167W        W49014  10.105   1.107   4.688 -0.1086  0.0862  0.0608
32168W        W49015  11.121  18.495  12.750  0.5714  0.3521  0.4088
32169W        W49016   9.689   5.505   2.066 -0.0006  0.1020  0.2598
32170W        W49017  18.242   9.220  13.960 -0.0230 -0.2316  0.1977
32171W        W49018  15.497  17.746   2.342  0.0805 -0.0895 -0.0064
32172W        W49019   3.624   0.315   2.977  0.0746  0.0035 -0.2947
32173W        W49020   0.767   6.917   1.022  0.0480 -0.1570  0.0827
32174W        W49021  12.813   9.939  12.119 -0.2139 -0.2940 -0.3330
32175W        W49022   6.193   1.325  12.884 -0.0181 -0.1516  0.1272
32176W        W49023   1.961  18.568   1.016 -0.0246 -0.0781 -0.1678
32177W        W49024  11.104   2.928  10.710  0.2185  0.0157 -0.0864
32178W        W49025   0.558   8.252  11.880 -0.1328  0.1360  0.0372
32179W        W49026  12.085   9.881   4.554  0.0424  0.1204  0.0336
32180W        W49027  16.137  10.170   4.759 -0.0473 -0.1167  0.1767
32181W        W49028   9.539  14.506  11.041 -0.4016  0.1075 -0.2241
32182W        W49029  11.209   4.736   6.126  0.0712 -0.1564  0.1238
32183W        W49030   2.726   0.807   4.780  0.3618 -0.0641 -0.1495
32184W        W49031  16.710  17.002  15.413 -0.2584 -0.1013  0.1548
32185W        W49032   5.696   5.239  12.770  0.2690  0.0181  0.1786
32186W        W49033   9.015  16.843  13.605  0.0190  0.0399 -0.0743
32187W        W49034   8.898   8.199  14.113 -0.3189  0.0631 -0.1079
32188ION     NA49035   6.989  13.461   9.812 -0.0578  0.1098 -0.3907
32189ION     NA49036   2.171  15.662   0.528  0.1389 -0.2596 -0.1000
32190ION     NA49037  15.545  17.159  10.098 -0.4867 -0.1803  0.0614
32191ION     NA49038  12.919   9.055  10.484 -0.2267 -0.1129  0.2310
32192ION     NA49039   9.465   0.630  11.699  0.3729  0.2548 -0.0773
32193ION     NA49040   5.177   2.297  10.454  0.0967 -0.1854  0.1402
32194ION     NA49041  17.459   2.657  10.849 -0.1003  0.0311  0.0832
32195ION     NA49042   2.794   9.203  13.589  0.1373 -0.2923 -0.3792
32196ION     NA49043  13.329   1.724  10.554  0.1225  0.0494 -0.4595
32197ION     NA49044   1.714  17.154   9.679 -0.0035 -0.0974 -0.1199
32198ION     NA49045   3.191  18.752  10.202  0.0164 -0.4037 -0.0411
32199ION     NA49046  17.931   6.803  10.697  0.0669  0.2252 -0.1942
32200ION     NA49047   6.930   9.979   1.698  0.0226 -0.0121  0.2677
32201ION     NA49048   5.277  10.399  10.023  0.0514  0.1356  0.0812
32202ION     NA49049  11.815  10.356   9.867  0.0492  0.0064  0.1225
32203ION     NA49050   4.764  17.090   0.559  0.0545  0.0291  0.2155
32204ION     NA49051   5.592  11.807  11.400  0.0881 -0.1227 -0.0322
32205ION     NA49052  10.830  15.076   0.426  0.0440 -0.3070  0.1140
32206ION     NA49053   8.529   9.319  10.081  0.1177 -0.2655 -0.1205
32207ION     NA49054   1.251   0.485  10.278  0.1162 -0.1825  0.0038
32208ION     NA49055  10.434  14.280   9.478  0.0315 -0.0991 -0.2615
32209ION     NA49056  12.310  17.656  14.531  0.0170  0.0534 -0.0193
32210ION     NA49057   7.863   6.319  10.160  0.3116 -0.0514  0.1492
32211ION     NA49058   6.613   7.961  12.483  0.2244  0.0117 -0.1516
32212ION     NA49059   0.848   1.223   3.101  0.1038  0.1337  0.3252
32213ION     NA49060   2.902   6.187  10.586 -0.1003 -0.2697  0.1906
32214ION     NA49061   1.151  14.611  10.183 -0.2111  0.1059 -0.0604
32215ION     NA49062   4.157  14.109   4.997 -0.1498  0.0513 -0.1246
32216ION     NA49063   8.494   4.137  13.812  0.0634  0.0730  0.2904
32217ION     NA49064   3.988  15.088  10.194 -0.1880 -0.0213  0.0457
32218ION     NA49065  16.218  17.138  10.154  0.0500 -0.0237  0.0021
32219ION     NA49066   7.103   7.501  10.081  0.2259  0.3545 -0.2279
32220ION     NA49067  12.076  18.865   4.934 -0.0470 -0.1393  0.0980
32221ION     NA49068   2.224   9.418  10.067 -0.2986 -0.3294  0.3819
32222ION     NA49069  16.525  10.344  10.838 -0.3590  0.1436  0.1367
32223ION     NA49070   2.247   4.035  12.884  0.0896 -0.1720 -0.0647
32224ION     NA49071  10.006  11.654   9.424 -0.0339 -0.1134 -0.2301
32225ION     NA49072   7.870  15.319   9.628 -0.0385  0.0492 -0.0157
32226ION     NA49073  12.919  15.183  10.231 -0.1723 -0.0518 -0.3605
32227ION     NA49074   7.268   5.877  10.404  0.3624  0.0607 -0.4123
32228ION     NA49075   6.367   6.725   3.695  0.0509  0.2167 -0.3040
32229ION     NA49076  15.967  10.751  10.576  0.1742  0.0432  0.1385
32230ION     NA49077   3.412  12.216  12.143  0.1678  0.0360  0.0439
32231ION     NA49078  15.671   4.312  10.653  0.6238 -0.0745  0.1570
32232ION     NA49079   2.824   7.814  10.487 -0.0959  0.0192  0.0689
32233ION     NA49080   3.172  12.839  10.085 -0.1529 -0.0449 -0.0673
32234ION     NA49081   1.011  11.717   2.236 -0.0737 -0.0181 -0.0983
32235ION     NA49082  10.274  12.751   1.723 -0.1809  0.1403  0.0270
32236ION     NA49083   7.609   4.256  10.198  0.0495  0.0688 -0.1339
32237ION     NA49084  18.451   1.536   3.061  0.3239  0.1423  0.1404
32238ION     NA49085  15.971   6.174   3.666 -0.2347  0.1501  0.1466
32239ION     NA49086   3.223  16.236   5.101  0.1722  0.2121  0.0196
32240ION     NA49087  17.764  14.021  10.288 -0.0533 -0.0484 -0.5091
32241ION     NA49088   7.970   0.473  11.096  0.1697 -0.0670  0.1643
32242ION     NA49089   5.987   1.779  10.094  0.2848 -0.1084  0.3579
32243ION     NA49090  14.072  15.425  10.275  0.0789  0.1218  0.3101
32244ION     NA49091  15.193   6.483  11.617  0.1933 -0.1006  0.0848
32245ION     NA49092   2.663   2.692  13.248 -0.0217 -0.2749  0.0422
32246ION     NA49093   1.297   4.561  10.573  0.2570  0.1300 -0.1700
32247ION     NA49094   3.272   7.499   5.756 -0.1461 -0.0115 -0.1468
32248ION     NA49095  16.711  11.161  10.986  0.2206  0.1784  0.2486
32249ION     NA49096   0.535  12.734   5.199  0.0064  0.0243 -0.2298
32250ION     NA49097   1.041  14.441  14.560 -0.2575  0.1450 -0.0689
32251ION     NA49098  15.023   1.347  10.241  0.3241  0.0809 -0.2796
32252ION     NA49099   1.491   9.853   5.833 -0.2056  0.1079  0.0205
32253ION     NA49100   5.060  14.033  15.482 -0.2413  0.2474 -0.2478
32254ION     NA49101   1.838  14.083   9.900 -0.2288  0.1325 -0.1084
32255ION     NA49102   5.805   7.296  14.726 -0.2390 -0.0881  0.1428
32256ION     NA49103  15.379  13.726  10.899 -0.0055 -0.0546  0.2524
32257ION     NA49104  13.217  14.766  13.852 -0.0862 -0.4278  0.0021
32258ION     NA49105   7.940  13.093   9.778 -0.0297  0.3346  0.0173
32259ION     NA49106  10.444  12.936   4.651 -0.0471  0.1006 -0.1538
32260ION     NA49107  15.929   7.426  15.189 -0.1293  0.1539 -0.1060
32261ION     NA49108   8.370  16.116  13.548  0.0175  0.2708 -0.2444
32262ION     NA49109   7.866   0.535  10.077 -0.1068  0.3847 -0.0684
32263ION     NA49110   2.652   9.299  10.243 -0.0214 -0.1105 -0.1865
32264ION     NA49111  11.416   5.480   5.547 -0.0092  0.3072  0.0451
32265ION     NA49112  10.199  15.820   9.853 -0.0914 -0.3648  0.0730
32266ION     NA49113   3.335  13.725  12.685 -0.1006 -0.0103  0.1885
32267ION     NA49114   7.966   7.139  10.102 -0.0062 -0.2013  0.1730
32268ION     NA49115   4.170  17.887   4.085 -0.0384 -0.2746 -0.1459
32269ION     NA49116   1.756   6.109   2.563  0.1124 -0.1724 -0.0212
32270ION     NA49117  14.364   7.918  10.325 -0.2786  0.0678  0.0375
32271ION     NA49118  15.438   9.373  11.235  0.0819 -0.3068  0.2759
32272ION     NA49119  10.240  17.950   9.876 -0.0505 -0.0867 -0.4732
32273ION     NA49120   6.665   3.796   2.506 -0.1958 -0.0336 -0.0606
32274ION     NA49121   0.055  16.119   9.947  0.1533 -0.1836 -0.0096
32275ION     NA49122  16.344   5.836  10.601  0.0627  0.1490 -0.2078
32276ION     NA49123   2.709  11.778   5.778 -0.0864 -0.1698 -0.3635
32277ION     NA49124   4.075  18.817   9.968  0.1453 -0.0389  0.0787
32278ION     NA49125  12.412  11.576  10.015  0.0219 -0.1343  0.0422
32279ION     NA49126   9.420   6.182  10.189  0.1699 -0.2125 -0.1593
32280ION     NA49127  12.516  16.612  11.828 -0.1483 -0.0594  0.1521
32281ION     NA49128  14.219  17.867  10.048 -0.1897 -0.1671  0.4601
32282ION     NA49129   1.763  12.989  10.056  0.0752 -0.0041  0.1012
32283ION     NA49130   2.386  13.516   9.789  0.0531 -0.1101  0.0158
32284ION     NA49131   1.588  15.886  13.997  0.0056 -0.0414 -0.0971
32285ION     NA49132  16.832  12.421  10.596  0.0646 -0.2714  0.2063
32286ION     NA49133  14.883  16.155  12.109  0.0387  0.2792  0.2083
32287ION     NA49134   6.687   2.573   9.873 -0.5514 -0.0119 -0.0533
32288ION     NA49135  15.764  17.130  11.428  0.0371  0.2833 -0.0280
32289ION     NA49136  15.703   9.358  10.415 -0.1699  0.0289 -0.0179
32290ION     NA49137   2.226  15.937   5.264  0.1244 -0.0001  0.0272
32291ION     NA49138  16.952   6.878  10.679 -0.0101  0.0740  0.0568
32292ION     NA49139  18.683   7.382  10.470  0.0539  0.0601 -0.3700
32293ION     NA49140   4.533   7.590  10.103  0.0397 -0.2709  0.0441
32294ION     NA49141  11.069   9.008  11.356  0.0180 -0.0397 -0.1727
32295ION     NA49142   6.648  12.675   9.916  0.1183  0.0308 -0.1263
32296ION     NA49143  17.429   7.549  10.761 -0.0631  0.0695 -0.1675
32297ION     NA49144   5.479   1.524  10.181  0.5317  0.2106 -0.2921
32298ION     NA49145   0.600  11.891   5.495 -0.0845 -0.0481 -0.1572
32299ION     NA49146  10.629  14.143  15.057  0.0261  0.1851  0.2646
32300ION     NA49147  13.742   0.807   5.536  0.0830  0.0080  0.1516
32301ION     NA49148  15.942  14.170   5.927 -0.1364  0.1686 -0.0416
32302ION     NA49149   9.508   1.482   9.945 -0.1152  0.0388 -0.4360
32303ION     NA49150   0.592   6.027  10.613 -0.2419 -0.1354  0.0626
32304ION     NA49151  16.193  16.446  11.350  0.0253 -0.0284 -0.0887
32305ION     NA49152  14.921  10.022  10.676 -0.0170 -0.2231 -0.0964
32306ION     NA49153  17.463  17.476  13.074  0.0943  0.0300 -0.0614
32307ION     NA49154  10.522   3.332  14.914  0.0969 -0.0557  0.1795
32308ION     NA49155   7.287  11.440   9.744 -0.2182 -0.1998  0.0803
32309ION     NA49156  14.598  16.977  10.206 -0.1133  0.0599 -0.0048
32310ION     NA49157  13.811   7.019  10.811 -0.2103 -0.3634  0.3246
32311ION     NA49158  17.642   7.031  15.335  0.1787  0.0549 -0.0330
32312ION     NA49159   4.776   3.749   2.881 -0.0708  0.3909 -0.1980
32313ION     NA49160   8.393   1.396   5.601  0.2090  0.0446 -0.3329
32314ION     NA49161  12.013   5.933   5.145 -0.2283 -0.1496  0.1253
32315ION     NA49162  10.267   0.180  12.076  0.0015  0.0185 -0.4335
32316ION     NA49163   6.989  16.629   9.814  0.0070 -0.2490  0.3938
32317ION     NA49164   9.562   5.856  10.908 -0.3423  0.2648 -0.3237
32318ION     NA49165  18.097   1.522  10.530  0.1220  0.1201  0.3546
32319ION     NA49166  13.368   7.372  10.055 -0.0887  0.0163 -0.3274
32320ION     NA49167  11.168   7.801  12.013 -0.0614 -0.1214  0.2530
32321ION     NA49168  13.119   9.993  10.010 -0.0937  0.0728 -0.3284
32322ION     NA49169  10.546  15.769   5.382 -0.2287 -0.2890 -0.2089
32323ION     NA49170  17.302  11.032   0.955 -0.1162  0.0094 -0.1152
32324ION     NA49171  18.804  13.915   4.740 -0.3663 -0.2485  0.1602
32325ION     NA49172   8.072   7.579   5.698  0.1021  0.1314  0.0999
32326ION     NA49173  15.210   7.484  10.299  0.1093  0.1908 -0.1763
32327ION     NA49174  14.624  10.897  10.333 -0.0738  0.1091  0.0332
32328ION     NA49175  10.477   9.599   3.114  0.0567  0.2146 -0.3711
32329ION     NA49176  13.378  12.993  10.173 -0.0344  0.0193  0.0400
32330ION     NA49177   3.541   9.628  10.360 -0.0615 -0.1502  0.2032
32331ION     NA49178   6.954   0.453   9.945  0.0993 -0.1742 -0.0413
32332ION     NA49179  12.190   2.518   9.947  0.0239  0.1444 -0.1728
32333ION     NA49180  18.414   3.951  10.518  0.1496 -0.2007  0.2430
32334ION     NA49181   4.024   0.442   3.288  0.0857 -0.0368  0.2121
32335ION     NA49182   3.676   7.760  10.212  0.2731  0.1368 -0.1353
32336ION     NA49183   8.563  10.072   9.344  0.0370  0.0649 -0.1055
32337ION     NA49184   7.661  14.043   9.561  0.0884 -0.1315 -0.2938
32338ION     NA49185   7.429   5.529   1.416 -0.0275 -0.1676 -0.4051
32339ION     NA49186   6.075  15.102  13.053  0.1033  0.2394  0.4473
32340ION     NA49187  11.670   9.932  13.461  0.0222  0.2142  0.3149
32341ION     NA49188  14.089  18.359   5.353 -0.0501  0.3113  0.0483
32342ION     NA49189  14.325  10.251  10.373 -0.0224 -0.0206  0.0148
32343ION     NA49190  10.860  17.276   1.044  0.0618 -0.0580  0.1891
32344ION     NA49191   0.020   3.202   5.479 -0.2494  0.0023 -0.1301
32345ION     NA49192   4.533  16.829  10.117 -0.0047  0.3151  0.0334
32346ION     NA49193  16.023   2.463   1.823 -0.0681 -0.1031  0.0955
32347ION     NA49194  13.987   3.465  10.405 -0.0506  0.0364  0.2546
32348ION     NA49195   2.900  15.579  12.361 -0.3727 -0.1392  0.0857
32349ION     NA49196   6.071   1.346   3.599 -0.1396  0.1136 -0.1088
32350ION     NA49197  13.387  18.119  10.235 -0.0438 -0.2026  0.0750
32351ION     NA49198   6.475   4.228  12.563 -0.0592 -0.2414  0.1201
32352ION     NA49199   9.538   1.541  14.554 -0.3433 -0.1339  0.0554
32353ION     NA49200   0.646   6.412   6.150  0.1934 -0.0426 -0.0949
32354ION     NA49201   9.093   7.831   5.199  0.1777  0.1241  0.0040
32355ION     NA49202  15.994  11.356  12.234 -0.1401  0.0048  0.3165
32356ION     NA49203   8.408  16.410   9.819 -0.1230  0.0035  0.1819
32357ION     NA49204   7.115  10.828  15.247 -0.2696  0.0464 -0.0412
32358ION     NA49205   4.594  16.169   9.799  0.1117  0.1342  0.2897
32359ION     NA49206   6.498  18.547   9.691 -0.1000  0.0635 -0.1354
32360ION     NA49207  10.713   4.940   5.370  0.2970 -0.1992  0.3165
32361ION     NA49208  12.872   5.917  12.342  0.0506  0.0782  0.0155
32362ION     NA49209   7.115   3.692  10.334 -0.0458  0.0225 -0.0690
32363ION     NA49210  13.339  11.423   1.310 -0.2208 -0.0327  0.0118
32364ION     NA49211   5.737   4.937  13.815 -0.0483 -0.0598 -0.1095
32365ION     NA49212   3.065   9.835  10.210  0.0801 -0.1412 -0.2005
32366ION     NA49213   0.352   7.740  13.621  0.0093 -0.1376 -0.0025
32367ION     NA49214   6.321  16.124   4.906 -0.0631  0.0856 -0.0336
32368ION     NA49215   0.979   7.049  15.414  0.0881 -0.0203 -0.3843
32369ION     NA49216  16.786   0.117   5.960  0.1433  0.2434  0.0526
32370ION     NA49217  13.975   1.328  12.126  0.1156 -0.2511 -0.0590
32371ION     NA49218  11.140  18.221  10.231  0.0383 -0.3361  0.1765
32372ION     NA49219  14.140  12.750   2.473  0.0925 -0.1340  0.3044
32373ION     NA49220  13.737   0.166  10.306  0.2564  0.2773  0.1182
32374ION     NA49221  18.609  14.546  10.236  0.1888  0.2705  0.0494
32375ION     NA49222  14.768   0.419   4.950  0.0908 -0.2882  0.2313
32376ION     NA49223  11.616   5.117  10.006 -0.0019 -0.0562  0.2420
32377ION     NA49224  11.094   8.471   9.986 -0.2329 -0.0755  0.4467
32378ION     NA49225   2.790  15.392  10.165 -0.0984 -0.0074 -0.3775
32379ION     NA49226   9.622   4.166  15.148  0.1172  0.0545 -0.0976
32380ION     NA49227   3.067   4.879  15.337  0.0516 -0.1512  0.2573
32381ION     NA49228   2.802   3.842  10.270  0.1532  0.0410 -0.1478
32382ION     NA49229  16.440  12.617  14.175 -0.2365  0.4860  0.1486
32383ION     NA49230  14.045  16.757   5.848  0.1045 -0.0339  0.2958
32384ION     NA49231   4.274   4.257   4.044  0.1556 -0.2711  0.0749
32385ION     NA49232  15.136   8.495  10.371  0.0987 -0.1122 -0.0311
32386ION     NA49233   5.323  17.034   9.834 -0.0784 -0.0840 -0.1532
32387ION     NA49234  15.371  11.457  10.596 -0.1897  0.1858 -0.1139
32388ION     NA49235   1.262   4.425  13.824 -0.1263  0.0508 -0.1269
32389ION     NA49236   8.314  18.373  10.094 -0.1917 -0.0978  0.0566
32390ION     NA49237  11.804   9.222   9.849  0.0080 -0.0557 -0.0028
32391ION     NA49238   7.437  18.630   9.770  0.3080 -0.2039  0.0614
32392ION     NA49239  12.392  17.246  10.191  0.0625 -0.0363 -0.3022
32393ION     NA49240   0.900  12.997   9.960 -0.0943 -0.3579  0.0209
32394ION     NA49241  12.314  11.033   2.067  0.1093 -0.2016 -0.0257
32395ION     NA49242   0.931   8.447   4.097 -0.0234 -0.0648  0.2026
32396ION     NA49243  16.856  15.290  10.507  0.1638  0.0007 -0.0257
32397ION     NA49244   5.490   9.793  14.748 -0.1204  0.0865 -0.2313
32398ION     NA49245  13.587   1.074   0.671 -0.0935 -0.0521 -0.1334
32399ION     NA49246  10.074  11.997   4.879 -0.2753 -0.1206 -0.4053
32400ION     NA49247   6.983   6.091   4.208  0.4149  0.2374  0.4745
32401ION     NA49248  13.801   2.318   1.101  0.0595 -0.1714 -0.1991
32402ION     NA49249  13.050   3.273  12.471 -0.2546  0.4489  0.2224
32403ION     NA49250   9.453   7.964   9.957  0.1520  0.5877  0.0125
32404ION     NA49251   4.837  10.134   0.698 -0.4766 -0.3995  0.1260
32405ION     NA49252   7.496   1.180   4.466 -0.1505 -0.1127 -0.1675
32406ION     NA49253   8.808  11.924   0.909 -0.1037 -0.2471 -0.0949
32407ION     NA49254   5.350   5.373   0.849 -0.4647 -0.2939 -0.1422
32408ION     NA49255  16.039  13.903  12.951 -0.1646 -0.0941  0.2377
32409ION     NA49256   9.262   4.778  10.085  0.3225 -0.0828  0.1635
32410ION     NA49257  16.935   7.684   5.758 -0.3218  0.2027  0.1703
32411ION     NA49258   3.475  17.678   9.880  0.1394  0.1709 -0.3338
32412ION     NA49259  14.804  11.454   5.688  0.0637 -0.0219  0.2267
32413ION     NA49260  14.704  14.666   1.473  0.0911  0.1338 -0.0614
32414ION     NA49261  18.783   7.997   0.893  0.1326  0.0258  0.1010
32415ION     NA49262  12.001  14.294   9.909 -0.2886  0.1137  0.0565
32416ION     NA49263   1.029   9.585   5.651  0.0954 -0.0140  0.2688
32417ION     NA49264   7.292  17.696   9.502  0.3085 -0.0116 -0.4286
32418ION     NA49265   0.575  14.091   1.069  0.0124  0.2069 -0.2175
32419ION     NA49266  18.261   5.688  10.409  0.0789  0.0418  0.0432
32420ION     NA49267  12.340   6.155   0.144 -0.0523 -0.0576 -0.1118
32421ION     NA49268  18.776  14.846   4.618  0.0628  0.1695 -0.1457
32422ION     NA49269   8.252   4.997  10.257 -0.1263 -0.0357 -0.1597
32423ION     NA49270  11.016   0.744  11.149  0.1622  0.1954 -0.2419
32424ION     NA49271  12.182   8.420  14.019  0.2309  0.1418  0.5551
32425ION     NA49272  13.871  14.086  10.466 -0.1155 -0.1244 -0.0165
32426ION     NA49273   0.071   9.944   0.094  0.0972  0.1357 -0.0716
32427ION     NA49274  18.400  13.298  14.079 -0.1182  0.1003  0.0814
32428ION     NA49275   4.311  18.568   2.014 -0.2225 -0.1455 -0.2405
32429ION     NA49276  13.926  12.194   3.360 -0.2084  0.3005  0.2336
32430ION     NA49277   2.538   4.796  10.304  0.0120  0.0008 -0.1709
32431ION     NA49278   1.907   5.315  10.938  0.0782 -0.1327  0.1059
32432ION     NA49279   6.323   9.925  10.114 -0.2877 -0.2676 -0.0100
32433ION     NA49280   5.975   7.413  11.314 -0.1118  0.1330 -0.0524
32434ION     NA49281   4.133  12.403  10.094  0.0771 -0.0227 -0.1803
32435ION     NA49282  16.120  12.086  10.410 -0.0940  0.1361 -0.1624
32436ION     NA49283   4.596  18.440  14.005  0.0990  0.1527  0.0667
32437ION     NA49284  13.820   2.613  10.250 -0.0222  0.3680 -0.2220
32438ION     NA49285   5.750   2.633  10.198 -0.1533 -0.0600 -0.1455
32439ION     NA49286  14.204  18.667  10.224 -0.4773 -0.1670  0.1839
32440ION     NA49287   6.091   0.429   9.852 -0.2440  0.1521  0.2446
32441ION     NA49288   8.563   4.168  10.149  0.0847 -0.0779 -0.1509
32442ION     NA49289   9.438   0.961   9.977 -0.2880 -0.0784 -0.4151
32443ION     NA49290   9.287  18.242   9.921  0.0639  0.1723 -0.0704
32444ION     NA49291   7.212  15.533   3.470  0.2873 -0.1743  0.3605
32445ION     NA49292   5.739  15.986   5.106 -0.0163 -0.2102  0.3904
32446ION     NA49293  13.241  16.754   6.149  0.2677  0.1323 -0.1698
32447ION     NA49294   8.574  17.094  11.279  0.0288 -0.2625  0.2886
32448ION     NA49295   7.146  15.802   5.101  0.2067  0.0189  0.0203
32449ION     NA49296  13.628  15.692  10.364 -0.0305  0.1182 -0.0122
32450ION     NA49297   0.049  16.876  11.507 -0.1514  0.0767  0.2960
32451ION     NA49298  14.130   5.938  10.570 -0.0737  0.0204  0.0268
32452ION     NA49299  15.122   7.687   5.594  0.3379  0.0697  0.3025
32453ION     NA49300  17.075  16.945  10.280  0.2126 -0.0507  0.2279
32454ION     NA49301   7.337  12.935  11.149 -0.2517  0.0535 -0.2500
32455ION     NA49302   6.760   6.727  10.100  0.1277  0.1422 -0.1696
32456ION     NA49303   8.722  18.516   5.265 -0.0922  0.2216  0.0251
32457ION     NA49304   5.326   8.363   3.107 -0.2200 -0.2151 -0.1379
32458ION     NA49305   7.868   8.354   5.418  0.0217  0.0451  0.0346
32459ION     NA49306   7.385  10.358  10.063  0.1518 -0.1106 -0.0655
32460ION     NA49307   1.470  12.869   5.463  0.0738 -0.0924 -0.0119
32461ION     NA49308  11.895   8.665  10.034 -0.1254 -0.1850 -0.3183
32462ION     NA49309   0.958   5.244  10.673 -0.1830 -0.2896  0.0492
32463ION     NA49310  12.553   1.755   5.598  0.1256 -0.0281  0.0321
32464ION     NA49311   6.295   8.037  10.067  0.0691 -0.3826  0.0428
32465ION     NA49312  16.970  11.294   2.019  0.3200  0.1862 -0.0979
32466ION     NA49313   3.281   2.249  10.004 -0.0948 -0.3340  0.0264
32467ION     NA49314   2.891   2.901  10.135  0.1290  0.1852  0.2147
32468ION     NA49315  15.496  11.831  11.382  0.1651  0.0345 -0.2552
32469ION     NA49316  12.557   5.385   9.870 -0.1032  0.0000  0.2282
32470ION     NA49317   0.190  18.860  10.221 -0.2139  0.2108 -0.2173
32471ION     NA49318   3.830  13.214   9.827 -0.0098 -0.0822 -0.2499
32472ION     NA49319   2.861  14.295   9.879 -0.0127 -0.2561  0.0065
32473ION     NA49320  11.448   2.270  10.170  0.2645  0.1462 -0.1400
32474ION     NA49321  17.043   7.733   4.687 -0.2467  0.1905  0.2820
32475ION     NA49322   9.138  14.122   9.988  0.0455  0.1269  0.2385
32476ION     NA49323   8.039  10.883   2.588  0.2106 -0.0239  0.0543
32477ION     NA49324  13.410   3.825   1.937  0.1604  0.1665 -0.1651
32478ION     NA49325  16.437   1.566   2.101  0.0096 -0.0917  0.1673
32479ION     NA49326  12.302   2.428   1.511  0.0171 -0.2587 -0.1299
32480ION     NA49327  18.554   3.099  10.968  0.0433  0.3170  0.0014
32481ION     NA49328   0.741   3.904  10.345 -0.1914  0.2213  0.2223
32482ION     NA49329  16.573   3.981  10.904  0.2077 -0.0240 -0.2337
32483ION     NA49330  10.947  12.195  10.080  0.0318 -0.0222 -0.3088
32484ION     NA49331  16.752   3.904   1.468 -0.0099 -0.3047 -0.1138
32485ION     NA49332   8.635  15.730   5.952  0.1511 -0.0067  0.3910
32486ION     NA49333   0.091  11.244   5.724  0.2015 -0.1660 -0.2857
32487ION     NA49334   1.784  11.331  10.297  0.1163 -0.1020  0.1062
32488ION     NA49335  10.818   1.543  10.821 -0.1073  0.0854 -0.0407
32489ION     NA49336  12.989  10.846  10.126  0.3437  0.0434  0.2256
32490ION     NA49337   1.244  16.289   9.731  0.2535  0.1610 -0.0817
32491ION     NA49338   1.216  11.588   5.044  0.1356  0.1386  0.2805
32492ION     NA49339  10.451  18.783  10.116 -0.3428 -0.0071 -0.0998
32493ION     NA49340  14.853  18.427   5.968 -0.1614  0.1688  0.0162
32494ION     NA49341   8.066   5.112  10.975 -0.2100  0.0994 -0.2584
32495ION     NA49342  18.512  13.621  10.173 -0.2121  0.0974  0.0192
32496ION     NA49343   5.817  10.664  10.176 -0.3998  0.1548 -0.2214
32497ION     NA49344   0.913  18.562   9.951 -0.2575 -0.4362 -0.0571
32498ION     NA49345  11.986   0.587  10.256 -0.0191  0.0600  0.3040
32499ION     NA49346   4.577  16.201  13.151 -0.0285  0.0525  0.1635
32500ION     NA49347  17.521   9.438   5.028 -0.0014 -0.1978 -0.1982
32501ION     NA49348  10.518  16.284  14.901  0.0481  0.3293  0.0874
32502ION     NA49349   9.701  17.426   4.965  0.0353  0.2124 -0.0017
32503ION     NA49350   4.197   5.425  10.334 -0.1682  0.0805  0.1509
32504ION     NA49351   3.195  10.658  10.159 -0.1877  0.1931 -0.0132
32505ION     NA49352  12.592   1.477  10.093  0.3708  0.1447 -0.1572
32506ION     NA49353  10.894  11.861   9.609 -0.0445 -0.0800  0.0884
32507ION     NA49354   3.225   5.018   5.961  0.1801  0.2512 -0.0407
32508ION     NA49355   8.359   1.810  10.324 -0.1001  0.0003  0.0971
32509ION     NA49356  11.225   4.077   9.872  0.2580  0.2578 -0.0927
32510ION     NA49357   3.772   5.063   5.142 -0.0880  0.0426 -0.0764
32511ION     NA49358   0.399  15.424   5.264  0.1304 -0.0627  0.1848
32512ION     NA49359  15.309  16.282  10.363  0.3153  0.3733  0.0124
32513ION     NA49360   1.839   7.305  10.552 -0.1389 -0.2736 -0.0828
32514ION     NA49361   1.883   2.106  10.159 -0.0855  0.1788  0.1971
32515ION     NA49362  13.383  16.817   3.742  0.0254 -0.2565 -0.1032
32516ION     NA49363  12.300   9.163   4.199 -0.0819  0.1296  0.1871
32517ION     NA49364  14.833   4.021  10.391 -0.0813  0.2159  0.0805
32518ION     NA49365  13.225  15.163   0.426 -0.0255 -0.1042 -0.2337
32519ION     NA49366   0.063  10.631  13.864  0.0550  0.1521  0.2912
32520ION     NA49367  18.023  16.997  10.401 -0.1792  0.1921 -0.1473
32521ION     NA49368   8.013   3.325  10.272  0.0276 -0.1504  0.0974
32522ION     NA49369   6.314   2.439  14.907 -0.2424 -0.0043  0.2192
32523ION     NA49370  18.831  15.587   2.118 -0.2934 -0.1827  0.3246
32524ION     NA49371   7.225   4.465  14.035 -0.2619 -0.1673 -0.0789
32525ION     NA49372  11.758   7.281   5.314 -0.1062 -0.0792  0.2399
32526ION     NA49373  15.144   3.872   5.989  0.0149 -0.3410  0.2608
32527ION     NA49374   8.993   0.139  10.246  0.2673 -0.1503 -0.1335
32528ION     NA49375   7.123   9.309   9.894  0.2306 -0.1321 -0.1333
32529ION     NA49376  14.547  16.014  10.225  0.0004  0.0850  0.1929
32530ION     NA49377  12.728   2.312   3.795 -0.0943  0.2532  0.3707
32531ION     NA49378   7.224  17.106   2.044  0.0941 -0.0874 -0.0016
32532ION     NA49379   3.372   3.575   2.554 -0.4172  0.2516  0.0253
32533ION     NA49380  16.595  10.077  13.775 -0.1506 -0.2013  0.2177
32534ION     NA49381   4.342   9.177   1.237  0.0678 -0.0247  0.1082
32535ION     NA49382   6.426  13.729   5.157  0.1821  0.1253  0.1123
32536ION     NA49383  17.533   0.674  10.450  0.3750 -0.3429  0.0767
32537ION     NA49384   6.403   3.435  10.094  0.2072  0.2102  0.4993
32538ION     NA49385  18.037   7.242  14.586 -0.0602 -0.2114  0.0164
32539ION     NA49386  12.955   2.447  10.096  0.0467 -0.1734 -0.0031
32540ION     NA49387   3.384  12.372   9.881  0.1213  0.1058  0.0689
32541ION     NA49388   1.281   2.404   5.578  0.0095  0.2216 -0.1670
32542ION     NA49389  16.608  13.647   3.025 -0.0780 -0.0748 -0.2360
32543ION     NA49390  12.699   9.788  10.090  0.2189  0.2676 -0.0615
32544ION     NA49391   9.711   3.633   0.792  0.0325 -0.1342  0.1724
32545ION     NA49392   0.594   9.389   0.935  0.0579  0.0103 -0.1325
32546ION     NA49393   6.087   1.006   9.850 -0.2388  0.2360  0.0957
32547ION     NA49394  16.232  13.871  10.752 -0.4269 -0.3033 -0.0423
32548ION     NA49395  18.309  12.343  10.305 -0.2105 -0.0697 -0.3171
32549ION     NA49396   2.758  17.329  15.348  0.2508 -0.1705 -0.0628
32550ION     NA49397   7.830  13.191   5.373 -0.3928 -0.3509 -0.0694
32551ION     NA49398   8.317  10.764  11.475  0.1018  0.4209 -0.1703
32552ION     NA49399  15.219   4.887  11.115 -0.1914 -0.2752  0.3955
32553ION     NA49400   4.566   4.321   1.111 -0.2271 -0.0702  0.2423
32554ION     NA49401   2.101  10.340  10.213 -0.0033  0.0980  0.3425
32555ION     NA49402   7.238  17.474   0.426  0.0323 -0.1854 -0.0168
32556ION     NA49403  17.239  10.587   5.054 -0.0354 -0.2024 -0.0318
32557ION     NA49404   8.608  11.223  10.796 -0.0578 -0.1299  0.1373
32558ION     NA49405   6.464   3.588  10.843  0.1164  0.0002  0.3395
32559ION     NA49406  12.397  13.560   5.738  0.0302  0.1620  0.0037
32560ION     NA49407   2.006  15.742   9.976 -0.0262  0.1881  0.0913
32561ION     NA49408  18.492   9.798  10.342  0.2836  0.1219  0.0853
32562ION     NA49409   5.666   3.559  10.398 -0.2040  0.1626  0.0255
32563ION     NA49410  13.935   9.873   5.613 -0.1142 -0.1237  0.4143
32564ION     NA49411  18.193  17.780  10.028 -0.2858  0.0643 -0.2519
32565ION     NA49412  18.213   2.424  10.575 -0.3925  0.0329  0.2721
32566ION     NA49413   8.910   7.067   9.948 -0.0252  0.0627 -0.2174
32567ION     NA49414   5.467   1.387   5.199  0.1269  0.1059  0.1720
32568ION     NA49415   1.838  18.687   9.870  0.0112 -0.0563 -0.2804
32569ION     NA49416   7.935  13.598  14.897  0.1325  0.0963 -0.1773
32570ION     NA49417   9.525  10.772   9.407 -0.0244 -0.1554  0.0774
32571ION     NA49418   4.696   7.594   5.779 -0.1812  0.0883 -0.2583
32572ION     NA49419  15.556  11.814   3.700 -0.4171  0.2315  0.0881
32573ION     NA49420   5.666  15.738   0.294  0.2453  0.1632  0.2118
32574ION     NA49421  18.318   4.827  10.439 -0.0107 -0.0501 -0.3399
32575ION     NA49422  10.322   0.799   9.847 -0.0890 -0.2631  0.2525
32576ION     NA49423  10.350  17.710   4.935 -0.0103 -0.1108 -0.1418
32577ION     NA49424   3.701   4.036   1.502  0.0703  0.0527  0.2184
32578ION     NA49425  14.533  12.594  10.578 -0.0142  0.2306 -0.1928
32579ION     NA49426   6.534  13.604  13.956 -0.0010 -0.0416 -0.2679
32580ION     NA49427  12.887  13.867  10.149  0.0505  0.1903 -0.4309
32581ION     NA49428  10.681  10.386   9.849  0.1548 -0.0455  0.1876
32582ION     NA49429  11.009   6.234   5.012 -0.0167 -0.2947 -0.1716
32583ION     NA49430   1.772  18.093   1.811 -0.1065 -0.0808  0.0467
32584ION     NA49431  12.839   4.893  10.156 -0.1916  0.0066 -0.1548
32585ION     NA49432  12.988   8.233  10.434  0.0812  0.1196  0.1858
32586ION     NA49433  16.590  18.143  10.186  0.0002  0.0853 -0.4737
32587ION     NA49434   0.060  18.035  10.111  0.0154  0.0025 -0.1830
32588ION     NA49435   4.756   1.726   5.601 -0.0727  0.4349  0.1104
32589ION     NA49436   9.055   2.383  10.189  0.3558 -0.2604  0.1662
32590ION     NA49437  11.159   0.781   0.782 -0.0666  0.3378  0.1967
32591ION     NA49438  11.130   7.496  10.045  0.0669 -0.0485  0.1411
32592ION     NA49439  16.998   4.113   5.722  0.0179 -0.2122 -0.5691
32593ION     NA49440  16.637   7.781  10.481  0.0294 -0.4570  0.0035
32594ION     NA49441  17.619   3.633  11.202  0.2151  0.3335  0.1119
32595ION     NA49442   2.778   0.914  10.426 -0.1548 -0.1324 -0.2006
32596ION     NA49443  16.974  12.569  15.778  0.1157 -0.2256  0.1220
32597ION     NA49444   0.888   7.295  10.459 -0.4863 -0.0220 -0.1039
32598ION     NA49445   5.466   9.448   1.076  0.1694 -0.1422  0.1379
32599ION     NA49446   5.146   9.477  11.807  0.2461 -0.1278  0.5295
32600ION     NA49447   3.174  14.757   0.315 -0.2264  0.2513 -0.0211
32601ION     NA49448  14.015   8.468   5.647 -0.0893  0.1320  0.2002
32602ION     NA49449  15.037   4.985  10.313  0.0099 -0.0222  0.1040
32603ION     NA49450  13.332   7.397   5.798 -0.0737 -0.3381 -0.0403
32604ION     NA49451   6.508  16.499   9.634  0.0055  0.2641  0.2969
32605ION     NA49452  18.549  11.408  10.283 -0.0241  0.0143  0.1060
32606ION     NA49453   5.434   8.729   0.141 -0.0147 -0.0698 -0.0817
32607ION     NA49454  10.592  13.345   9.592  0.0339 -0.2528  0.2294
32608ION     NA49455  16.069   1.955  10.468  0.1477  0.0580  0.1552
32609ION     NA49456   0.430   4.626  14.204  0.2961 -0.1030  0.3014
32610ION     NA49457  10.286   7.302   3.649  0.1909 -0.0465  0.0467
32611ION     NA49458   0.096   2.988  10.342 -0.0757  0.1572 -0.2901
32612ION     NA49459  10.514   4.938   0.056 -0.0995 -0.0590  0.1616
32613ION     NA49460   8.139   2.852   1.414 -0.2763  0.0402 -0.0773
32614ION     NA49461  17.277   5.668  10.345  0.0678 -0.0563  0.0770
32615ION     NA49462   0.433  11.444   4.073 -0.0446 -0.2739  0.0696
32616ION     NA49463  10.682   1.757   9.677 -0.0185  0.0769  0.3690
32617ION     NA49464  16.303  11.946   6.032  0.0942  0.2272  0.0356
32618ION     NA49465   6.454   1.524   5.464  0.2792 -0.2150  0.1760
32619ION     NA49466  17.970   8.996  10.416  0.0255 -0.4043  0.0147
32620ION     NA49467   8.552   3.593   5.083  0.1353  0.2211  0.1720
32621ION     NA49468  18.098  18.660  10.223  0.1008  0.2396 -0.2650
32622ION     NA49469   0.614  10.134  10.192  0.1658 -0.4524 -0.0391
32623ION     NA49470  16.756  10.033   5.359 -0.1563 -0.2737  0.2279
32624ION     NA49471   6.016  14.810   9.759 -0.0225  0.0973 -0.0290
32625ION     NA49472   1.911   2.329   2.021  0.1569  0.0711  0.0546
32626ION     NA49473   4.853   3.114  10.504 -0.2566 -0.3394 -0.1413
32627ION     NA49474  14.238   0.792  10.448 -0.2691  0.3769 -0.1113
32628ION     NA49475  14.526   6.774  10.333  0.0580 -0.3591  0.1174
32629ION     NA49476   6.985   0.891  14.447 -0.2314  0.0055 -0.1389
32630ION     NA49477   3.029  16.997  10.021  0.1377 -0.0459 -0.2196
32631ION     NA49478  16.569   5.093   2.035 -0.0461  0.0085  0.2131
32632ION     NA49479   9.387   1.911  10.166 -0.0094  0.0182  0.0859
32633ION     NA49480   3.321  13.906   9.784 -0.1468 -0.0828 -0.1588
32634ION     NA49481   9.392  16.274   9.592  0.0384 -0.2739 -0.1554
32635ION     NA49482   6.960   3.383   5.120  0.1134 -0.2033  0.0480
32636ION     NA49483  14.455   4.217  13.609  0.2295 -0.1540  0.2759
32637ION     NA49484   5.445  14.620  11.444  0.1128 -0.2089 -0.0521
32638ION     NA49485   3.974   2.812  10.276  0.0055  0.1862 -0.0379
32639ION     NA49486  11.424   3.705  10.155 -0.2797  0.0878  0.0662
32640ION     NA49487  13.128   3.236  11.011 -0.1273 -0.0492 -0.2148
32641ION     NA49488   2.434  18.501   9.880 -0.1200 -0.1772 -0.1862
32642ION     NA49489  10.140   8.598   9.911  0.0478  0.1364  0.1407
32643ION     NA49490   8.220  11.401   9.552  0.0634 -0.2178  0.0687
32644ION     NA49491   3.667   3.876  15.354  0.0126  0.1150 -0.1685
32645ION     NA49492   5.872  18.506  15.476 -0.1431 -0.0109 -0.0755
32646ION     NA49493  16.450   9.043  10.366  0.0895  0.1977 -0.1201
32647ION     NA49494   1.228  17.631   4.962 -0.2843 -0.1066 -0.3098
32648ION     NA49495  13.054   3.270  10.395 -0.2832 -0.0961  0.2032
32649ION     NA49496   0.183   2.103  10.342 -0.1446  0.2418 -0.1057
32650ION     NA49497  12.135  16.408  10.105  0.1548 -0.2372 -0.0804
32651ION     NA49498  15.995   5.898   4.880 -0.0405 -0.1710  0.0994
32652ION     NA49499  13.204   3.375   5.322 -0.2218 -0.0362 -0.0551
32653ION     NA49500  12.113  12.861   4.874 -0.1636 -0.1123  0.0426
32654ION     NA49501  15.376   6.362  10.590 -0.0755  0.0731 -0.1903
32655ION     NA49502   5.803   6.966  13.471  0.0393  0.1782  0.0243
32656ION     NA49503   0.956   1.773  10.162  0.0206  0.2450 -0.1430
32657ION     NA49504   8.231  10.314   9.748 -0.1981  0.1545  0.0340
32658ION     NA49505   8.438  13.593   9.639 -0.2069 -0.1527  0.0997
32659ION     NA49506  14.657  12.326   5.312  0.0835  0.2126 -0.1642
32660ION     NA49507  10.542   2.479  10.043 -0.1470  0.0871  0.0590
32661ION     NA49508   4.274   0.032   3.640 -0.2189 -0.0836 -0.1019
32662ION     NA49509   9.889   9.900   9.774  0.1015 -0.0935  0.4469
32663ION     NA49510   8.588  12.778   2.744 -0.1230 -0.1520 -0.3180
32664ION     NA49511   6.036   2.817  12.039  0.4327  0.1184 -0.0147
32665ION     NA49512   0.497  15.236  10.241  0.1106  0.3144 -0.2282
32666ION     NA49513  12.939  16.638   9.950 -0.1692 -0.1581 -0.0042
32667ION     NA49514  11.557  17.415  10.036  0.2272  0.1403 -0.0746
32668ION     NA49515   2.259  10.988  14.608  0.1535 -0.3095  0.1392
32669ION     NA49516   5.636   8.376  10.124  0.0838 -0.3569 -0.1445
32670ION     NA49517   5.645  14.074   9.725  0.3866  0.4203  0.0304
32671ION     NA49518   7.176  15.787   9.648  0.1018  0.1999  0.0192
32672ION     NA49519   3.040  18.026   3.625 -0.2253  0.1431  0.3097
32673ION     NA49520   5.855   6.828  10.171 -0.1238 -0.0471 -0.3370
32674ION     NA49521   1.123   2.439  10.025 -0.0908  0.0077  0.4389
32675ION     NA49522   6.452   1.754   9.765  0.3295 -0.2973  0.1372
32676ION     NA49523  17.236   4.885  11.978 -0.3002 -0.0598 -0.1273
32677ION     NA49524  11.115   9.145   9.625 -0.2483  0.2750  0.0895
32678ION     NA49525   6.829   4.856  10.300 -0.0640 -0.0808  0.1859
32679ION     NA49526   4.916   4.865   4.630  0.4380 -0.1381  0.1060
32680ION     NA49527   9.589   3.792  10.239  0.1727  0.0337 -0.0853
32681ION     NA49528   4.437   2.560   0.321  0.1581 -0.0962 -0.0524
32682ION     NA49529  14.689  11.797  10.622  0.0091  0.0557 -0.0772
32683ION     NA49530  15.403  16.323   2.757 -0.1555 -0.0794  0.2106
32684ION     NA49531  17.541   4.375  10.602  0.0720  0.2932 -0.0460
32685ION     NA49532  14.310   9.696   1.808  0.1075  0.0793  0.2486
32686ION     NA49533   2.524   1.531  10.276  0.2498  0.0015  0.0616
32687ION     NA49534  15.360   8.496  10.838 -0.2277 -0.0694  0.2581
32688ION     NA49535   9.361  14.009  12.465 -0.5172  0.0862  0.1905
32689ION     NA49536  12.465   4.580  15.498  0.1322 -0.2221  0.3230
32690ION     NA49537   1.876   4.127   5.856  0.1823  0.0379  0.2972
32691ION     NA49538  18.450   8.175  12.327  0.2838 -0.0095  0.2262
32692ION     NA49539   5.027   5.269  10.249  0.1728 -0.2091 -0.1220
32693ION     NA49540   8.100  16.257  11.284 -0.1318  0.0584  0.1652
32694ION     NA49541  17.737  17.303   0.676  0.0118  0.2230 -0.3705
32695ION     NA49542   1.678   2.659   5.751 -0.2285 -0.0926  0.1335
32696ION     NA49543  10.215  12.340   9.327 -0.1492 -0.1369 -0.1015
32697ION     NA49544   0.477  11.173  12.224 -0.2308  0.0876  0.1586
32698ION     NA49545  13.142   7.208   4.037  0.0611  0.4565 -0.1245
32699ION     NA49546   9.486   8.984   9.963 -0.0425  0.2232  0.0662
32700ION     NA49547   9.818  17.073   9.458  0.2726 -0.0224 -0.0972
32701ION     NA49548  12.823   0.022  10.117 -0.1181 -0.0405 -0.0209
32702ION     NA49549  14.105   4.498  10.373 -0.0617 -0.1451  0.0642
32703ION     NA49550   8.790  17.069   9.645  0.2136  0.3192  0.0290
32704ION     NA49551   2.154  16.697   9.726  0.0303  0.1863 -0.2440
32705ION     NA49552   0.161   5.284  10.517  0.0669 -0.3122  0.0640
32706ION     NA49553   0.824   5.742   5.501 -0.2648 -0.0374  0.0099
32707ION     NA49554  10.427   6.653   0.629 -0.3648 -0.1349 -0.1680
32708ION     NA49555  15.557   1.416  15.057 -0.0037  0.1079 -0.2395
32709ION     NA49556   2.395  12.130  10.159  0.2623 -0.1268 -0.5311
32710ION     NA49557   3.617   8.081  13.245  0.3287 -0.1015 -0.0468
32711ION     NA49558  18.267   9.485   1.361  0.0592  0.0709  0.1132
32712ION     NA49559  13.730   5.178  12.260 -0.1010  0.0407 -0.2682
32713ION     NA49560   6.887  15.306   9.626  0.1254 -0.0725 -0.1582
32714ION     NA49561   5.406   2.857  13.325 -0.0017  0.1004  0.1336
32715ION     NA49562   6.196  16.617   1.106  0.2021 -0.0846  0.1741
32716ION     NA49563  15.268  14.783  10.757 -0.3129 -0.0672  0.0497
32717ION     NA49564   3.039  11.518   9.973 -0.1647 -0.1067 -0.2097
32718ION     NA49565  10.193   9.722   1.815 -0.1089 -0.0327 -0.1232
32719ION     NA49566   5.540   5.455   5.807  0.1188  0.2709  0.0949
32720ION     NA49567  13.702  11.650  10.449 -0.3295 -0.1534  0.0756
32721ION     NA49568  14.855   5.262   2.472  0.0827 -0.0761 -0.4358
32722ION     NA49569   1.719   1.232  10.176  0.1079 -0.3293  0.2426
32723ION     NA49570   2.956  16.145   9.907 -0.1355  0.1097 -0.2958
32724ION     NA49571  10.925   6.097  10.201  0.0650  0.1457 -0.2546
32725ION     NA49572  13.179   6.090  10.074 -0.1507  0.1520 -0.0771
32726ION     NA49573   3.400   5.508  10.328 -0.0821  0.2453  0.4682
32727ION     NA49574   7.112  14.857   9.538 -0.1610 -0.0366  0.2016
32728ION     NA49575   7.787  14.925   2.543 -0.0373 -0.3396  0.3193
32729ION     NA49576   2.133   2.509  10.232  0.1935 -0.1625  0.2918
32730ION     NA49577   3.920   4.222  13.624 -0.0772  0.0285  0.1155
32731ION     NA49578   9.252   5.097   0.163 -0.0675 -0.3163 -0.1430
32732ION     NA49579  11.857   0.097  10.286  0.0263 -0.0521 -0.0720
32733ION     NA49580   3.371   2.128  11.974  0.1491 -0.1950  0.3902
32734ION     NA49581   8.528  17.024   2.374  0.1383 -0.3285 -0.1266
32735ION     NA49582   9.262   2.606   0.826  0.2473  0.1315 -0.0329
32736ION     NA49583   1.322   9.722  10.055 -0.2493 -0.0873 -0.0259
32737ION     NA49584   1.352  12.284  10.265 -0.0615 -0.2419  0.1284
32738ION     NA49585   3.554  11.124  11.716 -0.2765 -0.0194 -0.1873
32739ION     NA49586  12.510   6.379  10.201 -0.1027 -0.0350  0.1029
32740ION     NA49587   5.324   2.693  14.814 -0.1011  0.2053  0.0822
32741ION     NA49588  17.870  14.956  10.504  0.2091  0.2305  0.0689
32742ION     NA49589  18.753  17.124   5.742  0.0758  0.0642  0.2891
32743ION     NA49590   8.391  11.862   3.545 -0.0090  0.1064 -0.1958
32744ION     NA49591  17.610  13.570   5.718 -0.1375 -0.2762  0.2840
32745ION     NA49592   7.875   5.336  11.990  0.1708  0.0220  0.0910
32746ION     NA49593  11.159   8.301  14.036  0.3652 -0.4428  0.1798
32747ION     NA49594   0.406  11.190  10.162 -0.1968 -0.2634 -0.0036
32748ION     NA49595  11.382  17.760  15.667 -0.1525  0.2610  0.1554
32749ION     NA49596  15.758   8.188   6.100 -0.0519 -0.0963 -0.3467
32750ION     NA49597   1.187  14.284   4.902  0.4577  0.4938  0.0703
32751ION     NA49598   2.933  13.702   0.870  0.0880  0.1175  0.1986
32752ION     NA49599   5.649  11.421  12.590 -0.0119  0.2576  0.0077
32753ION     NA49600   9.900   5.395   9.915 -0.0217 -0.2810 -0.2189
32754ION     NA49601  16.082   7.010  10.618 -0.1111 -0.0858  0.0108
32755ION     NA49602   1.849   4.242  10.622  0.0401  0.0417  0.2460
32756ION     NA49603   9.714   0.199   5.336  0.1474 -0.1435  0.0708
32757ION     NA49604   7.501   5.481  10.157  0.0537  0.0399  0.0752
32758ION     NA49605  10.291   1.322   0.082 -0.1460 -0.0108 -0.2544
32759ION     NA49606  12.056   0.833   5.642  0.2288  0.3427  0.1100
32760ION     NA49607   7.083  16.629   5.330  0.0538 -0.1107 -0.0026
32761ION     NA49608  11.853   6.999  10.091 -0.3684  0.0275 -0.2918
32762ION     NA49609   3.321   6.938  10.752  0.0959  0.4037  0.1870
32763ION     NA49610   1.844   2.318  14.223 -0.3661 -0.2348  0.0375
32764ION     NA49611  15.266   0.383  10.130  0.1267 -0.0895  0.0735
32765ION     NA49612   2.813  17.907   5.539 -0.1854  0.0725  0.0511
32766ION     NA49613  12.597  14.499   4.018  0.0769 -0.2361 -0.3943
32767ION     NA49614  16.674   1.190  10.580 -0.3515  0.3198 -0.1950
32768ION     NA49615  10.852   0.074  14.424  0.1284 -0.1852 -0.2146
32769ION     NA49616   6.903  14.222  10.418  0.0293  0.1241 -0.1790
32770ION     NA49617  11.215   0.931   9.944 -0.3756  0.0355 -0.2390
32771ION     NA49618   3.628   4.423   5.712  0.1222 -0.1473  0.3397
32772ION     NA49619  10.937   0.005   4.210  0.0120  0.0848  0.0318
32773ION     NA49620  15.862   5.539  14.335 -0.0188  0.3115 -0.2106
32774ION     NA49621  18.337   0.566  10.305 -0.1060 -0.3404 -0.0820
32775ION     NA49622   7.333   1.305  10.114 -0.3464  0.2205  0.0298
32776ION     NA49623  12.372   3.930  10.237 -0.3394 -0.2456  0.3750
32777ION     NA49624  11.488  16.797   9.987  0.2039  0.2217  0.1768
32778ION     NA49625   0.817   6.885   3.674 -0.0936  0.1010  0.2410
32779ION     NA49626   4.373  11.146  10.123 -0.2395 -0.0803 -0.0098
32780ION     NA49627  14.660   2.419  10.574  0.1257  0.1093 -0.1560
32781ION     NA49628   1.243  11.340  10.118 -0.0798 -0.2501 -0.4344
32782ION     NA49629   9.610   7.115  10.032  0.3752  0.0423  0.0432
32783ION     NA49630   5.550  12.213  10.035  0.0337 -0.0653  0.1720
32784ION     NA49631   0.884   8.844  10.198 -0.3405  0.0564  0.0127
32785ION     NA49632   8.541   5.756  10.046  0.1382 -0.2106 -0.2453
32786ION     NA49633  16.563   4.665   0.216 -0.2252 -0.0356 -0.1144
32787ION     NA49634   0.472  16.797   9.991  0.2971 -0.1197  0.0961
32788ION     NA49635   5.326   7.572  10.148 -0.0195  0.3987  0.1157
32789ION     NA49636  12.353   9.827   3.636  0.0172 -0.0578  0.1640
32790ION     NA49637   1.271   7.943  10.307  0.0049 -0.1057  0.0917
32791ION     NA49638   4.658   0.976  10.002 -0.2209  0.2892  0.0307
32792ION     NA49639   4.736  11.820   9.923  0.0130 -0.1385  0.3196
32793ION     NA49640  15.340  12.615  10.641 -0.0427 -0.2203 -0.0042
32794ION     NA49641  10.348  17.049  10.009 -0.1405 -0.0272  0.3990
32795ION     NA49642  13.545   5.265  10.122 -0.1953  0.1642 -0.4034
32796ION     NA49643  13.599  14.495   1.556  0.0755  0.4292  0.1223
32797ION     NA49644  18.161   5.745   0.234 -0.3885 -0.0878  0.0280
32798ION     NA49645  17.567   5.235  10.462 -0.0908  0.1210 -0.0669
32799ION     NA49646   4.764  17.611   9.811 -0.3307 -0.2422 -0.6163
32800ION     NA49647   5.575  18.652   9.828  0.1239 -0.0455 -0.1038
32801ION     NA49648   7.157  12.416   9.877 -0.0516 -0.0300  0.2676
32802ION     NA49649   8.629   6.881   5.526  0.2570 -0.3697  0.1308
32803ION     NA49650   6.469  10.926  11.095 -0.0520  0.2371  0.0364
32804ION     NA49651  16.079  14.867   1.242 -0.1709 -0.4458 -0.2105
32805ION     NA49652  12.962   2.440   2.555  0.1305 -0.1070  0.1583
32806ION     NA49653   6.153   1.216   1.602 -0.3525  0.1296 -0.0656
32807ION     NA49654   4.065   1.405   5.208  0.1862  0.0572 -0.1569
32808ION     NA49655  15.136  15.434  10.364 -0.1603 -0.0293 -0.0501
32809ION     NA49656  13.503   0.046   5.528  0.0408  0.2451 -0.0016
32810ION     NA49657  18.743   6.428  10.687  0.0973  0.0021  0.1479
32811ION     NA49658   6.473  17.418   9.481  0.1370 -0.0450 -0.0985
32812ION     NA49659  15.884  14.959  10.583 -0.0727  0.0574 -0.2890
32813ION     NA49660   3.814   3.853  10.132 -0.2543 -0.0142  0.1542
32814ION     NA49661   0.295   9.496  10.547 -0.1061  0.0593  0.0543
32815ION     NA49662   6.143  17.159   4.452 -0.2968 -0.3297 -0.0970
32816ION     NA49663  11.962  10.722  14.969 -0.4477 -0.1055  0.1423
32817ION     NA49664  14.007   8.063  13.882 -0.0276  0.0060  0.1156
32818ION     NA49665   8.635  11.158   9.532 -0.0152 -0.1644  0.3113
32819ION     NA49666  17.724   7.732   6.080 -0.0224 -0.1611  0.0597
32820ION     NA49667   0.050  18.568   3.406 -0.0455 -0.2506 -0.0035
32821ION     NA49668   1.043  10.728   3.374 -0.2228  0.1402  0.1206
32822ION     NA49669  18.495   6.397   5.938 -0.0135  0.1043  0.2982
32823ION     NA49670  16.045  17.206   3.982  0.1248  0.3431  0.1421
32824ION     NA49671  14.793   9.536  10.663 -0.0392 -0.1865  0.1573
32825ION     NA49672  17.105  18.731   1.617 -0.0744  0.1599 -0.0973
32826ION     NA49673   1.989   6.427   5.668 -0.4003 -0.0250  0.2108
32827ION     NA49674  18.084   5.590   1.362  0.0844  0.0562  0.1493
32828ION     NA49675  12.696  15.668  10.073 -0.0655 -0.3146  0.2275
32829ION     NA49676  12.363   0.407   5.079 -0.0624 -0.1178  0.1011
32830ION     NA49677  17.644  17.994  10.797 -0.1510  0.1454 -0.0157
32831ION     NA49678   7.880   8.057   9.958 -0.2309  0.1372  0.0297
32832ION     NA49679  13.804  16.503  10.308  0.1983  0.0980  0.3891
32833ION     NA49680   0.454  14.667   1.346 -0.1402 -0.0600 -0.0354
32834ION     NA49681   4.576  10.224  10.056 -0.0433  0.3349  0.1697
32835ION     NA49682  13.353   8.176  10.084  0.1186  0.2538 -0.1053
32836ION     NA49683   4.531   4.468  10.127 -0.0315  0.0880 -0.1702
32837ION     NA49684   6.070  15.671   9.701  0.1207 -0.0308  0.1196
32838ION     NA49685   1.327   2.270   0.729  0.0544 -0.1805 -0.2304
32839ION     NA49686   3.683   7.672  11.800  0.0192 -0.0297 -0.4349
32840ION     NA49687  17.809  16.130   0.114 -0.0875  0.0804  0.0990
32841ION     NA49688  11.484  10.694  13.557  0.0649  0.1053 -0.0727
32842ION     NA49689  17.033  11.863  10.725  0.1672 -0.1228  0.4138
32843ION     NA49690   8.331   2.773  10.255  0.0867 -0.1239  0.3060
32844ION     NA49691   9.119  11.423   9.484 -0.2537  0.0126 -0.1427
32845ION     NA49692  12.244  12.282  10.086 -0.0997 -0.0967 -0.0915
32846ION     NA49693   7.793  16.233   1.589 -0.2132 -0.0463  0.0284
32847ION     NA49694  12.890  17.911  10.361  0.0418 -0.2948 -0.0837
32848ION     NA49695   0.455  12.003  10.294 -0.1063  0.3371  0.1751
32849ION     NA49696   1.542   6.399  10.680 -0.2880  0.2786  0.0776
32850ION     NA49697  14.245  10.461  12.501 -0.1268  0.0587 -0.0673
32851ION     NA49698  13.270  15.642  14.174  0.0955  0.0419 -0.0378
32852ION     NA49699  11.874   7.888  10.009 -0.0993  0.0600  0.2084
32853ION     NA49700   4.334   2.638  10.016 -0.0562 -0.1434  0.2480
32854ION     NA49701   9.528   4.768   1.594 -0.1850 -0.2019  0.0068
32855ION     NA49702  13.707  10.721   5.813 -0.0902  0.2448  0.0603
32856ION     NA49703  16.781   4.876  12.876 -0.0388  0.3228  0.1342
32857ION     NA49704  18.508  10.751  10.453  0.3054 -0.1653  0.0102
32858ION     NA49705   0.812  13.707  10.337  0.3511 -0.0350 -0.1816
32859ION     NA49706   0.425   8.084  10.244 -0.0797  0.0257  0.1240
32860ION     NA49707   7.873   8.383  12.286 -0.0597  0.4329 -0.0285
32861ION     NA49708  11.934  15.353  10.062  0.2099 -0.1753 -0.1809
32862ION     NA49709  16.997  16.640  14.117  0.0052 -0.1089 -0.2611
32863ION     NA49710   4.154   0.457  10.411  0.4875  0.0194  0.3660
32864ION     NA49711  17.122  15.234   0.682  0.1400 -0.0769  0.2803
32865ION     NA49712  11.409   3.017   9.932 -0.4205 -0.2883 -0.2289
32866ION     NA49713  13.417   4.004  10.069  0.3164  0.0898 -0.0556
32867ION     NA49714  16.524   1.458  14.188 -0.1702 -0.1719  0.1766
32868ION     NA49715   5.379   5.972  10.251  0.2572 -0.4353 -0.0624
32869ION     NA49716   2.509   6.687   1.239  0.0562 -0.2013 -0.2341
32870ION     NA49717  13.547  12.843  10.638 -0.1096 -0.1898 -0.1297
32871ION     NA49718  11.483   0.703  15.631  0.0173 -0.1977  0.0582
32872ION     NA49719  18.771   6.628  15.296 -0.0993  0.0642 -0.2473
32873ION     NA49720   5.269   4.413  10.464  0.0124 -0.0090  0.0147
32874ION     NA49721   4.648  13.592   9.881  0.3155  0.0975 -0.3414
32875ION     NA49722   1.340   1.457  11.185  0.0225 -0.1574  0.2540
32876ION     NA49723   5.454  14.973   9.967 -0.0323  0.1551  0.0672
32877ION     NA49724  18.493   0.759  15.122  0.3584  0.0497  0.1248
32878ION     NA49725   9.720  13.778   9.342 -0.2666 -0.0601 -0.2930
32879ION     NA49726   3.989   6.280  10.310 -0.0671 -0.0960 -0.0225
32880ION     NA49727  14.471  14.885  10.737 -0.0028 -0.3311 -0.0715
32881ION     NA49728  16.719  10.931  11.539  0.2350 -0.2062 -0.0875
32882ION     NA49729   2.465   5.462   3.819 -0.2674  0.0445 -0.1336
32883ION     NA49730  14.885   3.107  10.452 -0.1069  0.2155 -0.2239
32884ION     NA49731   7.509  15.341  15.584 -0.1286  0.0286 -0.0029
32885ION     NA49732  16.263  14.651  10.720 -0.2487 -0.0830  0.1294
32886ION     NA49733  14.802  14.004  10.831 -0.0990 -0.1529  0.1608
32887ION     NA49734  11.361  14.637   9.871 -0.2562 -0.1308 -0.1793
32888ION     NA49735   2.590   2.702   3.191 -0.1949  0.0574  0.2519
32889ION     NA49736   4.607   1.473  14.383 -0.0408 -0.0554 -0.3028
32890ION     NA49737  10.769  15.986   2.366  0.1822 -0.3148 -0.1380
32891ION     NA49738   1.188   2.732   0.003 -0.0320  0.1853 -0.0484
32892ION     NA49739  10.099  11.651   0.680  0.2221  0.1454 -0.0921
32893ION     NA49740   0.588   7.002  10.626 -0.2542 -0.1258  0.0385
32894ION     NA49741   8.697  17.653   5.308 -0.0996  0.0404 -0.2589
32895ION     NA49742   5.985  13.359   9.752 -0.1349 -0.0717  0.2334
32896ION     NA49743   3.916  10.362   5.695  0.1214  0.2698 -0.2137
32897ION     NA49744   4.464   9.122  10.158 -0.1071 -0.1618 -0.0723
32898ION     NA49745   6.946  11.401  10.137  0.1790  0.0208 -0.3113
32899ION     NA49746   5.553   9.227  10.346  0.1495  0.1503 -0.1067
32900ION     NA49747   8.665  15.122   1.280  0.0164 -0.0407  0.1916
32901ION     NA49748  14.141   7.995   1.178  0.1667  0.0774 -0.0121
32902ION     NA49749  16.131  12.957  10.575 -0.0392  0.0326 -0.0519
32903ION     NA49750  13.201  14.683  10.124 -0.2035  0.1959  0.1796
32904ION     NA49751   4.085   9.277  15.581 -0.2944  0.1554  0.0600
32905ION     NA49752  10.612   4.218   5.481 -0.0088  0.0482  0.1526
32906ION     NA49753   2.741   0.067  10.024 -0.0699 -0.3175 -0.1222
32907ION     NA49754   9.998   2.358   9.950  0.2247 -0.2188  0.3094
32908ION     NA49755  17.022   9.412   1.479  0.0692  0.2685 -0.0243
32909ION     NA49756   5.087   6.818  10.486 -0.0496  0.1659 -0.0573
32910ION     NA49757   2.044   8.909   5.432 -0.0131  0.2384 -0.5098
32911ION     NA49758   4.716  18.133   9.967 -0.0913  0.0371  0.1545
32912ION     NA49759  17.198   8.457  10.626  0.1664  0.2030  0.3615
32913ION     NA49760   3.793  11.107   5.429  0.0870 -0.2499  0.0580
32914ION     NA49761  13.072  16.720   2.501  0.2640  0.0386  0.1344
32915ION     NA49762   8.646   6.056  13.707  0.0161 -0.2305 -0.0420
32916ION     NA49763   2.473   8.357  15.364  0.0749  0.2282  0.2070
32917ION     NA49764   0.570   2.021   4.998 -0.0458  0.2435 -0.1779
32918ION     NA49765   5.799   4.147  10.421  0.0153 -0.1819 -0.2013
32919ION     NA49766  17.100  13.324  10.446  0.0031  0.1177 -0.1402
32920ION     NA49767  15.807   3.180  10.585 -0.1250 -0.0216  0.1421
32921ION     NA49768   7.921  16.982   9.676 -0.0296 -0.0301  0.2121
32922ION     NA49769   0.465   4.311  10.583  0.2691  0.1508  0.1290
32923ION     NA49770   9.963   0.637  11.028  0.0319  0.0049  0.1132
32924ION     NA49771  11.682   1.260   2.342  0.2417  0.0701 -0.1838
32925ION     NA49772   6.365   8.565   5.437  0.0773  0.0514 -0.0953
32926ION     NA49773   5.026  17.835   4.880 -0.1539 -0.2136  0.2002
32927ION     NA49774   3.717   1.309  10.031  0.2393 -0.3355 -0.0923
32928ION     NA49775  15.605   9.528   5.766  0.4120 -0.0662  0.2202
32929ION     NA49776   0.099  13.115  10.190 -0.3212  0.4578 -0.2619
32930ION     NA49777   7.409  13.553   3.909  0.0087 -0.1489  0.1514
32931ION     NA49778  18.767   8.843  10.161  0.1513 -0.1817 -0.1339
32932ION     NA49779   7.488   9.240  12.996 -0.0045 -0.1393 -0.3001
32933ION     NA49780  16.890   4.183  15.004  0.2552 -0.3216 -0.0181
32934ION     NA49781   6.871  18.794   2.799 -0.1181 -0.3431 -0.0764
32935ION     NA49782   9.988   3.289  10.103 -0.0793 -0.0470  0.0177
32936ION     NA49783  10.297  15.162  12.177 -0.1190  0.0932  0.1039
32937ION     NA49784  16.707   3.049  10.706  0.2270 -0.0438 -0.2020
32938ION     NA49785  10.186   9.833   5.590 -0.1360  0.0803 -0.4051
32939ION     NA49786   9.327   3.222  13.049 -0.0494  0.0658 -0.2744
32940ION     NA49787  13.317   0.868  10.183  0.1781 -0.0929  0.4719
32941ION     NA49788   6.319   8.973  10.132  0.1099 -0.4867 -0.0069
32942ION     NA49789   9.710  14.748   3.826 -0.1697 -0.3792 -0.1065
32943ION     NA49790   5.877   8.264   1.050 -0.1307 -0.4363  0.0416
32944ION     NA49791  11.450  13.656   9.903 -0.0420  0.1657  0.1342
32945ION     NA49792   1.371   0.779   5.295  0.0978 -0.0408 -0.1260
32946ION     NA49793   8.738   6.664  10.230 -0.4436  0.1418  0.0807
32947ION     NA49794   2.593   6.707  12.292  0.1411 -0.0988  0.1388
32948ION     NA49795   9.975  15.944   3.646 -0.0579 -0.0038 -0.0944
32949ION     NA49796  16.554  10.192   3.110 -0.3728  0.0078  0.0049
32950ION     NA49797  10.298   6.284   9.930  0.1395 -0.0948 -0.2028
32951ION     NA49798   7.049   8.483  10.290  0.1613  0.2521  0.0314
32952ION     NA49799   3.460  18.583   5.589  0.1157 -0.0223 -0.0059
32953ION     NA49800   9.718  10.870   4.829 -0.0718  0.0273  0.1593
32954ION     NA49801  10.947  13.764  12.125 -0.0332 -0.0582  0.2950
32955ION     NA49802   0.967  13.877   5.836 -0.1508 -0.0029  0.4298
32956ION     NA49803   1.799   8.827  10.228  0.1842 -0.2472 -0.0811
32957ION     NA49804  12.834  12.268  10.439 -0.1645  0.3659 -0.0608
32958ION     NA49805  12.987   6.490  13.010  0.2303  0.1953 -0.1185
32959ION     NA49806   8.970  15.386  10.440  0.4470  0.1200  0.0401
32960ION     NA49807   6.257   6.197   9.902  0.3606  0.0038 -0.2073
32961ION     NA49808   8.791   6.269   0.993 -0.0784  0.1715  0.3263
32962ION     NA49809  14.405   4.557  15.330  0.1294  0.0013 -0.0307
32963ION     NA49810   2.851   0.347   5.502  0.0296  0.0507  0.0449
32964ION     NA49811   1.543  18.748   0.422  0.0427 -0.1210  0.1856
32965ION     NA49812   1.422  17.757   9.895  0.0786 -0.0252 -0.1138
32966ION     NA49813   9.779  18.640  10.055  0.2068 -0.0591  0.3053
32967ION     NA49814  18.054   8.063  10.614 -0.3250 -0.0121 -0.0751
32968ION     NA49815   3.687  16.640   9.867  0.1413 -0.2237  0.0524
32969ION     NA49816   0.969  11.078   5.602  0.0443 -0.0531 -0.3088
32970ION     NA49817   2.018   7.442   5.468 -0.2445  0.0400 -0.2206
32971ION     NA49818   3.885   5.570   2.889 -0.0509 -0.3441 -0.1095
32972ION     NA49819  12.661   7.405  10.154  0.2345  0.2532 -0.0529
32973ION     NA49820  13.956  13.391   4.672 -0.1208  0.0941 -0.0036
32974ION     NA49821  13.127   5.387   4.665 -0.0138  0.0783 -0.0869
32975ION     NA49822   9.751  13.009   9.609  0.0737 -0.2059  0.1449
32976ION     NA49823  12.790  14.177  13.590 -0.0240  0.0349 -0.0857
32977ION     NA49824   9.544  13.369   4.936 -0.0648 -0.0529  0.2004
32978ION     NA49825  16.376  16.202  10.438 -0.0826  0.1210  0.2395
32979ION     NA49826   4.232   7.200  12.540 -0.1450  0.0903  0.0284
32980ION     NA49827  15.834  15.413  11.196  0.2771  0.1945 -0.2317
32981ION     NA49828  18.630  15.705  10.945 -0.2593  0.2420 -0.1750
32982ION     NA49829   8.978   3.426  10.232  0.0963  0.0454 -0.1316
32983ION     NA49830   4.208   5.380  10.828  0.0541 -0.3161 -0.1081
32984ION     NA49831  16.488   0.219  10.574 -0.1977  0.0606  0.0198
32985ION     NA49832   6.120  12.414   1.507  0.2456  0.0591 -0.0254
32986ION     NA49833   5.251  13.266  10.035 -0.0478 -0.0347  0.0552
32987ION     NA49834  15.928  18.569  10.239 -0.0039  0.2396  0.0975
32988ION     NA49835   1.003  15.021   0.178 -0.0837  0.2638 -0.0186
32989ION     NA49836  10.421   7.965   9.931 -0.0734 -0.0235 -0.0672
32990ION     NA49837   8.121  12.131  10.006  0.0670  0.1293  0.1245
32991ION     NA49838  18.584  15.274  10.096  0.0974 -0.2933  0.1425
32992ION     NA49839  11.548  12.648   1.598 -0.1051  0.1010  0.1162
32993ION     NA49840   0.162  16.078   3.494 -0.0423  0.2447  0.1132
32994ION     NA49841   6.513   5.595   5.878  0.0726  0.0430  0.1151
32995ION     NA49842  12.226   4.337   5.645 -0.0768 -0.0422  0.0286
32996ION     NA49843  12.395  12.460  14.426 -0.1857 -0.1323  0.3028
32997ION     NA49844   7.014   8.364   2.686  0.2342  0.1365  0.0758
32998ION     NA49845   8.845   9.225   9.608  0.1507  0.0510  0.2335
32999ION     NA49846   2.250  13.204   0.325  0.0115 -0.1908  0.0115
33000ION     NA49847   9.478  14.861  13.706  0.1155 -0.0277  0.0865
33001ION     NA49848   5.874   5.359  10.263  0.0227  0.1815 -0.0752
33002ION     NA49849   4.110   1.753   9.959  0.5920 -0.0872 -0.2023
33003ION     NA49850   1.265  15.515   9.998 -0.1842 -0.0459  0.0200
33004ION     NA49851  13.061  11.756  10.133  0.0804 -0.0661  0.0334
33005ION     NA49852  18.251  11.561  12.043 -0.0142 -0.2067  0.1250
33006ION     NA49853   9.914   4.151  10.324  0.1159  0.0914 -0.0942
33007ION     NA49854   9.809   2.582  10.658 -0.0197  0.2458 -0.1859
33008ION     NA49855   2.084   9.412   5.360  0.0525 -0.4490 -0.2383
33009ION     NA49856  17.583  12.582  10.479 -0.1302 -0.0780 -0.1645
33010ION     NA49857   1.797  17.548  14.919  0.1814 -0.1493 -0.0279
33011ION     NA49858   3.781  14.605   9.760 -0.3751 -0.1187  0.4043
33012ION     NA49859  15.172  18.102  10.031 -0.0121 -0.0921  0.2372
33013ION     NA49860  17.090  14.303  10.453  0.2342 -0.0764 -0.1852
33014ION     NA49861   4.683   8.087  10.069 -0.6016  0.3137  0.2029
33015ION     NA49862   5.352   8.512  10.828 -0.1498 -0.0037 -0.1837
33016ION     NA49863  18.796  14.230   2.488 -0.1620 -0.1249  0.1297
33017ION     NA49864   7.622   7.453   3.868 -0.0601  0.1101  0.1457
33018ION     NA49865   7.070   3.589  14.509  0.1734  0.2180 -0.1305
33019ION     NA49866   4.115   6.838  10.226  0.0274 -0.3635 -0.0228
33020ION     NA49867   5.421  11.262  10.354  0.1221 -0.0681  0.0520
33021ION     NA49868   0.183   1.199  10.365  0.1780  0.2195  0.1637
33022ION     NA49869  10.957  15.384   9.750  0.1180  0.1788 -0.2096
33023ION     NA49870   6.377   8.746  11.451  0.3043  0.0214  0.2856
33024ION     NA49871  10.134   1.676   5.581  0.2375  0.1659  0.2339
33025ION     NA49872   0.212  12.001   2.131  0.0370 -0.0896  0.1216
33026ION     NA49873  16.731   4.884  10.687  0.2821 -0.1349  0.2630
33027ION     NA49874  13.722   3.157  14.657  0.0862  0.0868  0.3072
33028ION     NA49875   9.333  12.210   9.428 -0.0824 -0.0409 -0.0632
33029ION     NA49876   7.931   3.833   0.490 -0.1049 -0.4176  0.0992
33030ION     NA49877   2.447  17.625   9.862 -0.1775  0.0993 -0.2375
  18.86527  18.86527  15.78106
